<event>
 7    1  0.6278987E-006  0.4149268E+02  0.7818608E-02  0.1533229E+00
          2   -1    0    0  502    0  0.00000000000E+00  0.00000000000E+00  0.83535214575E+03  0.83535214575E+03  0.00000000000E+00 0. -1.
          1   -1    0    0  501    0 -0.00000000000E+00 -0.00000000000E+00 -0.27185169428E+03  0.27185169428E+03  0.00000000000E+00 0. -1.
         25    2    1    2    0    0  0.64823637831E+02  0.35129973884E+02  0.11692981759E+02  0.14559473848E+03  0.12499953185E+03 0.  0.
          2    1    1    2  501    0 -0.29613919147E+02 -0.13692081698E+02 -0.20303611225E+03  0.20564075517E+03  0.00000000000E+00 0. -1.
          1    1    1    2  502    0 -0.35209718684E+02 -0.21437892186E+02  0.75484358196E+03  0.75596834639E+03  0.00000000000E+00 0. -1.
         22    1    3    3    0    0 -0.91010334993E+01  0.11863513270E+02 -0.46393294341E+02  0.48743302286E+02  0.00000000000E+00 0. -1.
         22    1    3    3    0    0  0.73924671330E+02  0.23266460614E+02  0.58086276101E+02  0.96851436190E+02  0.00000000000E+00 0. -1.
</event>
<event>
 7    1  0.6278987E-006  0.1205570E+03  0.7818608E-02  0.1333993E+00
          2   -1    0    0  502    0  0.00000000000E+00  0.00000000000E+00  0.65241823490E+03  0.65241823490E+03  0.00000000000E+00 0. -1.
          1   -1    0    0  501    0 -0.00000000000E+00 -0.00000000000E+00 -0.70910454806E+03  0.70910454806E+03  0.00000000000E+00 0. -1.
         25    2    1    2    0    0 -0.31548182817E+02  0.11831105637E+03  0.31578859486E+03  0.36102212740E+03  0.12498698304E+03 0.  0.
          2    1    1    2  501    0  0.76041340127E+02 -0.93725654812E+02 -0.67907396864E+03  0.68971605655E+03  0.00000000000E+00 0. -1.
          1    1    1    2  502    0 -0.44493157310E+02 -0.24585401556E+02  0.30659906062E+03  0.31078459902E+03  0.00000000000E+00 0. -1.
         22    1    3    3    0    0  0.15376958014E+02 -0.64281663888E+01  0.13708434833E+03  0.13809377508E+03  0.00000000000E+00 0.  1.
         22    1    3    3    0    0 -0.46925140831E+02  0.12473922276E+03  0.17870424653E+03  0.22292835231E+03  0.00000000000E+00 0.  1.
</event>
<event>
 7    1  0.6278987E-006  0.1010321E+03  0.7818608E-02  0.1284723E+00
          2   -1    0    0  502    0  0.00000000000E+00  0.00000000000E+00  0.58993592979E+03  0.58993592979E+03  0.00000000000E+00 0. -1.
          1   -1    0    0  501    0 -0.00000000000E+00 -0.00000000000E+00 -0.55524910052E+03  0.55524910052E+03  0.00000000000E+00 0. -1.
         25    2    1    2    0    0 -0.15152263990E+03  0.61629029765E+02 -0.78901088671E+02  0.22046195091E+03  0.12498336806E+03 0.  0.
          2    1    1    2  501    0  0.58098789957E+02 -0.78369365700E+02 -0.39524873713E+03  0.40711029350E+03  0.00000000000E+00 0. -1.
          1    1    1    2  502    0  0.93423849946E+02  0.16740335935E+02  0.50883665507E+03  0.51761278590E+03  0.00000000000E+00 0. -1.
         22    1    3    3    0    0 -0.75565609937E+02 -0.34035598912E+02 -0.41662027113E+02  0.92759408696E+02  0.00000000000E+00 0.  1.
         22    1    3    3    0    0 -0.75957029966E+02  0.95664628676E+02 -0.37239061558E+02  0.12770254221E+03  0.00000000000E+00 0.  1.
</event>
<event>
 7    1  0.1265854E-005  0.1063418E+03  0.7818608E-02  0.1351875E+00
          2   -1    0    0  502    0  0.00000000000E+00  0.00000000000E+00  0.97598961328E+03  0.97598961328E+03  0.00000000000E+00 0. -1.
          1   -1    0    0  501    0 -0.00000000000E+00 -0.00000000000E+00 -0.11459280697E+04  0.11459280697E+04  0.00000000000E+00 0. -1.
         25    2    1    2    0    0 -0.82384113196E+01 -0.68965455517E+02 -0.46665579375E+03  0.48807466040E+03  0.12500055524E+03 0.  0.
          2    1    1    2  501    0 -0.42827267687E+02 -0.24607243593E+02 -0.66470064784E+03  0.66653330190E+03  0.00000000000E+00 0. -1.
          1    1    1    2  502    0  0.51065679007E+02  0.93572699110E+02  0.96141798516E+03  0.96730972071E+03  0.00000000000E+00 0. -1.
         22    1    3    3    0    0  0.34485023672E+02 -0.87794383804E+02 -0.34820703938E+03  0.36075644548E+03  0.00000000000E+00 0. -1.
         22    1    3    3    0    0 -0.42723434991E+02  0.18828928287E+02 -0.11844875438E+03  0.12731821492E+03  0.00000000000E+00 0. -1.
</event>
<event>
 7    1  0.6278987E-006  0.1248341E+03  0.7818608E-02  0.1375358E+00
          2   -1    0    0  502    0  0.00000000000E+00  0.00000000000E+00  0.10701770023E+04  0.10701770023E+04  0.00000000000E+00 0. -1.
          1   -1    0    0  501    0 -0.00000000000E+00 -0.00000000000E+00 -0.90547255419E+02  0.90547255419E+02  0.00000000000E+00 0. -1.
         25    2    1    2    0    0 -0.42446520555E+02 -0.92916831550E+02  0.63581212227E+03  0.65598580053E+03  0.12500028392E+03 0.  0.
          2    1    1    2  501    0  0.27020865940E+02  0.12386310572E+03 -0.29221418691E+02  0.13010029772E+03  0.00000000000E+00 0. -1.
          1    1    1    2  502    0  0.15425654616E+02 -0.30946274173E+02  0.37303904325E+03  0.37463815943E+03  0.00000000000E+00 0. -1.
         22    1    3    3    0    0 -0.58237779218E+01 -0.96262519322E+00 -0.49011908459E+01  0.76723339509E+01  0.00000000000E+00 0.  1.
         22    1    3    3    0    0 -0.36622742634E+02 -0.91954206356E+02  0.64071331311E+03  0.64831346658E+03  0.00000000000E+00 0.  1.
</event>
<event>
 7    1  0.6278987E-006  0.4224526E+02  0.7818608E-02  0.1601274E+00
          2   -1    0    0  502    0  0.00000000000E+00  0.00000000000E+00  0.10210658442E+04  0.10210658442E+04  0.00000000000E+00 0. -1.
          1   -1    0    0  501    0 -0.00000000000E+00 -0.00000000000E+00 -0.19577101564E+04  0.19577101564E+04  0.00000000000E+00 0. -1.
         25    2    1    2    0    0 -0.20892859636E+02 -0.40544173405E+02  0.73784608706E+03  0.74974769171E+03  0.12499764581E+03 0.  0.
          2    1    1    2  501    0  0.62661769238E-01  0.42245727487E+02 -0.19511365462E+04  0.19515938428E+04  0.00000000000E+00 0. -1.
          1    1    1    2  502    0  0.20830197867E+02 -0.17015540828E+01  0.27664614690E+03  0.27743446618E+03  0.00000000000E+00 0. -1.
         22    1    3    3    0    0 -0.71362093201E+00 -0.26572325143E+02  0.71715012199E+03  0.71764259572E+03  0.00000000000E+00 0. -1.
         22    1    3    3    0    0 -0.20179238704E+02 -0.13971848262E+02  0.20695965065E+02  0.32105095990E+02  0.00000000000E+00 0. -1.
</event>
<event>
 7    1  0.6278987E-006  0.1309100E+03  0.7818608E-02  0.1313368E+00
          2   -1    0    0  502    0  0.00000000000E+00  0.00000000000E+00  0.57744085913E+03  0.57744085913E+03  0.00000000000E+00 0. -1.
          1   -1    0    0  501    0 -0.00000000000E+00 -0.00000000000E+00 -0.34487369855E+03  0.34487369855E+03  0.00000000000E+00 0. -1.
         25    2    1    2    0    0  0.56699045729E+02 -0.16971744751E+03  0.17307264378E+03  0.27856594282E+03  0.12500420273E+03 0.  0.
          2    1    1    2  501    0 -0.59157180566E+02  0.11354408110E+03 -0.27564369844E+03  0.30392643659E+03  0.00000000000E+00 0. -1.
          1    1    1    2  502    0  0.24581348366E+01  0.56173366403E+02  0.33513821525E+03  0.33982217826E+03  0.00000000000E+00 0. -1.
         22    1    3    3    0    0  0.11439170819E+02 -0.17247247190E+03  0.14016526043E+03  0.22253967831E+03  0.00000000000E+00 0.  1.
         22    1    3    3    0    0  0.45259874910E+02  0.27550243881E+01  0.32907383351E+02  0.56026264513E+02  0.00000000000E+00 0.  1.
</event>
<event>
 7    1  0.6278987E-006  0.4537441E+02  0.7818608E-02  0.1481810E+00
          2   -1    0    0  502    0  0.00000000000E+00  0.00000000000E+00  0.85309236688E+03  0.85309236688E+03  0.00000000000E+00 0. -1.
          1   -1    0    0  501    0 -0.00000000000E+00 -0.00000000000E+00 -0.36463868606E+03  0.36463868606E+03  0.00000000000E+00 0. -1.
         25    2    1    2    0    0 -0.29929495597E+02  0.23980984097E+02 -0.64436851389E+02  0.14576729440E+03  0.12500053598E+03 0.  0.
          2    1    1    2  501    0  0.43832360022E+02  0.16000204352E+02 -0.25688205995E+03  0.26108557036E+03  0.00000000000E+00 0. -1.
          1    1    1    2  502    0 -0.13902864425E+02 -0.39981188449E+02  0.80977259215E+03  0.81087818818E+03  0.00000000000E+00 0. -1.
         22    1    3    3    0    0 -0.51043115377E+02  0.17117726741E+02  0.20778379445E+02  0.57707514662E+02  0.00000000000E+00 0.  1.
         22    1    3    3    0    0  0.21113619780E+02  0.68632573562E+01 -0.85215230833E+02  0.88059779739E+02  0.00000000000E+00 0.  1.
</event>
<event>
 7    1  0.6278987E-006  0.8399188E+02  0.7818608E-02  0.1331891E+00
          2   -1    0    0  502    0  0.00000000000E+00  0.00000000000E+00  0.24154089516E+03  0.24154089516E+03  0.00000000000E+00 0. -1.
          1   -1    0    0  501    0 -0.00000000000E+00 -0.00000000000E+00 -0.21712088753E+04  0.21712088753E+04  0.00000000000E+00 0. -1.
         25    2    1    2    0    0  0.56032980055E+02  0.33701428771E+02 -0.13955942619E+04  0.14027061043E+04  0.12500236007E+03 0.  0.
          2    1    1    2  501    0  0.19106235806E+02 -0.71821852903E+02 -0.76273806991E+03  0.76635030508E+03  0.00000000000E+00 0. -1.
          1    1    1    2  502    0 -0.75139215860E+02  0.38120424132E+02  0.22866435168E+03  0.24369336107E+03  0.00000000000E+00 0. -1.
         22    1    3    3    0    0 -0.12900746854E+02  0.38943854467E+02 -0.15988241967E+03  0.16506193137E+03  0.00000000000E+00 0.  1.
         22    1    3    3    0    0  0.68933726909E+02 -0.52424256954E+01 -0.12357118422E+04  0.12376441729E+04  0.00000000000E+00 0.  1.
</event>
<event>
 7    1  0.6278987E-006  0.7529176E+02  0.7818608E-02  0.1350761E+00
          2   -1    0    0  502    0  0.00000000000E+00  0.00000000000E+00  0.12279436823E+03  0.12279436823E+03  0.00000000000E+00 0. -1.
          1   -1    0    0  501    0 -0.00000000000E+00 -0.00000000000E+00 -0.11896363381E+04  0.11896363381E+04  0.00000000000E+00 0. -1.
         25    2    1    2    0    0  0.60048548103E+02  0.95179870191E+01 -0.17460876535E+03  0.22318256687E+03  0.12500326801E+03 0.  0.
          2    1    1    2  501    0 -0.49758407495E+02  0.60153720062E+02 -0.97639247978E+03  0.97950836837E+03  0.00000000000E+00 0. -1.
          1    1    1    2  502    0 -0.10290140608E+02 -0.69671707081E+02  0.84159275214E+02  0.10973977112E+03  0.00000000000E+00 0. -1.
         22    1    3    3    0    0  0.27413823081E+02 -0.54693093196E+02 -0.11256776864E+03  0.12811851808E+03  0.00000000000E+00 0. -1.
         22    1    3    3    0    0  0.32634725023E+02  0.64211080215E+02 -0.62040996712E+02  0.95064048792E+02  0.00000000000E+00 0. -1.
</event>
<event>
 7    1  0.6278987E-006  0.7706268E+02  0.7818608E-02  0.1414891E+00
          2   -1    0    0  502    0  0.00000000000E+00  0.00000000000E+00  0.10118928888E+03  0.10118928888E+03  0.00000000000E+00 0. -1.
          1   -1    0    0  501    0 -0.00000000000E+00 -0.00000000000E+00 -0.36637004968E+03  0.36637004968E+03  0.00000000000E+00 0. -1.
         25    2    1    2    0    0 -0.24163812874E+02  0.77090655240E+02 -0.14599430194E+03  0.20848422096E+03  0.12499790083E+03 0.  0.
          2    1    1    2  501    0  0.57388908162E+02 -0.53300991201E+02 -0.17393601921E+03  0.19075696900E+03  0.00000000000E+00 0. -1.
          1    1    1    2  502    0 -0.33225095287E+02 -0.23789664039E+02  0.54749560345E+02  0.68318148613E+02  0.00000000000E+00 0. -1.
         22    1    3    3    0    0 -0.48929479243E+02  0.99833454835E+02 -0.13056915660E+03  0.17149086652E+03  0.00000000000E+00 0.  1.
         22    1    3    3    0    0  0.24765666368E+02 -0.22742799596E+02 -0.15425145340E+02  0.36993354442E+02  0.00000000000E+00 0.  1.
</event>
<event>
 7    1  0.6278987E-006  0.6500717E+03  0.7818608E-02  0.1230063E+00
          2   -1    0    0  502    0  0.00000000000E+00  0.00000000000E+00  0.16704598696E+04  0.16704598696E+04  0.00000000000E+00 0. -1.
          1   -1    0    0  501    0 -0.00000000000E+00 -0.00000000000E+00 -0.11724699096E+04  0.11724699096E+04  0.00000000000E+00 0. -1.
         25    2    1    2    0    0  0.32556155279E+03  0.57710566467E+03  0.43683745149E+03  0.80342542894E+03  0.12499675194E+03 0.  0.
          2    1    1    2  501    0 -0.23683651643E+02 -0.89126758747E+01 -0.89044499965E+03  0.89080449513E+03  0.00000000000E+00 0. -1.
          1    1    1    2  502    0 -0.30187790115E+03 -0.56819298880E+03  0.95159750810E+03  0.11486998551E+04  0.00000000000E+00 0. -1.
         22    1    3    3    0    0  0.11230660767E+03  0.94928749815E+02  0.96703227068E+02  0.17599930623E+03  0.00000000000E+00 0. -1.
         22    1    3    3    0    0  0.21325494512E+03  0.48217691486E+03  0.34013422442E+03  0.62742612271E+03  0.00000000000E+00 0. -1.
</event>
<event>
 7    1  0.6278987E-006  0.7226166E+02  0.7818608E-02  0.1355291E+00
          2   -1    0    0  502    0  0.00000000000E+00  0.00000000000E+00  0.12596771865E+03  0.12596771865E+03  0.00000000000E+00 0. -1.
          1   -1    0    0  501    0 -0.00000000000E+00 -0.00000000000E+00 -0.33719187955E+03  0.33719187955E+03  0.00000000000E+00 0. -1.
         25    2    1    2    0    0  0.75960700935E+02 -0.24723022282E+02 -0.35341861030E+02  0.15250283748E+03  0.12500724932E+03 0.  0.
          2    1    1    2  501    0 -0.19841227346E+02  0.70246118208E+02 -0.21600377143E+03  0.22800399272E+03  0.00000000000E+00 0. -1.
          1    1    1    2  502    0 -0.56119473589E+02 -0.45523095926E+02  0.40121471551E+02  0.82652768000E+02  0.00000000000E+00 0. -1.
         22    1    3    3    0    0  0.38770452832E+02  0.17639433134E+02 -0.73135393227E+02  0.84635000777E+02  0.00000000000E+00 0. -1.
         22    1    3    3    0    0  0.37190248103E+02 -0.42362455416E+02  0.37793532198E+02  0.67867836703E+02  0.00000000000E+00 0. -1.
</event>
<event>
 7    1  0.6278987E-006  0.9667113E+02  0.7818608E-02  0.1298132E+00
          2   -1    0    0  502    0  0.00000000000E+00  0.00000000000E+00  0.10150526541E+03  0.10150526541E+03  0.00000000000E+00 0. -1.
          1   -1    0    0  501    0 -0.00000000000E+00 -0.00000000000E+00 -0.92156781902E+03  0.92156781902E+03  0.00000000000E+00 0. -1.
         25    2    1    2    0    0 -0.80964967545E+02  0.90156080164E+02 -0.42567474292E+03  0.45989952302E+03  0.12500055899E+03 0.  0.
          2    1    1    2  501    0 -0.62548634254E+01 -0.97301094755E+02 -0.44936779060E+03  0.45982392020E+03  0.00000000000E+00 0. -1.
          1    1    1    2  502    0  0.87219830971E+02  0.71450145908E+01  0.54979979920E+02  0.10334964122E+03  0.00000000000E+00 0. -1.
         22    1    3    3    0    0 -0.10090865192E+03  0.51093980657E+02 -0.38042204701E+03  0.39688044137E+03  0.00000000000E+00 0.  1.
         22    1    3    3    0    0  0.19943684371E+02  0.39062099507E+02 -0.45252695917E+02  0.63019081650E+02  0.00000000000E+00 0.  1.
</event>
<event>
 7    1  0.6278987E-006  0.7316679E+02  0.7818608E-02  0.1380165E+00
          2   -1    0    0  502    0  0.00000000000E+00  0.00000000000E+00  0.53334642761E+03  0.53334642761E+03  0.00000000000E+00 0. -1.
          1   -1    0    0  501    0 -0.00000000000E+00 -0.00000000000E+00 -0.51806419316E+03  0.51806419316E+03  0.00000000000E+00 0. -1.
         25    2    1    2    0    0 -0.11702717380E+03 -0.46878878114E+01 -0.75444952937E+02  0.18716872442E+03  0.12499141882E+03 0.  0.
          2    1    1    2  501    0  0.67307380780E+02 -0.22607371323E+02 -0.38178823432E+03  0.38833443397E+03  0.00000000000E+00 0. -1.
          1    1    1    2  502    0  0.49719793017E+02  0.27295259135E+02  0.47251542171E+03  0.47590746237E+03  0.00000000000E+00 0. -1.
         22    1    3    3    0    0 -0.11157939081E+03 -0.95534583124E+01 -0.10693484981E+03  0.15484279487E+03  0.00000000000E+00 0. -1.
         22    1    3    3    0    0 -0.54477829831E+01  0.48655705010E+01  0.31489896875E+02  0.32325929545E+02  0.00000000000E+00 0. -1.
</event>
<event>
 7    1  0.6278987E-006  0.1588898E+03  0.7818608E-02  0.1216795E+00
          2   -1    0    0  502    0  0.00000000000E+00  0.00000000000E+00  0.50312284456E+03  0.50312284456E+03  0.00000000000E+00 0. -1.
          1   -1    0    0  501    0 -0.00000000000E+00 -0.00000000000E+00 -0.10522502570E+04  0.10522502570E+04  0.00000000000E+00 0. -1.
         25    2    1    2    0    0  0.12150686020E+03 -0.88559506589E+02 -0.20005834462E+03  0.27974119465E+03  0.12500036578E+03 0.  0.
          2    1    1    2  501    0 -0.30958025064E+02  0.16563694464E+03 -0.79574928811E+03  0.81339469280E+03  0.00000000000E+00 0. -1.
          1    1    1    2  502    0 -0.90548835139E+02 -0.77077438053E+02  0.44668022024E+03  0.46223721416E+03  0.00000000000E+00 0. -1.
         22    1    3    3    0    0  0.52991053351E+02 -0.52912129694E+01 -0.89826397837E+00  0.53262139913E+02  0.00000000000E+00 0.  1.
         22    1    3    3    0    0  0.68515806852E+02 -0.83268293620E+02 -0.19916008065E+03  0.22647905474E+03  0.00000000000E+00 0.  1.
</event>
<event>
 7    1  0.6278987E-006  0.1491195E+03  0.7818608E-02  0.1271383E+00
          2   -1    0    0  502    0  0.00000000000E+00  0.00000000000E+00  0.82576080579E+03  0.82576080579E+03  0.00000000000E+00 0. -1.
          1   -1    0    0  501    0 -0.00000000000E+00 -0.00000000000E+00 -0.58536218021E+02  0.58536218021E+02  0.00000000000E+00 0. -1.
         25    2    1    2    0    0  0.25991418426E+02 -0.15600469347E+03  0.25072431463E+03  0.32171278864E+03  0.12499367269E+03 0.  0.
          2    1    1    2  501    0  0.45461774931E+02  0.14087639287E+03  0.30955444590E+03  0.34312808982E+03  0.00000000000E+00 0. -1.
          1    1    1    2  502    0 -0.71453193357E+02  0.15128300606E+02  0.20694582724E+03  0.21945614535E+03  0.00000000000E+00 0. -1.
         22    1    3    3    0    0 -0.40430429933E+02 -0.11611723148E+03  0.17021133854E+03  0.20997554829E+03  0.00000000000E+00 0.  1.
         22    1    3    3    0    0  0.66421848359E+02 -0.39887461996E+02  0.80512976090E+02  0.11173724036E+03  0.00000000000E+00 0.  1.
</event>
<event>
 7    1  0.6278987E-006  0.6601722E+02  0.7818608E-02  0.1536647E+00
          2   -1    0    0  502    0  0.00000000000E+00  0.00000000000E+00  0.32644210861E+03  0.32644210861E+03  0.00000000000E+00 0. -1.
          1   -1    0    0  501    0 -0.00000000000E+00 -0.00000000000E+00 -0.15775813449E+03  0.15775813449E+03  0.00000000000E+00 0. -1.
         25    2    1    2    0    0  0.64763192291E+02 -0.39442390609E+02 -0.15172751200E+02  0.14700203197E+03  0.12501764585E+03 0.  0.
          2    1    1    2  501    0 -0.18682741651E+02 -0.72818648895E+01 -0.71129952986E+02  0.73902236797E+02  0.00000000000E+00 0. -1.
          1    1    1    2  502    0 -0.46080450640E+02  0.46724255499E+02  0.25498667831E+03  0.26329597433E+03  0.00000000000E+00 0. -1.
         22    1    3    3    0    0  0.38248427619E+02 -0.66542866591E+02 -0.53134555205E+02  0.93349752363E+02  0.00000000000E+00 0. -1.
         22    1    3    3    0    0  0.26514764672E+02  0.27100475981E+02  0.37961804005E+02  0.53652279610E+02  0.00000000000E+00 0. -1.
</event>
<event>
 7    1  0.6278987E-006  0.5238017E+02  0.7818608E-02  0.1527288E+00
          2   -1    0    0  502    0  0.00000000000E+00  0.00000000000E+00  0.11849030455E+04  0.11849030455E+04  0.00000000000E+00 0. -1.
          1   -1    0    0  501    0 -0.00000000000E+00 -0.00000000000E+00 -0.95194025015E+02  0.95194025015E+02  0.00000000000E+00 0. -1.
         25    2    1    2    0    0 -0.30557939944E+02 -0.10384072153E+02  0.23471934104E+03  0.26788161322E+03  0.12500309195E+03 0.  0.
          2    1    1    2  501    0 -0.92654516658E+01 -0.25229678143E+02 -0.75526778868E+02  0.80166573957E+02  0.00000000000E+00 0. -1.
          1    1    1    2  502    0  0.39823391610E+02  0.35613750296E+02  0.93051645832E+03  0.93204888334E+03  0.00000000000E+00 0. -1.
         22    1    3    3    0    0  0.22788674545E+02  0.28976014344E+02  0.17439464256E+03  0.17824821023E+03  0.00000000000E+00 0. -1.
         22    1    3    3    0    0 -0.53346614489E+02 -0.39360086497E+02  0.60324698476E+02  0.89633402997E+02  0.00000000000E+00 0. -1.
</event>
<event>
 7    1  0.6278987E-006  0.6668740E+02  0.7818608E-02  0.1396389E+00
          2   -1    0    0  502    0  0.00000000000E+00  0.00000000000E+00  0.92027039601E+03  0.92027039601E+03  0.00000000000E+00 0. -1.
          1   -1    0    0  501    0 -0.00000000000E+00 -0.00000000000E+00 -0.27833486370E+02  0.27833486370E+02  0.00000000000E+00 0. -1.
         25    2    1    2    0    0 -0.18815291224E+02  0.48088037800E+02  0.71555343751E+03  0.72822235344E+03  0.12499839819E+03 0.  0.
          2    1    1    2  501    0 -0.33313340093E+02 -0.64349823335E+02  0.12541064685E+03  0.14483959657E+03  0.00000000000E+00 0. -1.
          1    1    1    2  502    0  0.52128631317E+02  0.16261785534E+02  0.51472825281E+02  0.75041932372E+02  0.00000000000E+00 0. -1.
         22    1    3    3    0    0 -0.25419133067E+02  0.77498409281E+01  0.25080891958E+02  0.36540983863E+02  0.00000000000E+00 0.  1.
         22    1    3    3    0    0  0.66038418434E+01  0.40338196872E+02  0.69047254555E+03  0.69168136957E+03  0.00000000000E+00 0.  1.
</event>
<event>
 7    1  0.6278987E-006  0.1170753E+03  0.7818608E-02  0.1357349E+00
          2   -1    0    0  502    0  0.00000000000E+00  0.00000000000E+00  0.24951522845E+04  0.24951522845E+04  0.00000000000E+00 0. -1.
          1   -1    0    0  501    0 -0.00000000000E+00 -0.00000000000E+00 -0.46432655384E+03  0.46432655384E+03  0.00000000000E+00 0. -1.
         25    2    1    2    0    0 -0.10718893140E+03 -0.57623492387E+02  0.13089541912E+03  0.21810623006E+03  0.12500713162E+03 0.  0.
          2    1    1    2  501    0  0.30021117190E+02 -0.30549715476E+02 -0.41814743492E+03  0.42033537791E+03  0.00000000000E+00 0. -1.
          1    1    1    2  502    0  0.77167814210E+02  0.88173207863E+02  0.23180777465E+04  0.23210372304E+04  0.00000000000E+00 0. -1.
         22    1    3    3    0    0 -0.15393521214E+02 -0.14996029487E+02 -0.24542608554E+02  0.32621787663E+02  0.00000000000E+00 0.  1.
         22    1    3    3    0    0 -0.91795410186E+02 -0.42627462900E+02  0.15543802767E+03  0.18548444240E+03  0.00000000000E+00 0.  1.
</event>
<event>
 7    1  0.6278987E-006  0.8896762E+02  0.7818608E-02  0.1386899E+00
          2   -1    0    0  502    0  0.00000000000E+00  0.00000000000E+00  0.38086164226E+03  0.38086164226E+03  0.00000000000E+00 0. -1.
          1   -1    0    0  501    0 -0.00000000000E+00 -0.00000000000E+00 -0.68158196958E+03  0.68158196958E+03  0.00000000000E+00 0. -1.
         25    2    1    2    0    0  0.61808959334E+02 -0.35795510416E+02 -0.17768208079E+03  0.22868748887E+03  0.12500151883E+03 0.  0.
          2    1    1    2  501    0 -0.50532731236E+02  0.78497964089E+02 -0.47243920525E+03  0.48157480203E+03  0.00000000000E+00 0. -1.
          1    1    1    2  502    0 -0.11276228099E+02 -0.42702453673E+02  0.34940095872E+03  0.35218132094E+03  0.00000000000E+00 0. -1.
         22    1    3    3    0    0  0.20121295096E+02  0.45229883439E+02 -0.87213851243E+02  0.10028392055E+03  0.00000000000E+00 0.  1.
         22    1    3    3    0    0  0.41687664239E+02 -0.81025393854E+02 -0.90468229546E+02  0.12840356832E+03  0.00000000000E+00 0.  1.
</event>
<event>
 7    1  0.6278987E-006  0.3884821E+02  0.7818608E-02  0.1582614E+00
          2   -1    0    0  502    0  0.00000000000E+00  0.00000000000E+00  0.18139038761E+04  0.18139038761E+04  0.00000000000E+00 0. -1.
          1   -1    0    0  501    0 -0.00000000000E+00 -0.00000000000E+00 -0.10691407186E+03  0.10691407186E+03  0.00000000000E+00 0. -1.
         25    2    1    2    0    0 -0.67135412820E+00 -0.14846956040E+02  0.20088521416E+03  0.23706762385E+03  0.12500122476E+03 0.  0.
          2    1    1    2  501    0 -0.95540709025E+01  0.38160331316E+02 -0.84360450470E+02  0.93081559723E+02  0.00000000000E+00 0. -1.
          1    1    1    2  502    0  0.10225425031E+02 -0.23313375276E+02  0.15904650406E+04  0.15906687644E+04  0.00000000000E+00 0. -1.
         22    1    3    3    0    0 -0.47851828960E+02 -0.31294499641E+02  0.16746276244E+03  0.17695457057E+03  0.00000000000E+00 0. -1.
         22    1    3    3    0    0  0.47180474832E+02  0.16447543601E+02  0.33422451724E+02  0.60113053284E+02  0.00000000000E+00 0. -1.
</event>
<event>
 7    1  0.6278987E-006  0.5036965E+02  0.7818608E-02  0.1468987E+00
          2   -1    0    0  502    0  0.00000000000E+00  0.00000000000E+00  0.47760318249E+02  0.47760318249E+02  0.00000000000E+00 0. -1.
          1   -1    0    0  501    0 -0.00000000000E+00 -0.00000000000E+00 -0.86176152548E+03  0.86176152548E+03  0.00000000000E+00 0. -1.
         25    2    1    2    0    0 -0.28613995852E+02  0.47482714592E+02 -0.29493074297E+03  0.32508865745E+03  0.12500049244E+03 0.  0.
          2    1    1    2  501    0  0.41728137530E+02  0.18914996149E+01 -0.53045236219E+03  0.53209446886E+03  0.00000000000E+00 0. -1.
          1    1    1    2  502    0 -0.13114141678E+02 -0.49374214207E+02  0.11381897934E+02  0.52338717419E+02  0.00000000000E+00 0. -1.
         22    1    3    3    0    0 -0.43865563652E+02 -0.31063831316E+01 -0.26148943040E+02  0.51162530360E+02  0.00000000000E+00 0.  1.
         22    1    3    3    0    0  0.15251567800E+02  0.50589097724E+02 -0.26878179993E+03  0.27392612709E+03  0.00000000000E+00 0.  1.
</event>
<event>
 7    1  0.6278987E-006  0.1830622E+03  0.7818608E-02  0.1178427E+00
          2   -1    0    0  502    0  0.00000000000E+00  0.00000000000E+00  0.69127681871E+03  0.69127681871E+03  0.00000000000E+00 0. -1.
          1   -1    0    0  501    0 -0.00000000000E+00 -0.00000000000E+00 -0.16811315221E+03  0.16811315221E+03  0.00000000000E+00 0. -1.
         25    2    1    2    0    0  0.42600385006E+02 -0.11669829771E+03  0.15404098031E+03  0.23406020424E+03  0.12498907992E+03 0.  0.
          2    1    1    2  501    0 -0.94942435144E+02 -0.12484251555E+03 -0.26291714240E+02  0.15903136143E+03  0.00000000000E+00 0. -1.
          1    1    1    2  502    0  0.52342050138E+02  0.24154081326E+03  0.39541440043E+03  0.46629840526E+03  0.00000000000E+00 0. -1.
         22    1    3    3    0    0  0.23757319602E+02 -0.58433536302E+01 -0.16697798138E+02  0.29620457103E+02  0.00000000000E+00 0.  1.
         22    1    3    3    0    0  0.18843065403E+02 -0.11085494408E+03  0.17073877845E+03  0.20443974713E+03  0.00000000000E+00 0.  1.
</event>
<event>
 7    1  0.6278987E-006  0.1089845E+03  0.7818608E-02  0.1371942E+00
          2   -1    0    0  502    0  0.00000000000E+00  0.00000000000E+00  0.38886889018E+03  0.38886889018E+03  0.00000000000E+00 0. -1.
          1   -1    0    0  501    0 -0.00000000000E+00 -0.00000000000E+00 -0.11617782702E+04  0.11617782702E+04  0.00000000000E+00 0. -1.
         25    2    1    2    0    0  0.27571908826E+01 -0.69411749420E+02  0.26273266934E+03  0.29913039977E+03  0.12499978988E+03 0.  0.
          2    1    1    2  501    0  0.60226695981E+01  0.10919045051E+03 -0.11370167803E+04  0.11422635360E+04  0.00000000000E+00 0. -1.
          1    1    1    2  502    0 -0.87798604807E+01 -0.39778701090E+02  0.10137473094E+03  0.10925322459E+03  0.00000000000E+00 0. -1.
         22    1    3    3    0    0 -0.25215274467E+02 -0.88766261651E+02  0.11455705417E+03  0.14710057081E+03  0.00000000000E+00 0. -1.
         22    1    3    3    0    0  0.27972465350E+02  0.19354512231E+02  0.14817561517E+03  0.15202982896E+03  0.00000000000E+00 0. -1.
</event>
<event>
 7    1  0.6278987E-006  0.3507545E+03  0.7818608E-02  0.1281373E+00
          2   -1    0    0  502    0  0.00000000000E+00  0.00000000000E+00  0.46278558845E+03  0.46278558845E+03  0.00000000000E+00 0. -1.
          1   -1    0    0  501    0 -0.00000000000E+00 -0.00000000000E+00 -0.13631548840E+04  0.13631548840E+04  0.00000000000E+00 0. -1.
         25    2    1    2    0    0 -0.33160618005E+03 -0.15776295659E+03 -0.72436534563E+01  0.38798127887E+03  0.12500077249E+03 0.  0.
          2    1    1    2  501    0  0.30535472825E+03  0.16811721892E+03 -0.11386542616E+04  0.11908141907E+04  0.00000000000E+00 0. -1.
          1    1    1    2  502    0  0.26251451803E+02 -0.10354262336E+02  0.24552861947E+03  0.24714500288E+03  0.00000000000E+00 0. -1.
         22    1    3    3    0    0 -0.20731876541E+03 -0.13428238837E+03  0.45102015227E+02  0.25109166075E+03  0.00000000000E+00 0.  1.
         22    1    3    3    0    0 -0.12428741464E+03 -0.23480568216E+02 -0.52345668683E+02  0.13688961813E+03  0.00000000000E+00 0.  1.
</event>
<event>
 7    1  0.6278987E-006  0.1892449E+03  0.7818608E-02  0.1272581E+00
          2   -1    0    0  502    0  0.00000000000E+00  0.00000000000E+00  0.91902587700E+03  0.91902587700E+03  0.00000000000E+00 0. -1.
          1   -1    0    0  501    0 -0.00000000000E+00 -0.00000000000E+00 -0.14412030250E+04  0.14412030250E+04  0.00000000000E+00 0. -1.
         25    2    1    2    0    0 -0.30089976363E+02  0.17630386603E+03  0.68952797108E+03  0.72323086174E+03  0.12500238646E+03 0.  0.
          2    1    1    2  501    0 -0.25654388178E+02 -0.18766554156E+03 -0.14141157104E+04  0.14267444570E+04  0.00000000000E+00 0. -1.
          1    1    1    2  502    0  0.55744364541E+02  0.11361675535E+02  0.20241059126E+03  0.21025358333E+03  0.00000000000E+00 0. -1.
         22    1    3    3    0    0  0.43188854768E+02  0.26613917635E+02  0.18867770261E+03  0.19537874308E+03  0.00000000000E+00 0. -1.
         22    1    3    3    0    0 -0.73278831131E+02  0.14968994839E+03  0.50085026847E+03  0.52785211866E+03  0.00000000000E+00 0. -1.
</event>
<event>
 7    1  0.6278987E-006  0.6691272E+02  0.7818608E-02  0.1413995E+00
          2   -1    0    0  502    0  0.00000000000E+00  0.00000000000E+00  0.63098283843E+03  0.63098283843E+03  0.00000000000E+00 0. -1.
          1   -1    0    0  501    0 -0.00000000000E+00 -0.00000000000E+00 -0.16374085797E+03  0.16374085797E+03  0.00000000000E+00 0. -1.
         25    2    1    2    0    0  0.35338146702E+02  0.31483054070E+01 -0.16155245503E+02  0.13093666758E+03  0.12499889008E+03 0.  0.
          2    1    1    2  501    0 -0.66155815747E+02 -0.39149891180E+02 -0.72622562404E+02  0.10575132390E+03  0.00000000000E+00 0. -1.
          1    1    1    2  502    0  0.30817669045E+02  0.36001585773E+02  0.55601978837E+03  0.55803570492E+03  0.00000000000E+00 0. -1.
         22    1    3    3    0    0 -0.28704342857E+02 -0.22869363937E+02  0.30349300920E+02  0.47623808878E+02  0.00000000000E+00 0.  1.
         22    1    3    3    0    0  0.64042489559E+02  0.26017669344E+02 -0.46504546424E+02  0.83312858702E+02  0.00000000000E+00 0.  1.
</event>
<event>
 7    1  0.6278987E-006  0.4115148E+02  0.7818608E-02  0.1501651E+00
          2   -1    0    0  502    0  0.00000000000E+00  0.00000000000E+00  0.10963729858E+04  0.10963729858E+04  0.00000000000E+00 0. -1.
          1   -1    0    0  501    0 -0.00000000000E+00 -0.00000000000E+00 -0.56866329277E+03  0.56866329277E+03  0.00000000000E+00 0. -1.
         25    2    1    2    0    0  0.25167845180E+02  0.56122063942E+02 -0.24295637941E+02  0.14141618589E+03  0.12500061247E+03 0.  0.
          2    1    1    2  501    0  0.12134835613E+02 -0.38808265108E+02 -0.48454810391E+03  0.48625117037E+03  0.00000000000E+00 0. -1.
          1    1    1    2  502    0 -0.37302680793E+02 -0.17313798835E+02  0.10365534349E+04  0.10373689223E+04  0.00000000000E+00 0. -1.
         22    1    3    3    0    0 -0.66748272330E+01  0.66840666136E+02  0.33118595567E+02  0.74893720300E+02  0.00000000000E+00 0.  1.
         22    1    3    3    0    0  0.31842672413E+02 -0.10718602194E+02 -0.57414233508E+02  0.66522465594E+02  0.00000000000E+00 0.  1.
</event>
<event>
 7    1  0.6278987E-006  0.1170835E+03  0.7818608E-02  0.1253788E+00
          2   -1    0    0  502    0  0.00000000000E+00  0.00000000000E+00  0.11385496134E+04  0.11385496134E+04  0.00000000000E+00 0. -1.
          1   -1    0    0  501    0 -0.00000000000E+00 -0.00000000000E+00 -0.69275103601E+02  0.69275103601E+02  0.00000000000E+00 0. -1.
         25    2    1    2    0    0  0.94496485851E+02 -0.55318645147E+02  0.61405043243E+03  0.63613976829E+03  0.12500453147E+03 0.  0.
          2    1    1    2  501    0 -0.63982040416E+02 -0.90094308634E+02  0.20652433275E+02  0.11241534123E+03  0.00000000000E+00 0. -1.
          1    1    1    2  502    0 -0.30514445435E+02  0.14541295378E+03  0.43457164409E+03  0.45926960748E+03  0.00000000000E+00 0. -1.
         22    1    3    3    0    0 -0.14876084678E+02 -0.54780079952E+02  0.20304302922E+03  0.21082842970E+03  0.00000000000E+00 0.  1.
         22    1    3    3    0    0  0.10937257053E+03 -0.53856519515E+00  0.41100740321E+03  0.42531133858E+03  0.00000000000E+00 0.  1.
</event>
<event>
 7    1  0.6278987E-006  0.1698455E+03  0.7818608E-02  0.1360927E+00
          2   -1    0    0  502    0  0.00000000000E+00  0.00000000000E+00  0.10829165842E+04  0.10829165842E+04  0.00000000000E+00 0. -1.
          1   -1    0    0  501    0 -0.00000000000E+00 -0.00000000000E+00 -0.60142091398E+03  0.60142091398E+03  0.00000000000E+00 0. -1.
         25    2    1    2    0    0  0.85596770765E+02 -0.17507665496E+03  0.58280107710E+03  0.62710380991E+03  0.12499380244E+03 0.  0.
          2    1    1    2  501    0 -0.63324967587E+02  0.15705718494E+03 -0.56644305017E+03  0.59121463103E+03  0.00000000000E+00 0. -1.
          1    1    1    2  502    0 -0.22271803178E+02  0.18019470019E+02  0.46513764332E+03  0.46601905728E+03  0.00000000000E+00 0. -1.
         22    1    3    3    0    0 -0.25374316487E+02 -0.75126599661E+02  0.25130312530E+03  0.26351683570E+03  0.00000000000E+00 0.  1.
         22    1    3    3    0    0  0.11097108725E+03 -0.99950055301E+02  0.33149795180E+03  0.36358697420E+03  0.00000000000E+00 0.  1.
</event>
<event>
 7    1  0.6278987E-006  0.1232939E+03  0.7818608E-02  0.1393291E+00
          2   -1    0    0  502    0  0.00000000000E+00  0.00000000000E+00  0.20747060221E+04  0.20747060221E+04  0.00000000000E+00 0. -1.
          1   -1    0    0  501    0 -0.00000000000E+00 -0.00000000000E+00 -0.20768063047E+04  0.20768063047E+04  0.00000000000E+00 0. -1.
         25    2    1    2    0    0 -0.11969707952E+03  0.31804031995E+02  0.19981086721E+03  0.26624898160E+03  0.12500100101E+03 0.  0.
          2    1    1    2  501    0  0.11639933256E+02  0.27947330358E+02 -0.20414052238E+04  0.20416296993E+04  0.00000000000E+00 0. -1.
          1    1    1    2  502    0  0.10805714626E+03 -0.59751362353E+02  0.18394940740E+04  0.18436336459E+04  0.00000000000E+00 0. -1.
         22    1    3    3    0    0  0.24610837561E+02  0.89741735637E+01  0.53036194099E+02  0.59152912025E+02  0.00000000000E+00 0.  1.
         22    1    3    3    0    0 -0.14430791708E+03  0.22829858432E+02  0.14677467311E+03  0.20709606957E+03  0.00000000000E+00 0.  1.
</event>
<event>
 7    1  0.6278987E-006  0.6399178E+02  0.7818608E-02  0.1422272E+00
          2   -1    0    0  502    0  0.00000000000E+00  0.00000000000E+00  0.13942485539E+04  0.13942485539E+04  0.00000000000E+00 0. -1.
          1   -1    0    0  501    0 -0.00000000000E+00 -0.00000000000E+00 -0.64363613698E+03  0.64363613698E+03  0.00000000000E+00 0. -1.
         25    2    1    2    0    0  0.66333643892E+02  0.59386745368E+02  0.31746289330E+02  0.15671366741E+03  0.12499763529E+03 0.  0.
          2    1    1    2  501    0 -0.46472364557E+02  0.12695055060E+01 -0.57943750326E+03  0.58129950326E+03  0.00000000000E+00 0. -1.
          1    1    1    2  502    0 -0.19861279334E+02 -0.60656250874E+02  0.12983036309E+04  0.12998715203E+04  0.00000000000E+00 0. -1.
         22    1    3    3    0    0  0.83031761581E+02  0.64534371686E+02 -0.15538710246E+02  0.10630338695E+03  0.00000000000E+00 0. -1.
         22    1    3    3    0    0 -0.16698117689E+02 -0.51476263184E+01  0.47284999576E+02  0.50410280460E+02  0.00000000000E+00 0. -1.
</event>
<event>
 7    1  0.6278987E-006  0.7687620E+02  0.7818608E-02  0.1379257E+00
          2   -1    0    0  502    0  0.00000000000E+00  0.00000000000E+00  0.11331921859E+04  0.11331921859E+04  0.00000000000E+00 0. -1.
          1   -1    0    0  501    0 -0.00000000000E+00 -0.00000000000E+00 -0.25365525805E+03  0.25365525805E+03  0.00000000000E+00 0. -1.
         25    2    1    2    0    0  0.13771558296E+02  0.23391327141E+02  0.15301312068E+03  0.19943550186E+03  0.12499877719E+03 0.  0.
          2    1    1    2  501    0 -0.13031377992E+02 -0.77770332812E+02 -0.22289733600E+03  0.23643448114E+03  0.00000000000E+00 0. -1.
          1    1    1    2  502    0 -0.74018030432E+00  0.54379005671E+02  0.94942114313E+03  0.95097746090E+03  0.00000000000E+00 0. -1.
         22    1    3    3    0    0  0.42605608067E+02  0.61946089248E+02  0.11795885005E+03  0.13988154316E+03  0.00000000000E+00 0. -1.
         22    1    3    3    0    0 -0.28834049770E+02 -0.38554762107E+02  0.35054270633E+02  0.59553958701E+02  0.00000000000E+00 0. -1.
</event>
<event>
 7    1  0.6278987E-006  0.2174113E+03  0.7818608E-02  0.1310341E+00
          2   -1    0    0  502    0  0.00000000000E+00  0.00000000000E+00  0.69655160948E+03  0.69655160948E+03  0.00000000000E+00 0. -1.
          1   -1    0    0  501    0 -0.00000000000E+00 -0.00000000000E+00 -0.17357189406E+03  0.17357189406E+03  0.00000000000E+00 0. -1.
         25    2    1    2    0    0  0.14534733706E+03 -0.15275783615E+03  0.27430912711E+03  0.36787971590E+03  0.12501673192E+03 0.  0.
          2    1    1    2  501    0 -0.17488808280E+02 -0.30081731598E+02 -0.90110415024E+02  0.96595320212E+02  0.00000000000E+00 0. -1.
          1    1    1    2  502    0 -0.12785852878E+03  0.18283956774E+03  0.33878100333E+03  0.40564846743E+03  0.00000000000E+00 0. -1.
         22    1    3    3    0    0  0.11231834234E+03 -0.35425183412E+02  0.96274600511E+02  0.15211558878E+03  0.00000000000E+00 0.  1.
         22    1    3    3    0    0  0.33028994715E+02 -0.11733265273E+03  0.17803452660E+03  0.21576412712E+03  0.00000000000E+00 0.  1.
</event>
<event>
 7    1  0.6278987E-006  0.8570706E+02  0.7818608E-02  0.1383252E+00
          2   -1    0    0  502    0  0.00000000000E+00  0.00000000000E+00  0.42894634004E+02  0.42894634004E+02  0.00000000000E+00 0. -1.
          1   -1    0    0  501    0 -0.00000000000E+00 -0.00000000000E+00 -0.13236140217E+04  0.13236140217E+04  0.00000000000E+00 0. -1.
         25    2    1    2    0    0  0.12258167208E+02 -0.55770107761E+02 -0.18883388164E+03  0.23354625973E+03  0.12500021197E+03 0.  0.
          2    1    1    2  501    0  0.45798327194E+01 -0.46997194327E+02 -0.97607587513E+03  0.97721738889E+03  0.00000000000E+00 0. -1.
          1    1    1    2  502    0 -0.16837999927E+02  0.10276730209E+03 -0.11580963095E+03  0.15574500712E+03  0.00000000000E+00 0. -1.
         22    1    3    3    0    0  0.22757261956E+02 -0.82985602017E+02 -0.69244006857E+02  0.11045014984E+03  0.00000000000E+00 0. -1.
         22    1    3    3    0    0 -0.10499094748E+02  0.27215494256E+02 -0.11958987479E+03  0.12309610989E+03  0.00000000000E+00 0. -1.
</event>
<event>
 7    1  0.6278987E-006  0.6046366E+02  0.7818608E-02  0.1494422E+00
          2   -1    0    0  502    0  0.00000000000E+00  0.00000000000E+00  0.45370863786E+03  0.45370863786E+03  0.00000000000E+00 0. -1.
          1   -1    0    0  501    0 -0.00000000000E+00 -0.00000000000E+00 -0.11947639815E+04  0.11947639815E+04  0.00000000000E+00 0. -1.
         25    2    1    2    0    0  0.22237227974E+02  0.33241433544E+02  0.61343252949E+01  0.13138778324E+03  0.12500252968E+03 0.  0.
          2    1    1    2  501    0 -0.10462418534E+02 -0.59838838282E+02 -0.11307713568E+04  0.11324018766E+04  0.00000000000E+00 0. -1.
          1    1    1    2  502    0 -0.11774809439E+02  0.26597404738E+02  0.38358168787E+03  0.38468295952E+03  0.00000000000E+00 0. -1.
         22    1    3    3    0    0 -0.33697753817E+02  0.25623663420E+02  0.45820089466E+02  0.62382620480E+02  0.00000000000E+00 0.  1.
         22    1    3    3    0    0  0.55934981791E+02  0.76177701238E+01 -0.39685764171E+02  0.69005162759E+02  0.00000000000E+00 0.  1.
</event>
<event>
 7    1  0.6278987E-006  0.5273375E+02  0.7818608E-02  0.1473314E+00
          2   -1    0    0  502    0  0.00000000000E+00  0.00000000000E+00  0.16389253763E+04  0.16389253763E+04  0.00000000000E+00 0. -1.
          1   -1    0    0  501    0 -0.00000000000E+00 -0.00000000000E+00 -0.73536732454E+02  0.73536732454E+02  0.00000000000E+00 0. -1.
         25    2    1    2    0    0 -0.61032767940E+02  0.59934836605E+02  0.10515989145E+04  0.10624518961E+04  0.12500628472E+03 0.  0.
          2    1    1    2  501    0  0.29026927903E+02 -0.25569016016E+02 -0.61583013582E+02  0.72724168509E+02  0.00000000000E+00 0. -1.
          1    1    1    2  502    0  0.32005840037E+02 -0.34365820589E+02  0.57537274297E+03  0.57728604416E+03  0.00000000000E+00 0. -1.
         22    1    3    3    0    0 -0.66396088475E+02  0.95029707341E+02  0.79422581952E+03  0.80264172471E+03  0.00000000000E+00 0.  1.
         22    1    3    3    0    0  0.53633205354E+01 -0.35094870736E+02  0.25737309497E+03  0.25981017142E+03  0.00000000000E+00 0.  1.
</event>
<event>
 7    1  0.6278987E-006  0.3463030E+02  0.7818608E-02  0.1608528E+00
          2   -1    0    0  502    0  0.00000000000E+00  0.00000000000E+00  0.13521447123E+03  0.13521447123E+03  0.00000000000E+00 0. -1.
          1   -1    0    0  501    0 -0.00000000000E+00 -0.00000000000E+00 -0.35236725885E+03  0.35236725885E+03  0.00000000000E+00 0. -1.
         25    2    1    2    0    0 -0.20876876676E+02 -0.52706392628E+02 -0.14446073015E+03  0.19927298734E+03  0.12500805225E+03 0.  0.
          2    1    1    2  501    0  0.68844031521E+01  0.32700952663E+02 -0.17753917485E+03  0.18065687343E+03  0.00000000000E+00 0. -1.
          1    1    1    2  502    0  0.13992473524E+02  0.20005439965E+02  0.10484711738E+03  0.10765186931E+03  0.00000000000E+00 0. -1.
         22    1    3    3    0    0 -0.52187552253E+00 -0.86800259636E+02 -0.58760345046E+02  0.10482049216E+03  0.00000000000E+00 0.  1.
         22    1    3    3    0    0 -0.20355001153E+02  0.34093867008E+02 -0.85700385102E+02  0.94452495183E+02  0.00000000000E+00 0.  1.
</event>
<event>
 7    1  0.6278987E-006  0.8521281E+02  0.7818608E-02  0.1388360E+00
          2   -1    0    0  502    0  0.00000000000E+00  0.00000000000E+00  0.44657468539E+03  0.44657468539E+03  0.00000000000E+00 0. -1.
          1   -1    0    0  501    0 -0.00000000000E+00 -0.00000000000E+00 -0.97678778479E+03  0.97678778479E+03  0.00000000000E+00 0. -1.
         25    2    1    2    0    0  0.63975384619E+02 -0.10680963721E+03  0.15002429346E+03  0.23158638131E+03  0.12499525969E+03 0.  0.
          2    1    1    2  501    0 -0.27271365152E+02  0.36511477421E+02 -0.92928775944E+03  0.93040451159E+03  0.00000000000E+00 0. -1.
          1    1    1    2  502    0 -0.36704019467E+02  0.70298159784E+02  0.24905036658E+03  0.26137157728E+03  0.00000000000E+00 0. -1.
         22    1    3    3    0    0  0.84539122164E+02 -0.55206876154E+02  0.40515164258E+02  0.10879402964E+03  0.00000000000E+00 0.  1.
         22    1    3    3    0    0 -0.20563737546E+02 -0.51602761052E+02  0.10950912920E+03  0.12279235167E+03  0.00000000000E+00 0.  1.
</event>
<event>
 7    1  0.6278987E-006  0.3464350E+02  0.7818608E-02  0.1609682E+00
          2   -1    0    0  502    0  0.00000000000E+00  0.00000000000E+00  0.21701681436E+04  0.21701681436E+04  0.00000000000E+00 0. -1.
          1   -1    0    0  501    0 -0.00000000000E+00 -0.00000000000E+00 -0.77029025758E+02  0.77029025758E+02  0.00000000000E+00 0. -1.
         25    2    1    2    0    0 -0.82596206504E+01  0.95019194739E+01  0.15057774343E+04  0.15110094426E+04  0.12500138500E+03 0.  0.
          2    1    1    2  501    0  0.32276971259E+02 -0.12757301031E+02 -0.70130713491E+02  0.78248760872E+02  0.00000000000E+00 0. -1.
          1    1    1    2  502    0 -0.24017350608E+02  0.32553815568E+01  0.65749239701E+03  0.65793896584E+03  0.00000000000E+00 0. -1.
         22    1    3    3    0    0 -0.52207337499E+02 -0.10840571794E+02  0.33380018810E+03  0.33803208377E+03  0.00000000000E+00 0.  1.
         22    1    3    3    0    0  0.43947716849E+02  0.20342491268E+02  0.11719772462E+04  0.11729773588E+04  0.00000000000E+00 0.  1.
</event>
<event>
 7    1  0.6278987E-006  0.6175502E+02  0.7818608E-02  0.1407472E+00
          2   -1    0    0  502    0  0.00000000000E+00  0.00000000000E+00  0.25860045676E+04  0.25860045676E+04  0.00000000000E+00 0. -1.
          1   -1    0    0  501    0 -0.00000000000E+00 -0.00000000000E+00 -0.26588950919E+03  0.26588950919E+03  0.00000000000E+00 0. -1.
         25    2    1    2    0    0 -0.21357658926E+02 -0.60194479566E+02 -0.58961786194E+02  0.15225244376E+03  0.12499915774E+03 0.  0.
          2    1    1    2  501    0 -0.36895833122E+02  0.39466517406E+02 -0.15534183584E+03  0.16446882520E+03  0.00000000000E+00 0. -1.
          1    1    1    2  502    0  0.58253492047E+02  0.20727962160E+02  0.25344186804E+04  0.25351728078E+04  0.00000000000E+00 0. -1.
         22    1    3    3    0    0 -0.32946809571E+02 -0.94877910208E+02 -0.27811606189E+02  0.10421514067E+03  0.00000000000E+00 0. -1.
         22    1    3    3    0    0  0.11589150645E+02  0.34683430642E+02 -0.31150180004E+02  0.48037303089E+02  0.00000000000E+00 0. -1.
</event>
<event>
 7    1  0.6278987E-006  0.1579818E+03  0.7818608E-02  0.1293364E+00
          2   -1    0    0  502    0  0.00000000000E+00  0.00000000000E+00  0.30290416887E+03  0.30290416887E+03  0.00000000000E+00 0. -1.
          1   -1    0    0  501    0 -0.00000000000E+00 -0.00000000000E+00 -0.58212899070E+03  0.58212899070E+03  0.00000000000E+00 0. -1.
         25    2    1    2    0    0  0.78253166199E+02 -0.17039691238E+03 -0.19324697148E+02  0.22618082870E+03  0.12500263031E+03 0.  0.
          2    1    1    2  501    0  0.18304290128E+02  0.52894566604E+02 -0.42829961769E+03  0.43194148299E+03  0.00000000000E+00 0. -1.
          1    1    1    2  502    0 -0.96557456327E+02  0.11750234578E+03  0.16839949301E+03  0.22691084787E+03  0.00000000000E+00 0. -1.
         22    1    3    3    0    0  0.77327326504E+02 -0.64070092827E+02 -0.54405713760E+02  0.11421240698E+03  0.00000000000E+00 0.  1.
         22    1    3    3    0    0  0.92583969431E+00 -0.10632681956E+03  0.35081016612E+02  0.11196842172E+03  0.00000000000E+00 0.  1.
</event>
<event>
 7    1  0.6278987E-006  0.5413184E+02  0.7818608E-02  0.1460562E+00
          2   -1    0    0  502    0  0.00000000000E+00  0.00000000000E+00  0.21898772634E+04  0.21898772634E+04  0.00000000000E+00 0. -1.
          1   -1    0    0  501    0 -0.00000000000E+00 -0.00000000000E+00 -0.17390723402E+03  0.17390723402E+03  0.00000000000E+00 0. -1.
         25    2    1    2    0    0 -0.13277240660E+01 -0.15303945450E+02 -0.66790820533E+02  0.14255712829E+03  0.12500219007E+03 0.  0.
          2    1    1    2  501    0 -0.28041359462E+02 -0.30326275072E+02 -0.62699172347E+02  0.75081202796E+02  0.00000000000E+00 0. -1.
          1    1    1    2  502    0  0.29369083528E+02  0.45630220522E+02  0.21454600222E+04  0.21461461663E+04  0.00000000000E+00 0. -1.
         22    1    3    3    0    0 -0.27971914119E+02 -0.33294250087E+02  0.21561890610E+02  0.48537101221E+02  0.00000000000E+00 0.  1.
         22    1    3    3    0    0  0.26644190053E+02  0.17990304637E+02 -0.88352711143E+02  0.94020027073E+02  0.00000000000E+00 0.  1.
</event>
<event>
 7    1  0.6278987E-006  0.6603508E+02  0.7818608E-02  0.1374232E+00
          2   -1    0    0  502    0  0.00000000000E+00  0.00000000000E+00  0.12706580069E+04  0.12706580069E+04  0.00000000000E+00 0. -1.
          1   -1    0    0  501    0 -0.00000000000E+00 -0.00000000000E+00 -0.23429119724E+03  0.23429119724E+03  0.00000000000E+00 0. -1.
         25    2    1    2    0    0  0.17017833920E+02 -0.36900354379E+02  0.11320371630E+03  0.17346885798E+03  0.12500048191E+03 0.  0.
          2    1    1    2  501    0 -0.65063215932E+02 -0.10926525027E+02 -0.19777777463E+03  0.20849138868E+03  0.00000000000E+00 0. -1.
          1    1    1    2  502    0  0.48045382012E+02  0.47826879406E+02  0.11209408679E+04  0.11229889574E+04  0.00000000000E+00 0. -1.
         22    1    3    3    0    0  0.64094276249E+02 -0.44616716879E+02  0.44672100209E+02  0.89968462308E+02  0.00000000000E+00 0.  1.
         22    1    3    3    0    0 -0.47076442328E+02  0.77163624998E+01  0.68531616095E+02  0.83500395671E+02  0.00000000000E+00 0.  1.
</event>
<event>
 7    1  0.6278987E-006  0.4314203E+02  0.7818608E-02  0.1495969E+00
          2   -1    0    0  502    0  0.00000000000E+00  0.00000000000E+00  0.13677617206E+04  0.13677617206E+04  0.00000000000E+00 0. -1.
          1   -1    0    0  501    0 -0.00000000000E+00 -0.00000000000E+00 -0.15915010250E+02  0.15915010250E+02  0.00000000000E+00 0. -1.
         25    2    1    2    0    0 -0.13603872169E+02 -0.68312254460E+02  0.52717446317E+03  0.54625039482E+03  0.12499979906E+03 0.  0.
          2    1    1    2  501    0  0.27143122936E+02  0.30320915885E+02  0.65027572957E+02  0.76711748171E+02  0.00000000000E+00 0. -1.
          1    1    1    2  502    0 -0.13539250767E+02  0.37991338575E+02  0.75964467422E+03  0.76071458787E+03  0.00000000000E+00 0. -1.
         22    1    3    3    0    0 -0.65857217955E+02 -0.40719142621E+02  0.21464091787E+03  0.22817963396E+03  0.00000000000E+00 0.  1.
         22    1    3    3    0    0  0.52253345786E+02 -0.27593111839E+02  0.31253354531E+03  0.31807076085E+03  0.00000000000E+00 0.  1.
</event>
<event>
 7    1  0.6278987E-006  0.5161595E+02  0.7818608E-02  0.1440340E+00
          2   -1    0    0  502    0  0.00000000000E+00  0.00000000000E+00  0.52903582351E+03  0.52903582351E+03  0.00000000000E+00 0. -1.
          1   -1    0    0  501    0 -0.00000000000E+00 -0.00000000000E+00 -0.39078406825E+03  0.39078406825E+03  0.00000000000E+00 0. -1.
         25    2    1    2    0    0 -0.53246636785E+02  0.32615850009E+02  0.26691061974E+03  0.30127387753E+03  0.12500268937E+03 0.  0.
          2    1    1    2  501    0  0.65663682073E+01 -0.51275530034E+02 -0.36920321470E+03  0.37280465517E+03  0.00000000000E+00 0. -1.
          1    1    1    2  502    0  0.46680268577E+02  0.18659680025E+02  0.24054435022E+03  0.24574135907E+03  0.00000000000E+00 0. -1.
         22    1    3    3    0    0  0.30684029193E+02  0.20089584194E+02  0.23657838496E+02  0.43643949901E+02  0.00000000000E+00 0.  1.
         22    1    3    3    0    0 -0.83930665977E+02  0.12526265815E+02  0.24325278124E+03  0.25762992763E+03  0.00000000000E+00 0.  1.
</event>
<event>
 7    1  0.6278987E-006  0.5694068E+02  0.7818608E-02  0.1476264E+00
          2   -1    0    0  502    0  0.00000000000E+00  0.00000000000E+00  0.23218554395E+04  0.23218554395E+04  0.00000000000E+00 0. -1.
          1   -1    0    0  501    0 -0.00000000000E+00 -0.00000000000E+00 -0.93685203213E+02  0.93685203213E+02  0.00000000000E+00 0. -1.
         25    2    1    2    0    0  0.53613020532E+02  0.37993804068E+02  0.19889121366E+04  0.19939195117E+04  0.12500258833E+03 0.  0.
          2    1    1    2  501    0 -0.56864107491E+02 -0.30641728467E+01 -0.81238726572E+02  0.99210113249E+02  0.00000000000E+00 0. -1.
          1    1    1    2  502    0  0.32510869595E+01 -0.34929631221E+02  0.32049682632E+03  0.32241101778E+03  0.00000000000E+00 0. -1.
         22    1    3    3    0    0 -0.22935330015E+02  0.50556457809E+02  0.11774457236E+04  0.11787537558E+04  0.00000000000E+00 0.  1.
         22    1    3    3    0    0  0.76548350547E+02 -0.12562653741E+02  0.81146641302E+03  0.81516575597E+03  0.00000000000E+00 0.  1.
</event>
<event>
 7    1  0.6278987E-006  0.6101570E+02  0.7818608E-02  0.1470521E+00
          2   -1    0    0  502    0  0.00000000000E+00  0.00000000000E+00  0.21628790524E+04  0.21628790524E+04  0.00000000000E+00 0. -1.
          1   -1    0    0  501    0 -0.00000000000E+00 -0.00000000000E+00 -0.40217471881E+02  0.40217471881E+02  0.00000000000E+00 0. -1.
         25    2    1    2    0    0 -0.78150105109E+02  0.51846772052E+02  0.68933466112E+03  0.70682620262E+03  0.12500191594E+03 0.  0.
          2    1    1    2  501    0  0.49806153721E+02 -0.32877586488E+02 -0.27940588349E+01  0.59744417367E+02  0.00000000000E+00 0. -1.
          1    1    1    2  502    0  0.28343951388E+02 -0.18969185564E+02  0.14361209783E+04  0.14365259043E+04  0.00000000000E+00 0. -1.
         22    1    3    3    0    0 -0.86790789457E+02  0.58005298849E+02  0.30546145351E+03  0.32280637449E+03  0.00000000000E+00 0. -1.
         22    1    3    3    0    0  0.86406843476E+01 -0.61585267970E+01  0.38387320761E+03  0.38401982814E+03  0.00000000000E+00 0. -1.
</event>
<event>
 7    1  0.6278987E-006  0.3958038E+02  0.7818608E-02  0.1551151E+00
          2   -1    0    0  502    0  0.00000000000E+00  0.00000000000E+00  0.21046660452E+03  0.21046660452E+03  0.00000000000E+00 0. -1.
          1   -1    0    0  501    0 -0.00000000000E+00 -0.00000000000E+00 -0.77631468681E+03  0.77631468681E+03  0.00000000000E+00 0. -1.
         25    2    1    2    0    0 -0.84774636201E-01  0.52430350498E+02 -0.12442811384E+03  0.18400075569E+03  0.12499989495E+03 0.  0.
          2    1    1    2  501    0 -0.22754380656E+02 -0.32296322543E+02 -0.62018457732E+03  0.62144164990E+03  0.00000000000E+00 0. -1.
          1    1    1    2  502    0  0.22839155292E+02 -0.20134027955E+02  0.17876460887E+03  0.18133888574E+03  0.00000000000E+00 0. -1.
         22    1    3    3    0    0 -0.16172151418E+02 -0.39019185630E+02 -0.32045041397E+02  0.53018110179E+02  0.00000000000E+00 0. -1.
         22    1    3    3    0    0  0.16087376782E+02  0.91449536128E+02 -0.92383072445E+02  0.13098264551E+03  0.00000000000E+00 0. -1.
</event>
<event>
 7    1  0.6278987E-006  0.4358244E+02  0.7818608E-02  0.1498209E+00
          2   -1    0    0  502    0  0.00000000000E+00  0.00000000000E+00  0.49000452920E+03  0.49000452920E+03  0.00000000000E+00 0. -1.
          1   -1    0    0  501    0 -0.00000000000E+00 -0.00000000000E+00 -0.13612846613E+04  0.13612846613E+04  0.00000000000E+00 0. -1.
         25    2    1    2    0    0 -0.24570100733E+01 -0.44310698156E+02 -0.21111058849E+03  0.24930493881E+03  0.12496318285E+03 0.  0.
          2    1    1    2  501    0 -0.33509136513E+02  0.28439762306E+02 -0.11298284218E+04  0.11306829551E+04  0.00000000000E+00 0. -1.
          1    1    1    2  502    0  0.35966146586E+02  0.15870935849E+02  0.46965887818E+03  0.47130129658E+03  0.00000000000E+00 0. -1.
         22    1    3    3    0    0 -0.59467643107E+02 -0.37367283000E+01 -0.70977053294E+02  0.92672033589E+02  0.00000000000E+00 0.  1.
         22    1    3    3    0    0  0.57010633034E+02 -0.40573969856E+02 -0.14013353520E+03  0.15663290522E+03  0.00000000000E+00 0.  1.
</event>
<event>
 7    1  0.6278987E-006  0.9154895E+02  0.7818608E-02  0.1392452E+00
          2   -1    0    0  502    0  0.00000000000E+00  0.00000000000E+00  0.44493958690E+03  0.44493958690E+03  0.00000000000E+00 0. -1.
          1   -1    0    0  501    0 -0.00000000000E+00 -0.00000000000E+00 -0.18405989000E+04  0.18405989000E+04  0.00000000000E+00 0. -1.
         25    2    1    2    0    0  0.47962944204E+02 -0.36090543243E+02 -0.83799532909E+02  0.16201922518E+03  0.12499958514E+03 0.  0.
          2    1    1    2  501    0 -0.88252752531E+02  0.28242399563E+02 -0.17153979732E+04  0.17178988293E+04  0.00000000000E+00 0. -1.
          1    1    1    2  502    0  0.40289808327E+02  0.78481436794E+01  0.40353819296E+03  0.40562043242E+03  0.00000000000E+00 0. -1.
         22    1    3    3    0    0  0.57266324577E+02 -0.38729623602E+02 -0.11232723443E+03  0.13189701767E+03  0.00000000000E+00 0. -1.
         22    1    3    3    0    0 -0.93033803725E+01  0.26390803590E+01  0.28527701520E+02  0.30122207514E+02  0.00000000000E+00 0. -1.
</event>
<event>
 7    1  0.6278987E-006  0.9871276E+02  0.7818608E-02  0.1339288E+00
          2   -1    0    0  502    0  0.00000000000E+00  0.00000000000E+00  0.65784168521E+03  0.65784168521E+03  0.00000000000E+00 0. -1.
          1   -1    0    0  501    0 -0.00000000000E+00 -0.00000000000E+00 -0.77791255688E+03  0.77791255688E+03  0.00000000000E+00 0. -1.
         25    2    1    2    0    0 -0.62430354233E+02 -0.14098232583E+03 -0.66487840371E+02  0.20933361262E+03  0.12500545240E+03 0.  0.
          2    1    1    2  501    0  0.46661187856E+02  0.83832126603E+02 -0.63488992225E+03  0.64209836106E+03  0.00000000000E+00 0. -1.
          1    1    1    2  502    0  0.15769166377E+02  0.57150199222E+02  0.58130689096E+03  0.58432226840E+03  0.00000000000E+00 0. -1.
         22    1    3    3    0    0 -0.57467284884E+01 -0.13562934589E+03 -0.22991320231E+02  0.13768422263E+03  0.00000000000E+00 0.  1.
         22    1    3    3    0    0 -0.56683625745E+02 -0.53529799335E+01 -0.43496520140E+02  0.71649389991E+02  0.00000000000E+00 0.  1.
</event>
<event>
 7    1  0.6278987E-006  0.1404970E+03  0.7818608E-02  0.1314206E+00
          2   -1    0    0  502    0  0.00000000000E+00  0.00000000000E+00  0.13474668021E+03  0.13474668021E+03  0.00000000000E+00 0. -1.
          1   -1    0    0  501    0 -0.00000000000E+00 -0.00000000000E+00 -0.85365535458E+03  0.85365535458E+03  0.00000000000E+00 0. -1.
         25    2    1    2    0    0 -0.10239364378E+03  0.29538438101E+02 -0.97683860278E+02  0.19111340414E+03  0.12500087628E+03 0.  0.
          2    1    1    2  501    0  0.12522874327E+03 -0.76251762813E+02 -0.69317822016E+03  0.70851437133E+03  0.00000000000E+00 0. -1.
          1    1    1    2  502    0 -0.22835099490E+02  0.46713324712E+02  0.71953406067E+02  0.88774259327E+02  0.00000000000E+00 0. -1.
         22    1    3    3    0    0 -0.53664985381E+02 -0.46742466441E+02 -0.59926666578E+02  0.93037595584E+02  0.00000000000E+00 0. -1.
         22    1    3    3    0    0 -0.48728658403E+02  0.76280904542E+02 -0.37757193700E+02  0.98075808555E+02  0.00000000000E+00 0. -1.
</event>
<event>
 7    1  0.6278987E-006  0.2383177E+03  0.7818608E-02  0.1259136E+00
          2   -1    0    0  502    0  0.00000000000E+00  0.00000000000E+00  0.82484679465E+02  0.82484679465E+02  0.00000000000E+00 0. -1.
          1   -1    0    0  501    0 -0.00000000000E+00 -0.00000000000E+00 -0.98185479055E+03  0.98185479055E+03  0.00000000000E+00 0. -1.
         25    2    1    2    0    0 -0.52652077964E+02  0.20112115417E+03 -0.51816140898E+03  0.57213439106E+03  0.12499822283E+03 0.  0.
          2    1    1    2  501    0 -0.17583731016E+02  0.48397819189E+02 -0.51849027969E+02  0.73074333388E+02  0.00000000000E+00 0. -1.
          1    1    1    2  502    0  0.70235808981E+02 -0.24951897336E+03 -0.32935967415E+03  0.41913074557E+03  0.00000000000E+00 0. -1.
         22    1    3    3    0    0 -0.35447840205E+02  0.61057615577E+01 -0.15965633337E+03  0.16365810241E+03  0.00000000000E+00 0. -1.
         22    1    3    3    0    0 -0.17204237760E+02  0.19501539262E+03 -0.35850507561E+03  0.40847628865E+03  0.00000000000E+00 0. -1.
</event>
<event>
 7    1  0.6278987E-006  0.1003784E+03  0.7818608E-02  0.1294570E+00
          2   -1    0    0  502    0  0.00000000000E+00  0.00000000000E+00  0.30970592254E+03  0.30970592254E+03  0.00000000000E+00 0. -1.
          1   -1    0    0  501    0 -0.00000000000E+00 -0.00000000000E+00 -0.20705201132E+04  0.20705201132E+04  0.00000000000E+00 0. -1.
         25    2    1    2    0    0 -0.15290876028E+02 -0.55040952241E+02 -0.20462280176E+03  0.24648864948E+03  0.12499138375E+03 0.  0.
          2    1    1    2  501    0 -0.68093715055E+02  0.80240654714E+02 -0.18368546183E+04  0.18398668988E+04  0.00000000000E+00 0. -1.
          1    1    1    2  502    0  0.83384591083E+02 -0.25199702472E+02  0.28066322940E+03  0.29387048741E+03  0.00000000000E+00 0. -1.
         22    1    3    3    0    0  0.37503747735E+01 -0.40340643501E+02 -0.21607903204E+03  0.21984444709E+03  0.00000000000E+00 0. -1.
         22    1    3    3    0    0 -0.19041250801E+02 -0.14700308740E+02  0.11456230281E+02  0.26644202397E+02  0.00000000000E+00 0. -1.
</event>
<event>
 7    1  0.6278987E-006  0.4990452E+02  0.7818608E-02  0.1457247E+00
          2   -1    0    0  502    0  0.00000000000E+00  0.00000000000E+00  0.39598021140E+03  0.39598021140E+03  0.00000000000E+00 0. -1.
          1   -1    0    0  501    0 -0.00000000000E+00 -0.00000000000E+00 -0.34794573072E+03  0.34794573072E+03  0.00000000000E+00 0. -1.
         25    2    1    2    0    0  0.68592656691E+02  0.58501166718E+02 -0.60136604182E+02  0.16543783622E+03  0.12500370967E+03 0.  0.
          2    1    1    2  501    0 -0.42864393964E+02 -0.16404226053E+02 -0.23111784591E+03  0.23563088422E+03  0.00000000000E+00 0. -1.
          1    1    1    2  502    0 -0.25728262727E+02 -0.42096940665E+02  0.33928893077E+03  0.34285722168E+03  0.00000000000E+00 0. -1.
         22    1    3    3    0    0 -0.30262205404E+02 -0.12142765244E+02 -0.13533918564E+02  0.35304599919E+02  0.00000000000E+00 0. -1.
         22    1    3    3    0    0  0.98854862095E+02  0.70643931962E+02 -0.46602685618E+02  0.13013323630E+03  0.00000000000E+00 0. -1.
</event>
<event>
 7    1  0.6278987E-006  0.1575837E+03  0.7818608E-02  0.1295280E+00
          2   -1    0    0  502    0  0.00000000000E+00  0.00000000000E+00  0.67051670367E+03  0.67051670367E+03  0.00000000000E+00 0. -1.
          1   -1    0    0  501    0 -0.00000000000E+00 -0.00000000000E+00 -0.36751640617E+03  0.36751640617E+03  0.00000000000E+00 0. -1.
         25    2    1    2    0    0  0.14389802609E+03  0.10723327656E+03  0.49647128657E+03  0.54250747302E+03  0.12500000955E+03 0.  0.
          2    1    1    2  501    0 -0.14813671201E+03 -0.52274065859E+02 -0.32056871854E+03  0.35698930897E+03  0.00000000000E+00 0. -1.
          1    1    1    2  502    0  0.42386859235E+01 -0.54959210697E+02  0.12709772947E+03  0.13853632785E+03  0.00000000000E+00 0. -1.
         22    1    3    3    0    0  0.14923760038E+03  0.10880890652E+03  0.50185597569E+03  0.53476224609E+03  0.00000000000E+00 0.  1.
         22    1    3    3    0    0 -0.53395742909E+01 -0.15756299660E+01 -0.53846891197E+01  0.77452269376E+01  0.00000000000E+00 0.  1.
</event>
<event>
 7    1  0.6278987E-006  0.3318626E+02  0.7818608E-02  0.1624319E+00
          2   -1    0    0  502    0  0.00000000000E+00  0.00000000000E+00  0.47790612706E+02  0.47790612706E+02  0.00000000000E+00 0. -1.
          1   -1    0    0  501    0 -0.00000000000E+00 -0.00000000000E+00 -0.12759333779E+04  0.12759333779E+04  0.00000000000E+00 0. -1.
         25    2    1    2    0    0  0.50979072360E+02 -0.18703309068E+02 -0.11717598791E+03  0.17973461678E+03  0.12500256292E+03 0.  0.
          2    1    1    2  501    0 -0.21805349659E+02  0.79589696101E+01 -0.11126142986E+04  0.11128564130E+04  0.00000000000E+00 0. -1.
          1    1    1    2  502    0 -0.29173722701E+02  0.10744339458E+02  0.16475212810E+01  0.31132960877E+02  0.00000000000E+00 0. -1.
         22    1    3    3    0    0  0.60600149894E+02  0.28363420054E+02 -0.11324458109E+03  0.13153401427E+03  0.00000000000E+00 0. -1.
         22    1    3    3    0    0 -0.96210775337E+01 -0.47066729122E+02 -0.39314068284E+01  0.48200602515E+02  0.00000000000E+00 0. -1.
</event>
<event>
 7    1  0.6278987E-006  0.3321631E+02  0.7818608E-02  0.1589263E+00
          2   -1    0    0  502    0  0.00000000000E+00  0.00000000000E+00  0.16657891507E+02  0.16657891507E+02  0.00000000000E+00 0. -1.
          1   -1    0    0  501    0 -0.00000000000E+00 -0.00000000000E+00 -0.14915558571E+04  0.14915558571E+04  0.00000000000E+00 0. -1.
         25    2    1    2    0    0  0.49946815868E+02  0.35309173580E+02 -0.10333081344E+04  0.10426361999E+04  0.12499248982E+03 0.  0.
          2    1    1    2  501    0 -0.23706879501E+02 -0.15971615146E+02 -0.43005076337E+03  0.43099973051E+03  0.00000000000E+00 0. -1.
          1    1    1    2  502    0 -0.26239936368E+02 -0.19337558433E+02 -0.11539067820E+02  0.34577818221E+02  0.00000000000E+00 0. -1.
         22    1    3    3    0    0 -0.15577937781E+02 -0.29533125775E+02 -0.52327210257E+03  0.52433631477E+03  0.00000000000E+00 0.  1.
         22    1    3    3    0    0  0.65524753649E+02  0.64842299355E+02 -0.51003603184E+03  0.51829988510E+03  0.00000000000E+00 0.  1.
</event>
<event>
 7    1  0.6278987E-006  0.7444730E+02  0.7818608E-02  0.1390474E+00
          2   -1    0    0  502    0  0.00000000000E+00  0.00000000000E+00  0.57681150794E+03  0.57681150794E+03  0.00000000000E+00 0. -1.
          1   -1    0    0  501    0 -0.00000000000E+00 -0.00000000000E+00 -0.66401270575E+03  0.66401270575E+03  0.00000000000E+00 0. -1.
         25    2    1    2    0    0 -0.32678629139E+02  0.10208816653E+03  0.23012538420E+03  0.28297591793E+03  0.12501116401E+03 0.  0.
          2    1    1    2  501    0  0.50836766720E+02 -0.54127512022E+02 -0.63335131727E+03  0.63768962317E+03  0.00000000000E+00 0. -1.
          1    1    1    2  502    0 -0.18158137581E+02 -0.47960654504E+02  0.31602473525E+03  0.32015867259E+03  0.00000000000E+00 0. -1.
         22    1    3    3    0    0 -0.42312955672E+01  0.10173255622E+03  0.23310331087E+03  0.25437093072E+03  0.00000000000E+00 0. -1.
         22    1    3    3    0    0 -0.28447333571E+02  0.35561030689E+00 -0.29779266671E+01  0.28604987209E+02  0.00000000000E+00 0. -1.
</event>
<event>
 7    1  0.6278987E-006  0.2303494E+03  0.7818608E-02  0.1215224E+00
          2   -1    0    0  502    0  0.00000000000E+00  0.00000000000E+00  0.96143804791E+03  0.96143804791E+03  0.00000000000E+00 0. -1.
          1   -1    0    0  501    0 -0.00000000000E+00 -0.00000000000E+00 -0.69937576966E+03  0.69937576966E+03  0.00000000000E+00 0. -1.
         25    2    1    2    0    0  0.64331840773E+02  0.20460351942E+03  0.39080309685E+02  0.25130356200E+03  0.12500009510E+03 0.  0.
          2    1    1    2  501    0 -0.77875106897E+02  0.29839277296E+02 -0.57329409999E+03  0.57932809342E+03  0.00000000000E+00 0. -1.
          1    1    1    2  502    0  0.13543266124E+02 -0.23444279671E+03  0.79627606856E+03  0.83018216215E+03  0.00000000000E+00 0. -1.
         22    1    3    3    0    0  0.80559688397E+02  0.16893899904E+03 -0.11270881525E+02  0.18750275081E+03  0.00000000000E+00 0. -1.
         22    1    3    3    0    0 -0.16227847624E+02  0.35664520374E+02  0.50351191210E+02  0.63800811188E+02  0.00000000000E+00 0. -1.
</event>
<event>
 7    1  0.6278987E-006  0.2418234E+03  0.7818608E-02  0.1206406E+00
          2   -1    0    0  502    0  0.00000000000E+00  0.00000000000E+00  0.70827986019E+03  0.70827986019E+03  0.00000000000E+00 0. -1.
          1   -1    0    0  501    0 -0.00000000000E+00 -0.00000000000E+00 -0.50971630633E+03  0.50971630633E+03  0.00000000000E+00 0. -1.
         25    2    1    2    0    0  0.26676184117E+03 -0.93051409760E+02  0.41163197743E+03  0.51467165731E+03  0.12500234089E+03 0.  0.
          2    1    1    2  501    0 -0.60758491712E+02  0.62646251619E+02 -0.40851651002E+03  0.41773422904E+03  0.00000000000E+00 0. -1.
          1    1    1    2  502    0 -0.20600334946E+03  0.30405158141E+02  0.19544808644E+03  0.28559028016E+03  0.00000000000E+00 0. -1.
         22    1    3    3    0    0  0.56267730371E+02 -0.55026918712E+02  0.46256515650E+02  0.91289016339E+02  0.00000000000E+00 0.  1.
         22    1    3    3    0    0  0.21049411080E+03 -0.38024491048E+02  0.36537546178E+03  0.42338264097E+03  0.00000000000E+00 0.  1.
</event>
<event>
 7    1  0.6278987E-006  0.1237890E+03  0.7818608E-02  0.1359269E+00
          2   -1    0    0  502    0  0.00000000000E+00  0.00000000000E+00  0.90346938533E+03  0.90346938533E+03  0.00000000000E+00 0. -1.
          1   -1    0    0  501    0 -0.00000000000E+00 -0.00000000000E+00 -0.17806726098E+03  0.17806726098E+03  0.00000000000E+00 0. -1.
         25    2    1    2    0    0 -0.85797918628E+01 -0.10187787621E+03  0.37314341060E+02  0.16574071207E+03  0.12499963639E+03 0.  0.
          2    1    1    2  501    0 -0.36757214061E+02 -0.15415264315E+02 -0.10525477562E+03  0.11254906019E+03  0.00000000000E+00 0. -1.
          1    1    1    2  502    0  0.45337005923E+02  0.11729314053E+03  0.79334255891E+03  0.80324687406E+03  0.00000000000E+00 0. -1.
         22    1    3    3    0    0  0.29191661927E+02 -0.10253686411E+03 -0.78025664137E+01  0.10689640626E+03  0.00000000000E+00 0.  1.
         22    1    3    3    0    0 -0.37771453790E+02  0.65898789971E+00  0.45116907473E+02  0.58844305812E+02  0.00000000000E+00 0.  1.
</event>
<event>
 7    1  0.6278987E-006  0.8856384E+02  0.7818608E-02  0.1487218E+00
          2   -1    0    0  502    0  0.00000000000E+00  0.00000000000E+00  0.41478860025E+03  0.41478860025E+03  0.00000000000E+00 0. -1.
          1   -1    0    0  501    0 -0.00000000000E+00 -0.00000000000E+00 -0.17708959216E+04  0.17708959216E+04  0.00000000000E+00 0. -1.
         25    2    1    2    0    0  0.79911689654E+02  0.18695115046E+02 -0.32757193158E+03  0.36009069667E+03  0.12500621586E+03 0.  0.
          2    1    1    2  501    0  0.87763303654E+01 -0.18944919634E+02 -0.14220528648E+04  0.14222061328E+04  0.00000000000E+00 0. -1.
          1    1    1    2  502    0 -0.88688020020E+02  0.24980458773E+00  0.39351747496E+03  0.40338769242E+03  0.00000000000E+00 0. -1.
         22    1    3    3    0    0  0.77961885085E+02 -0.14314633279E+02 -0.31482731567E+03  0.32465243406E+03  0.00000000000E+00 0. -1.
         22    1    3    3    0    0  0.19498045695E+01  0.33009748325E+02 -0.12744615911E+02  0.35438262613E+02  0.00000000000E+00 0. -1.
</event>
<event>
 7    1  0.6278987E-006  0.1699054E+03  0.7818608E-02  0.1198640E+00
          2   -1    0    0  502    0  0.00000000000E+00  0.00000000000E+00  0.18374034868E+04  0.18374034868E+04  0.00000000000E+00 0. -1.
          1   -1    0    0  501    0 -0.00000000000E+00 -0.00000000000E+00 -0.47743218890E+03  0.47743218890E+03  0.00000000000E+00 0. -1.
         25    2    1    2    0    0  0.26066641125E+03 -0.58441046308E+02 -0.22425869999E+03  0.37051333128E+03  0.12500332110E+03 0.  0.
          2    1    1    2  501    0 -0.13588581489E+03  0.66793612257E+01 -0.15134003583E+03  0.20350276411E+03  0.00000000000E+00 0. -1.
          1    1    1    2  502    0 -0.12478059636E+03  0.51761685082E+02  0.17355700338E+04  0.17408195804E+04  0.00000000000E+00 0. -1.
         22    1    3    3    0    0  0.36172374095E+02  0.29947799736E+02 -0.69495479451E+02  0.83874507574E+02  0.00000000000E+00 0. -1.
         22    1    3    3    0    0  0.22449403715E+03 -0.88388846044E+02 -0.15476322054E+03  0.28663882370E+03  0.00000000000E+00 0. -1.
</event>
<event>
 7    1  0.6278987E-006  0.7373210E+02  0.7818608E-02  0.1353536E+00
          2   -1    0    0  502    0  0.00000000000E+00  0.00000000000E+00  0.14174208662E+04  0.14174208662E+04  0.00000000000E+00 0. -1.
          1   -1    0    0  501    0 -0.00000000000E+00 -0.00000000000E+00 -0.57658272723E+03  0.57658272723E+03  0.00000000000E+00 0. -1.
         25    2    1    2    0    0  0.15612535791E+02  0.76393999808E+02  0.86977851645E+02  0.17108147312E+03  0.12499571707E+03 0.  0.
          2    1    1    2  501    0  0.50979392334E+02 -0.54051688889E+02 -0.53098508959E+03  0.53615823120E+03  0.00000000000E+00 0. -1.
          1    1    1    2  502    0 -0.66591928125E+02 -0.22342310919E+02  0.12848453770E+04  0.12867638892E+04  0.00000000000E+00 0. -1.
         22    1    3    3    0    0  0.39091015190E+02 -0.21741380456E+02  0.39028207023E+02  0.59363254932E+02  0.00000000000E+00 0. -1.
         22    1    3    3    0    0 -0.23478479400E+02  0.98135380264E+02  0.47949644622E+02  0.11171821818E+03  0.00000000000E+00 0. -1.
</event>
<event>
 7    1  0.6278987E-006  0.7642220E+02  0.7818608E-02  0.1361438E+00
          2   -1    0    0  502    0  0.00000000000E+00  0.00000000000E+00  0.37380863220E+04  0.37380863220E+04  0.00000000000E+00 0. -1.
          1   -1    0    0  501    0 -0.00000000000E+00 -0.00000000000E+00 -0.18683861748E+02  0.18683861748E+02  0.00000000000E+00 0. -1.
         25    2    1    2    0    0  0.48499616794E+02  0.47837545457E+02  0.79989929139E+03  0.81246892732E+03  0.12500495152E+03 0.  0.
          2    1    1    2  501    0 -0.55273321833E+02  0.31049992396E+02  0.72955884700E+02  0.96653004333E+02  0.00000000000E+00 0. -1.
          1    1    1    2  502    0  0.67737050383E+01 -0.78887537854E+02  0.28465472842E+04  0.28476482521E+04  0.00000000000E+00 0. -1.
         22    1    3    3    0    0 -0.28235774399E+02 -0.21374605373E+02  0.13407010043E+03  0.13866839777E+03  0.00000000000E+00 0.  1.
         22    1    3    3    0    0  0.76735391193E+02  0.69212150830E+02  0.66582919096E+03  0.67380052955E+03  0.00000000000E+00 0.  1.
</event>
<event>
 7    1  0.6278987E-006  0.6636149E+02  0.7818608E-02  0.1495648E+00
          2   -1    0    0  502    0  0.00000000000E+00  0.00000000000E+00  0.77545435801E+03  0.77545435801E+03  0.00000000000E+00 0. -1.
          1   -1    0    0  501    0 -0.00000000000E+00 -0.00000000000E+00 -0.29727122464E+03  0.29727122464E+03  0.00000000000E+00 0. -1.
         25    2    1    2    0    0  0.41424922836E+02 -0.23023164404E+01  0.84310502481E+02  0.15639539125E+03  0.12501972917E+03 0.  0.
          2    1    1    2  501    0  0.26142772193E+02  0.26647250641E+01 -0.25881940766E+03  0.26015001649E+03  0.00000000000E+00 0. -1.
          1    1    1    2  502    0 -0.67567695029E+02 -0.36240862372E+00  0.65269203855E+03  0.65618017491E+03  0.00000000000E+00 0. -1.
         22    1    3    3    0    0  0.32250330083E+02 -0.35400202691E+01 -0.28513022460E+02  0.43192684378E+02  0.00000000000E+00 0. -1.
         22    1    3    3    0    0  0.91745927526E+01  0.12377038287E+01  0.11282352494E+03  0.11320270687E+03  0.00000000000E+00 0. -1.
</event>
<event>
 7    1  0.6278987E-006  0.6835572E+02  0.7818608E-02  0.1385948E+00
          2   -1    0    0  502    0  0.00000000000E+00  0.00000000000E+00  0.14279459136E+03  0.14279459136E+03  0.00000000000E+00 0. -1.
          1   -1    0    0  501    0 -0.00000000000E+00 -0.00000000000E+00 -0.14344473580E+04  0.14344473580E+04  0.00000000000E+00 0. -1.
         25    2    1    2    0    0  0.17598539919E+02 -0.37574915253E+02 -0.16023549065E+03  0.20742056273E+03  0.12500517797E+03 0.  0.
          2    1    1    2  501    0 -0.52718943026E+02 -0.24005678161E+02 -0.12393425450E+04  0.12406955724E+04  0.00000000000E+00 0. -1.
          1    1    1    2  502    0  0.35120403107E+02  0.61580593415E+02  0.10792526902E+03  0.12912581420E+03  0.00000000000E+00 0. -1.
         22    1    3    3    0    0  0.51693728349E+02 -0.56304220697E+02 -0.14811602121E+03  0.16667562077E+03  0.00000000000E+00 0. -1.
         22    1    3    3    0    0 -0.34095188430E+02  0.18729305444E+02 -0.12119469438E+02  0.40744941967E+02  0.00000000000E+00 0. -1.
</event>
<event>
 7    1  0.6278987E-006  0.6878265E+02  0.7818608E-02  0.1452458E+00
          2   -1    0    0  502    0  0.00000000000E+00  0.00000000000E+00  0.21334071534E+04  0.21334071534E+04  0.00000000000E+00 0. -1.
          1   -1    0    0  501    0 -0.00000000000E+00 -0.00000000000E+00 -0.11772869932E+03  0.11772869932E+03  0.00000000000E+00 0. -1.
         25    2    1    2    0    0 -0.66350158296E+02  0.58717548333E+02  0.32017074918E+03  0.35494294574E+03  0.12500036844E+03 0.  0.
          2    1    1    2  501    0  0.63808231509E+02 -0.24324254407E+02 -0.88538527216E+02  0.11181337381E+03  0.00000000000E+00 0. -1.
          1    1    1    2  502    0  0.25419267869E+01 -0.34393293926E+02  0.17840462321E+04  0.17843795332E+04  0.00000000000E+00 0. -1.
         22    1    3    3    0    0 -0.25121599092E+01  0.82926417684E+02  0.14694562472E+03  0.16874868391E+03  0.00000000000E+00 0. -1.
         22    1    3    3    0    0 -0.63837998386E+02 -0.24208869351E+02  0.17322512446E+03  0.18619426182E+03  0.00000000000E+00 0. -1.
</event>
<event>
 7    1  0.1082274E-005  0.4865572E+02  0.7818608E-02  0.1455595E+00
          2   -1    0    0  502    0  0.00000000000E+00  0.00000000000E+00  0.10874368391E+04  0.10874368391E+04  0.00000000000E+00 0. -1.
          1   -1    0    0  501    0 -0.00000000000E+00 -0.00000000000E+00 -0.90687602954E+03  0.90687602954E+03  0.00000000000E+00 0. -1.
         25    2    1    2    0    0  0.29850742909E+01  0.46845345352E+01 -0.46817967674E+03  0.48461271848E+03  0.12500568655E+03 0.  0.
          2    1    1    2  501    0  0.43281484842E+02 -0.19919463613E+02 -0.42860950088E+03  0.43124955212E+03  0.00000000000E+00 0. -1.
          1    1    1    2  502    0 -0.46266559133E+02  0.15234929078E+02  0.10773499871E+04  0.10784505980E+04  0.00000000000E+00 0. -1.
         22    1    3    3    0    0 -0.57674430551E+02  0.56147641253E+01 -0.30641735484E+03  0.31184845817E+03  0.00000000000E+00 0.  1.
         22    1    3    3    0    0  0.60659504842E+02 -0.93022959013E+00 -0.16176232189E+03  0.17276426031E+03  0.00000000000E+00 0.  1.
</event>
<event>
 7    1  0.6278987E-006  0.2232933E+03  0.7818608E-02  0.1337175E+00
          2   -1    0    0  502    0  0.00000000000E+00  0.00000000000E+00  0.56299106695E+03  0.56299106695E+03  0.00000000000E+00 0. -1.
          1   -1    0    0  501    0 -0.00000000000E+00 -0.00000000000E+00 -0.10182606588E+04  0.10182606588E+04  0.00000000000E+00 0. -1.
         25    2    1    2    0    0  0.24448237089E+03  0.18051104326E+02  0.28510228108E+03  0.39624281537E+03  0.12501034364E+03 0.  0.
          2    1    1    2  501    0 -0.22246445829E+03 -0.29583956254E+01 -0.94897411197E+03  0.97470562351E+03  0.00000000000E+00 0. -1.
          1    1    1    2  502    0 -0.22017912594E+02 -0.15092708700E+02  0.20860223905E+03  0.21030328686E+03  0.00000000000E+00 0. -1.
         22    1    3    3    0    0  0.75175014120E+02 -0.52501563885E+02  0.99229867867E+02  0.13510834036E+03  0.00000000000E+00 0.  1.
         22    1    3    3    0    0  0.16930735677E+03  0.70552668211E+02  0.18587241321E+03  0.26113447501E+03  0.00000000000E+00 0.  1.
</event>
<event>
 7    1  0.6278987E-006  0.1538802E+03  0.7818608E-02  0.1331240E+00
          2   -1    0    0  502    0  0.00000000000E+00  0.00000000000E+00  0.25034314891E+04  0.25034314891E+04  0.00000000000E+00 0. -1.
          1   -1    0    0  501    0 -0.00000000000E+00 -0.00000000000E+00 -0.11768376246E+03  0.11768376246E+03  0.00000000000E+00 0. -1.
         25    2    1    2    0    0 -0.13419633824E+03  0.13376155214E+03  0.53762310170E+03  0.58357980795E+03  0.12500393087E+03 0.  0.
          2    1    1    2  501    0  0.33393910396E+02 -0.23437721040E+02 -0.87293322075E+02  0.96356650512E+02  0.00000000000E+00 0. -1.
          1    1    1    2  502    0  0.10080242785E+03 -0.11032383110E+03  0.19354179470E+04  0.19411787931E+04  0.00000000000E+00 0. -1.
         22    1    3    3    0    0  0.19616163226E+02  0.32139438590E+02  0.14534606933E+03  0.15014398836E+03  0.00000000000E+00 0.  1.
         22    1    3    3    0    0 -0.15381250147E+03  0.10162211355E+03  0.39227703237E+03  0.43343581959E+03  0.00000000000E+00 0.  1.
</event>
<event>
 7    1  0.6278987E-006  0.6731106E+02  0.7818608E-02  0.1445947E+00
          2   -1    0    0  502    0  0.00000000000E+00  0.00000000000E+00  0.15301908519E+04  0.15301908519E+04  0.00000000000E+00 0. -1.
          1   -1    0    0  501    0 -0.00000000000E+00 -0.00000000000E+00 -0.24140405201E+04  0.24140405201E+04  0.00000000000E+00 0. -1.
         25    2    1    2    0    0 -0.10387116033E+03 -0.13045889439E+01  0.52227820273E+03  0.54698464550E+03  0.12500704568E+03 0.  0.
          2    1    1    2  501    0  0.67088158605E+02  0.50639531302E+01 -0.24008725883E+04  0.24018150740E+04  0.00000000000E+00 0. -1.
          1    1    1    2  502    0  0.36783001720E+02 -0.37593641863E+01  0.99474471739E+03  0.99543165251E+03  0.00000000000E+00 0. -1.
         22    1    3    3    0    0 -0.11125552650E+03  0.40886612111E+02  0.35287152019E+03  0.37224698386E+03  0.00000000000E+00 0. -1.
         22    1    3    3    0    0  0.73843661721E+01 -0.42191201055E+02  0.16940668253E+03  0.17473766165E+03  0.00000000000E+00 0. -1.
</event>
<event>
 7    1  0.6278987E-006  0.3585017E+03  0.7818608E-02  0.1193894E+00
          2   -1    0    0  502    0  0.00000000000E+00  0.00000000000E+00  0.10336711758E+04  0.10336711758E+04  0.00000000000E+00 0. -1.
          1   -1    0    0  501    0 -0.00000000000E+00 -0.00000000000E+00 -0.11285265555E+04  0.11285265555E+04  0.00000000000E+00 0. -1.
         25    2    1    2    0    0  0.53610649283E+02  0.33391111779E+03  0.32090446370E+03  0.48267911462E+03  0.12501486536E+03 0.  0.
          2    1    1    2  501    0 -0.54009384765E+02  0.40374279870E+02 -0.99096691613E+03  0.99325853884E+03  0.00000000000E+00 0. -1.
          1    1    1    2  502    0  0.39873548162E+00 -0.37428539766E+03  0.57520707275E+03  0.68626007783E+03  0.00000000000E+00 0. -1.
         22    1    3    3    0    0 -0.29101400802E+01  0.17084186319E+02  0.76843833635E+02  0.78773809766E+02  0.00000000000E+00 0.  1.
         22    1    3    3    0    0  0.56520789364E+02  0.31682693147E+03  0.24406063007E+03  0.40390530485E+03  0.00000000000E+00 0.  1.
</event>
<event>
 7    1  0.6278987E-006  0.1171356E+03  0.7818608E-02  0.1379620E+00
          2   -1    0    0  502    0  0.00000000000E+00  0.00000000000E+00  0.72012362259E+03  0.72012362259E+03  0.00000000000E+00 0. -1.
          1   -1    0    0  501    0 -0.00000000000E+00 -0.00000000000E+00 -0.52306247219E+02  0.52306247219E+02  0.00000000000E+00 0. -1.
         25    2    1    2    0    0  0.80706028595E+02  0.49268151900E+02  0.51926015777E+03  0.54239983062E+03  0.12500260385E+03 0.  0.
          2    1    1    2  501    0 -0.88003767594E+02 -0.84098484587E+02  0.62347452356E+02  0.13676411458E+03  0.00000000000E+00 0. -1.
          1    1    1    2  502    0  0.72977389986E+01  0.34830332687E+02  0.86209765249E+02  0.93265924613E+02  0.00000000000E+00 0. -1.
         22    1    3    3    0    0  0.46709142417E+02  0.50398648790E+02  0.49704533164E+03  0.50177268707E+03  0.00000000000E+00 0.  1.
         22    1    3    3    0    0  0.33996886178E+02 -0.11304968895E+01  0.22214826122E+02  0.40627143546E+02  0.00000000000E+00 0.  1.
</event>
<event>
 7    1  0.6278987E-006  0.5438171E+02  0.7818608E-02  0.1491989E+00
          2   -1    0    0  502    0  0.00000000000E+00  0.00000000000E+00  0.19375923165E+04  0.19375923165E+04  0.00000000000E+00 0. -1.
          1   -1    0    0  501    0 -0.00000000000E+00 -0.00000000000E+00 -0.37885523958E+02  0.37885523958E+02  0.00000000000E+00 0. -1.
         25    2    1    2    0    0 -0.29142295324E+02 -0.75835850084E+02  0.38696855549E+03  0.41469581454E+03  0.12501042406E+03 0.  0.
          2    1    1    2  501    0  0.30340669320E+02  0.42967011296E+02  0.51678353496E+01  0.52852878793E+02  0.00000000000E+00 0. -1.
          1    1    1    2  502    0 -0.11983739958E+01  0.32868838788E+02  0.15075704017E+04  0.15079291471E+04  0.00000000000E+00 0. -1.
         22    1    3    3    0    0 -0.72676958407E+01  0.35061065984E+02  0.83156455602E+02  0.90537803480E+02  0.00000000000E+00 0. -1.
         22    1    3    3    0    0 -0.21874599483E+02 -0.11089691607E+03  0.30381209989E+03  0.32415801106E+03  0.00000000000E+00 0. -1.
</event>
<event>
 7    1  0.6278987E-006  0.1495333E+03  0.7818608E-02  0.1239668E+00
          2   -1    0    0  502    0  0.00000000000E+00  0.00000000000E+00  0.30888856676E+04  0.30888856676E+04  0.00000000000E+00 0. -1.
          1   -1    0    0  501    0 -0.00000000000E+00 -0.00000000000E+00 -0.19662233979E+03  0.19662233979E+03  0.00000000000E+00 0. -1.
         25    2    1    2    0    0  0.98352096009E+00  0.57213549142E+02  0.85408361277E+01  0.13774215325E+03  0.12500238950E+03 0.  0.
          2    1    1    2  501    0 -0.46399317671E+02  0.88249241815E+02 -0.11097976602E+03  0.14918891992E+03  0.00000000000E+00 0. -1.
          1    1    1    2  502    0  0.45415796711E+02 -0.14546279096E+03  0.29947022577E+04  0.29985769342E+04  0.00000000000E+00 0. -1.
         22    1    3    3    0    0  0.24750505119E+02 -0.31553576409E+02 -0.15108153718E+02  0.42854077946E+02  0.00000000000E+00 0. -1.
         22    1    3    3    0    0 -0.23766984159E+02  0.88767125551E+02  0.23648989846E+02  0.94888075306E+02  0.00000000000E+00 0. -1.
</event>
<event>
 7    1  0.6278987E-006  0.9551756E+02  0.7818608E-02  0.1435580E+00
          2   -1    0    0  502    0  0.00000000000E+00  0.00000000000E+00  0.30155217566E+04  0.30155217566E+04  0.00000000000E+00 0. -1.
          1   -1    0    0  501    0 -0.00000000000E+00 -0.00000000000E+00 -0.37986836304E+03  0.37986836304E+03  0.00000000000E+00 0. -1.
         25    2    1    2    0    0 -0.10576175557E+03  0.40345429401E+02  0.13139143357E+03  0.21378291095E+03  0.12500448626E+03 0.  0.
          2    1    1    2  501    0  0.11686478980E+02 -0.25612151069E+02 -0.33728868555E+03  0.33846153914E+03  0.00000000000E+00 0. -1.
          1    1    1    2  502    0  0.94075276588E+02 -0.14733278333E+02  0.28415506455E+04  0.28431456696E+04  0.00000000000E+00 0. -1.
         22    1    3    3    0    0 -0.11590177915E+03  0.15054680964E+02  0.14255100052E+03  0.18433842133E+03  0.00000000000E+00 0. -1.
         22    1    3    3    0    0  0.10140023578E+02  0.25290748437E+02 -0.11159566950E+02  0.29444489624E+02  0.00000000000E+00 0. -1.
</event>
<event>
 7    1  0.6278987E-006  0.7832342E+02  0.7818608E-02  0.1422124E+00
          2   -1    0    0  502    0  0.00000000000E+00  0.00000000000E+00  0.68200742588E+03  0.68200742588E+03  0.00000000000E+00 0. -1.
          1   -1    0    0  501    0 -0.00000000000E+00 -0.00000000000E+00 -0.11246334624E+04  0.11246334624E+04  0.00000000000E+00 0. -1.
         25    2    1    2    0    0  0.59192559146E+02  0.96275550830E+01  0.39791288173E+03  0.42137349329E+03  0.12499804207E+03 0.  0.
          2    1    1    2  501    0  0.31572310658E+02 -0.21193609085E+02 -0.11048822395E+04  0.11055364052E+04  0.00000000000E+00 0. -1.
          1    1    1    2  502    0 -0.90764869805E+02  0.11566054002E+02  0.26434332126E+03  0.27973098987E+03  0.00000000000E+00 0. -1.
         22    1    3    3    0    0  0.84287335655E+02 -0.22651746125E+02  0.33620885217E+03  0.34735262894E+03  0.00000000000E+00 0.  1.
         22    1    3    3    0    0 -0.25094776509E+02  0.32279301208E+02  0.61704029569E+02  0.74020864352E+02  0.00000000000E+00 0.  1.
</event>
<event>
 7    1  0.6278987E-006  0.7060867E+02  0.7818608E-02  0.1376322E+00
          2   -1    0    0  502    0  0.00000000000E+00  0.00000000000E+00  0.14411318152E+04  0.14411318152E+04  0.00000000000E+00 0. -1.
          1   -1    0    0  501    0 -0.00000000000E+00 -0.00000000000E+00 -0.29716784730E+03  0.29716784730E+03  0.00000000000E+00 0. -1.
         25    2    1    2    0    0  0.31906675263E+02 -0.11422213201E+03 -0.18527404772E+03  0.25301451934E+03  0.12500057148E+03 0.  0.
          2    1    1    2  501    0  0.12325559327E+02  0.59384954390E+02 -0.65211874143E+02  0.89056615419E+02  0.00000000000E+00 0. -1.
          1    1    1    2  502    0 -0.44232234590E+02  0.54837177622E+02  0.13944498897E+04  0.13962285277E+04  0.00000000000E+00 0. -1.
         22    1    3    3    0    0  0.50780995120E+02 -0.12894678620E+03 -0.11940513224E+03  0.18293050249E+03  0.00000000000E+00 0.  1.
         22    1    3    3    0    0 -0.18874319856E+02  0.14724654186E+02 -0.65868915483E+02  0.70084016851E+02  0.00000000000E+00 0.  1.
</event>
<event>
 7    1  0.6278987E-006  0.9781118E+02  0.7818608E-02  0.1363160E+00
          2   -1    0    0  502    0  0.00000000000E+00  0.00000000000E+00  0.19273441449E+04  0.19273441449E+04  0.00000000000E+00 0. -1.
          1   -1    0    0  501    0 -0.00000000000E+00 -0.00000000000E+00 -0.49500349897E+02  0.49500349897E+02  0.00000000000E+00 0. -1.
         25    2    1    2    0    0 -0.77813963301E+02  0.12257100559E+02  0.21368609539E+03  0.25979219187E+03  0.12499994479E+03 0.  0.
          2    1    1    2  501    0  0.10587524056E+03  0.27698378249E+02  0.88786928467E+02  0.14092510560E+03  0.00000000000E+00 0. -1.
          1    1    1    2  502    0 -0.28061277256E+02 -0.39955478809E+02  0.15753707711E+04  0.15761271973E+04  0.00000000000E+00 0. -1.
         22    1    3    3    0    0 -0.83189548530E+02  0.62354049962E+01  0.52852375704E+02  0.98756037171E+02  0.00000000000E+00 0.  1.
         22    1    3    3    0    0  0.53755852287E+01  0.60216955631E+01  0.16083371968E+03  0.16103615470E+03  0.00000000000E+00 0.  1.
</event>
<event>
 7    1  0.6278987E-006  0.1202101E+03  0.7818608E-02  0.1354207E+00
          2   -1    0    0  502    0  0.00000000000E+00  0.00000000000E+00  0.14867464115E+04  0.14867464115E+04  0.00000000000E+00 0. -1.
          1   -1    0    0  501    0 -0.00000000000E+00 -0.00000000000E+00 -0.26731644966E+03  0.26731644966E+03  0.00000000000E+00 0. -1.
         25    2    1    2    0    0 -0.11303108708E+03 -0.13237423962E+02  0.46958229132E+03  0.49908447020E+03  0.12500609601E+03 0.  0.
          2    1    1    2  501    0  0.10701061953E+03  0.55650072020E+02 -0.23767405352E+03  0.26652797025E+03  0.00000000000E+00 0. -1.
          1    1    1    2  502    0  0.60204675503E+01 -0.42412648058E+02  0.98752172405E+03  0.98845042071E+03  0.00000000000E+00 0. -1.
         22    1    3    3    0    0 -0.12233295586E+03  0.29559185613E+01  0.46359541301E+03  0.47947345757E+03  0.00000000000E+00 0.  1.
         22    1    3    3    0    0  0.93018687791E+01 -0.16193342523E+02  0.59868783050E+01  0.19611012638E+02  0.00000000000E+00 0.  1.
</event>
<event>
 7    1  0.6278987E-006  0.8911903E+02  0.7818608E-02  0.1455743E+00
          2   -1    0    0  502    0  0.00000000000E+00  0.00000000000E+00  0.34372169387E+03  0.34372169387E+03  0.00000000000E+00 0. -1.
          1   -1    0    0  501    0 -0.00000000000E+00 -0.00000000000E+00 -0.10181374538E+04  0.10181374538E+04  0.00000000000E+00 0. -1.
         25    2    1    2    0    0 -0.25909264719E+02  0.67556501506E+02  0.52740730473E+02  0.15375732597E+03  0.12499823896E+03 0.  0.
          2    1    1    2  501    0  0.11027635620E+02  0.23528528354E+02 -0.95859118865E+03  0.95894330768E+03  0.00000000000E+00 0. -1.
          1    1    1    2  502    0  0.14881629099E+02 -0.91085029860E+02  0.23143469825E+03  0.24915851401E+03  0.00000000000E+00 0. -1.
         22    1    3    3    0    0  0.42600127351E+02  0.36242187168E+02  0.54936913143E+02  0.78398542121E+02  0.00000000000E+00 0.  1.
         22    1    3    3    0    0 -0.68509392070E+02  0.31314314338E+02 -0.21961826702E+01  0.75358783845E+02  0.00000000000E+00 0.  1.
</event>
<event>
 7    1  0.6278987E-006  0.6150152E+02  0.7818608E-02  0.1448368E+00
          2   -1    0    0  502    0  0.00000000000E+00  0.00000000000E+00  0.42337407730E+03  0.42337407730E+03  0.00000000000E+00 0. -1.
          1   -1    0    0  501    0 -0.00000000000E+00 -0.00000000000E+00 -0.14549265791E+04  0.14549265791E+04  0.00000000000E+00 0. -1.
         25    2    1    2    0    0 -0.46583940695E+02  0.12194692137E+02 -0.22883571980E+02  0.13589060124E+03  0.12499529428E+03 0.  0.
          2    1    1    2  501    0  0.35724693459E+02 -0.50431844339E+02 -0.13737660240E+04  0.13751555233E+04  0.00000000000E+00 0. -1.
          1    1    1    2  502    0  0.10859247236E+02  0.38237152203E+02  0.36509709412E+03  0.36725453189E+03  0.00000000000E+00 0. -1.
         22    1    3    3    0    0 -0.44644796110E+02  0.65504477259E+02 -0.42524501552E+01  0.79385626488E+02  0.00000000000E+00 0. -1.
         22    1    3    3    0    0 -0.19391445856E+01 -0.53309785122E+02 -0.18631121824E+02  0.56504974754E+02  0.00000000000E+00 0. -1.
</event>
<event>
 7    1  0.6278987E-006  0.5726410E+02  0.7818608E-02  0.1437856E+00
          2   -1    0    0  502    0  0.00000000000E+00  0.00000000000E+00  0.98914824212E+03  0.98914824212E+03  0.00000000000E+00 0. -1.
          1   -1    0    0  501    0 -0.00000000000E+00 -0.00000000000E+00 -0.19934419527E+04  0.19934419527E+04  0.00000000000E+00 0. -1.
         25    2    1    2    0    0  0.62281457719E+02 -0.76531561771E+02  0.49151485327E+03  0.51667030949E+03  0.12500119123E+03 0.  0.
          2    1    1    2  501    0 -0.27692671226E+02  0.36934526546E+02 -0.19791695480E+04  0.19797078428E+04  0.00000000000E+00 0. -1.
          1    1    1    2  502    0 -0.34588786494E+02  0.39597035225E+02  0.48336098410E+03  0.48621204253E+03  0.00000000000E+00 0. -1.
         22    1    3    3    0    0  0.64715307063E+02 -0.89113839340E+01  0.38484330745E+03  0.39034837648E+03  0.00000000000E+00 0. -1.
         22    1    3    3    0    0 -0.24338493439E+01 -0.67620177837E+02  0.10667154582E+03  0.12632193301E+03  0.00000000000E+00 0. -1.
</event>
<event>
 7    1  0.6278987E-006  0.1191035E+03  0.7818608E-02  0.1253418E+00
          2   -1    0    0  502    0  0.00000000000E+00  0.00000000000E+00  0.28708212476E+03  0.28708212476E+03  0.00000000000E+00 0. -1.
          1   -1    0    0  501    0 -0.00000000000E+00 -0.00000000000E+00 -0.60673616522E+03  0.60673616522E+03  0.00000000000E+00 0. -1.
         25    2    1    2    0    0  0.11768026771E+03 -0.68896269452E+02 -0.91659789187E+02  0.20645032743E+03  0.12499951755E+03 0.  0.
          2    1    1    2  501    0 -0.11599419757E+03 -0.40117767528E+02 -0.43576980756E+03  0.45272443530E+03  0.00000000000E+00 0. -1.
          1    1    1    2  502    0 -0.16860701436E+01  0.10901403698E+03  0.20777555628E+03  0.23464352725E+03  0.00000000000E+00 0. -1.
         22    1    3    3    0    0  0.92131193899E+02 -0.10564315781E+03 -0.71668920457E+02  0.15743274069E+03  0.00000000000E+00 0. -1.
         22    1    3    3    0    0  0.25549073812E+02  0.36746888361E+02 -0.19990868730E+02  0.49017586736E+02  0.00000000000E+00 0. -1.
</event>
<event>
 7    1  0.6278987E-006  0.1350294E+03  0.7818608E-02  0.1406896E+00
          2   -1    0    0  502    0  0.00000000000E+00  0.00000000000E+00  0.60026788149E+03  0.60026788149E+03  0.00000000000E+00 0. -1.
          1   -1    0    0  501    0 -0.00000000000E+00 -0.00000000000E+00 -0.62831846532E+03  0.62831846532E+03  0.00000000000E+00 0. -1.
         25    2    1    2    0    0  0.48673956508E+01  0.15425251015E+03  0.16897100064E+03  0.26075644558E+03  0.12500078569E+03 0.  0.
          2    1    1    2  501    0 -0.68734770647E+01 -0.23849907519E+02 -0.57111533875E+03  0.57165443489E+03  0.00000000000E+00 0. -1.
          1    1    1    2  502    0  0.20060814139E+01 -0.13040260263E+03  0.37409375428E+03  0.39617546634E+03  0.00000000000E+00 0. -1.
         22    1    3    3    0    0  0.48511953294E+02  0.14640675943E+03  0.13288258110E+03  0.20358322421E+03  0.00000000000E+00 0.  1.
         22    1    3    3    0    0 -0.43644557643E+02  0.78457507174E+01  0.36088419541E+02  0.57173221365E+02  0.00000000000E+00 0.  1.
</event>
<event>
 7    1  0.6278987E-006  0.8277868E+02  0.7818608E-02  0.1374323E+00
          2   -1    0    0  502    0  0.00000000000E+00  0.00000000000E+00  0.30516010401E+03  0.30516010401E+03  0.00000000000E+00 0. -1.
          1   -1    0    0  501    0 -0.00000000000E+00 -0.00000000000E+00 -0.10013521653E+04  0.10013521653E+04  0.00000000000E+00 0. -1.
         25    2    1    2    0    0 -0.52893231498E+01 -0.33938479968E+02 -0.22748595923E+03  0.26182835614E+03  0.12499771626E+03 0.  0.
          2    1    1    2  501    0 -0.33253510379E+02 -0.40742142857E+02 -0.74962300294E+03  0.75146547804E+03  0.00000000000E+00 0. -1.
          1    1    1    2  502    0  0.38542833529E+02  0.74680622824E+02  0.28091690093E+03  0.29321843508E+03  0.00000000000E+00 0. -1.
         22    1    3    3    0    0 -0.39449627829E+02 -0.43136080214E+02 -0.39516548164E+02  0.70558855794E+02  0.00000000000E+00 0.  1.
         22    1    3    3    0    0  0.34160304679E+02  0.91976002467E+01 -0.18796941107E+03  0.19126950035E+03  0.00000000000E+00 0.  1.
</event>
<event>
 7    1  0.6278987E-006  0.1204455E+03  0.7818608E-02  0.1280903E+00
          2   -1    0    0  502    0  0.00000000000E+00  0.00000000000E+00  0.53308275339E+03  0.53308275339E+03  0.00000000000E+00 0. -1.
          1   -1    0    0  501    0 -0.00000000000E+00 -0.00000000000E+00 -0.16467163163E+04  0.16467163163E+04  0.00000000000E+00 0. -1.
         25    2    1    2    0    0  0.54097096076E+02 -0.24978502587E+02 -0.37200329884E+03  0.39693990880E+03  0.12499766178E+03 0.  0.
          2    1    1    2  501    0 -0.11139513091E+03  0.84400951240E+02 -0.12550692980E+04  0.12628267255E+04  0.00000000000E+00 0. -1.
          1    1    1    2  502    0  0.57298034830E+02 -0.59422448653E+02  0.51343903400E+03  0.52003243537E+03  0.00000000000E+00 0. -1.
         22    1    3    3    0    0  0.70061527000E+02  0.32940669153E+02 -0.18580189827E+03  0.20128599219E+03  0.00000000000E+00 0. -1.
         22    1    3    3    0    0 -0.15964430924E+02 -0.57919171740E+02 -0.18620140057E+03  0.19565391661E+03  0.00000000000E+00 0. -1.
</event>
<event>
 7    1  0.6278987E-006  0.9076332E+02  0.7818608E-02  0.1366992E+00
          2   -1    0    0  502    0  0.00000000000E+00  0.00000000000E+00  0.31278115595E+03  0.31278115595E+03  0.00000000000E+00 0. -1.
          1   -1    0    0  501    0 -0.00000000000E+00 -0.00000000000E+00 -0.15972772924E+04  0.15972772924E+04  0.00000000000E+00 0. -1.
         25    2    1    2    0    0  0.50484807350E+02  0.46706605091E+02  0.11004537727E+03  0.18018474388E+03  0.12500533643E+03 0.  0.
          2    1    1    2  501    0 -0.89919882865E+02 -0.14427559051E+02 -0.15569736894E+04  0.15596348320E+04  0.00000000000E+00 0. -1.
          1    1    1    2  502    0  0.39435075515E+02 -0.32279046040E+02  0.16243217568E+03  0.17023887244E+03  0.00000000000E+00 0. -1.
         22    1    3    3    0    0  0.80232419953E+02  0.56274736327E+02  0.44620633074E+02  0.10768049060E+03  0.00000000000E+00 0. -1.
         22    1    3    3    0    0 -0.29747612603E+02 -0.95681312355E+01  0.65424744192E+02  0.72504253278E+02  0.00000000000E+00 0. -1.
</event>
<event>
 7    1  0.6278987E-006  0.3999496E+03  0.7818608E-02  0.1167495E+00
          2   -1    0    0  502    0  0.00000000000E+00  0.00000000000E+00  0.13240189500E+04  0.13240189500E+04  0.00000000000E+00 0. -1.
          1   -1    0    0  501    0 -0.00000000000E+00 -0.00000000000E+00 -0.19973595962E+04  0.19973595962E+04  0.00000000000E+00 0. -1.
         25    2    1    2    0    0 -0.16940664239E+03  0.36203866568E+03  0.51094104539E+03  0.66064890456E+03  0.12500246919E+03 0.  0.
          2    1    1    2  501    0  0.23942701065E+03 -0.32073098766E+03 -0.18993460419E+04  0.19410587438E+04  0.00000000000E+00 0. -1.
          1    1    1    2  502    0 -0.70020368259E+02 -0.41307678016E+02  0.71506435033E+03  0.71967089794E+03  0.00000000000E+00 0. -1.
         22    1    3    3    0    0 -0.15601384152E+03  0.36842838095E+03  0.50586770931E+03  0.64496661150E+03  0.00000000000E+00 0.  1.
         22    1    3    3    0    0 -0.13392800870E+02 -0.63897152762E+01  0.50733360812E+01  0.15682293054E+02  0.00000000000E+00 0.  1.
</event>
<event>
 7    1  0.6278987E-006  0.8647238E+02  0.7818608E-02  0.1409387E+00
          2   -1    0    0  502    0  0.00000000000E+00  0.00000000000E+00  0.26719031871E+04  0.26719031871E+04  0.00000000000E+00 0. -1.
          1   -1    0    0  501    0 -0.00000000000E+00 -0.00000000000E+00 -0.61135783496E+03  0.61135783496E+03  0.00000000000E+00 0. -1.
         25    2    1    2    0    0 -0.60513269989E+02  0.67851241500E+01  0.90649033651E+03  0.91709199965E+03  0.12500044752E+03 0.  0.
          2    1    1    2  501    0 -0.25483400955E+02  0.28202340874E+02 -0.60423511757E+03  0.60542947819E+03  0.00000000000E+00 0. -1.
          1    1    1    2  502    0  0.85996670944E+02 -0.34987465024E+02  0.17582901332E+04  0.17607395443E+04  0.00000000000E+00 0. -1.
         22    1    3    3    0    0 -0.90474852491E+02  0.28605830427E+02  0.50067795155E+03  0.50959042734E+03  0.00000000000E+00 0. -1.
         22    1    3    3    0    0  0.29961582502E+02 -0.21820706277E+02  0.40581238496E+03  0.40750157231E+03  0.00000000000E+00 0. -1.
</event>
<event>
 7    1  0.6278987E-006  0.9574543E+02  0.7818608E-02  0.1404975E+00
          2   -1    0    0  502    0  0.00000000000E+00  0.00000000000E+00  0.22233239147E+04  0.22233239147E+04  0.00000000000E+00 0. -1.
          1   -1    0    0  501    0 -0.00000000000E+00 -0.00000000000E+00 -0.16195733498E+02  0.16195733498E+02  0.00000000000E+00 0. -1.
         25    2    1    2    0    0  0.11368211928E+03 -0.36116178010E+02  0.10614672851E+04  0.10754373581E+04  0.12499884489E+03 0.  0.
          2    1    1    2  501    0 -0.79230671854E+02  0.44829483497E+02  0.22475794969E+03  0.24249395436E+03  0.00000000000E+00 0. -1.
          1    1    1    2  502    0 -0.34451447422E+02 -0.87133054872E+01  0.92090294637E+03  0.92158833573E+03  0.00000000000E+00 0. -1.
         22    1    3    3    0    0  0.20273302285E+02 -0.44468853174E+02  0.70978813060E+03  0.71146867537E+03  0.00000000000E+00 0.  1.
         22    1    3    3    0    0  0.93408816991E+02  0.83526751639E+01  0.35167915451E+03  0.36396868271E+03  0.00000000000E+00 0.  1.
</event>
<event>
 7    1  0.6278987E-006  0.7835417E+02  0.7818608E-02  0.1384100E+00
          2   -1    0    0  502    0  0.00000000000E+00  0.00000000000E+00  0.35694721471E+03  0.35694721471E+03  0.00000000000E+00 0. -1.
          1   -1    0    0  501    0 -0.00000000000E+00 -0.00000000000E+00 -0.14598633528E+03  0.14598633528E+03  0.00000000000E+00 0. -1.
         25    2    1    2    0    0  0.37902732880E+02  0.88687125756E+02 -0.31951769663E+02  0.16108227600E+03  0.12499824247E+03 0.  0.
          2    1    1    2  501    0 -0.60773109936E+02 -0.42770477225E+02 -0.17571766625E+02  0.76363941724E+02  0.00000000000E+00 0. -1.
          1    1    1    2  502    0  0.22870377055E+02 -0.45916648531E+02  0.26048441572E+03  0.26548733226E+03  0.00000000000E+00 0. -1.
         22    1    3    3    0    0 -0.44798154824E+02  0.47753641161E+02 -0.10077024503E+02  0.66248255392E+02  0.00000000000E+00 0.  1.
         22    1    3    3    0    0  0.82700887704E+02  0.40933484595E+02 -0.21874745160E+02  0.94834020604E+02  0.00000000000E+00 0.  1.
</event>
<event>
 7    1  0.6278987E-006  0.1663241E+03  0.7818608E-02  0.1302263E+00
          2   -1    0    0  502    0  0.00000000000E+00  0.00000000000E+00  0.92286870019E+03  0.92286870019E+03  0.00000000000E+00 0. -1.
          1   -1    0    0  501    0 -0.00000000000E+00 -0.00000000000E+00 -0.22017916105E+03  0.22017916105E+03  0.00000000000E+00 0. -1.
         25    2    1    2    0    0 -0.97737869710E+02  0.83116236177E+02  0.11336475391E+03  0.21198448525E+03  0.12499941867E+03 0.  0.
          2    1    1    2  501    0  0.13196775784E+03 -0.11812768235E+03 -0.12390621909E+03  0.21615362495E+03  0.00000000000E+00 0. -1.
          1    1    1    2  502    0 -0.34229888135E+02  0.35011446176E+02  0.71323100432E+03  0.71490975104E+03  0.00000000000E+00 0. -1.
         22    1    3    3    0    0 -0.53621398676E+02  0.76145191317E+02  0.32848801922E+01  0.93188706368E+02  0.00000000000E+00 0. -1.
         22    1    3    3    0    0 -0.44116471034E+02  0.69710448603E+01  0.11007987372E+03  0.11879577888E+03  0.00000000000E+00 0. -1.
</event>
<event>
 7    1  0.6278987E-006  0.9579799E+02  0.7818608E-02  0.1318847E+00
          2   -1    0    0  502    0  0.00000000000E+00  0.00000000000E+00  0.14008212228E+04  0.14008212228E+04  0.00000000000E+00 0. -1.
          1   -1    0    0  501    0 -0.00000000000E+00 -0.00000000000E+00 -0.49629026109E+03  0.49629026109E+03  0.00000000000E+00 0. -1.
         25    2    1    2    0    0  0.33369884165E+02 -0.56636899786E+01  0.43761969474E+03  0.45637858038E+03  0.12499913938E+03 0.  0.
          2    1    1    2  501    0 -0.84561660265E+02 -0.46579456680E+02 -0.48070216218E+03  0.49030081471E+03  0.00000000000E+00 0. -1.
          1    1    1    2  502    0  0.51191776100E+02  0.52243146659E+02  0.94761342914E+03  0.95043208879E+03  0.00000000000E+00 0. -1.
         22    1    3    3    0    0  0.68305535564E+01  0.42088435768E+02  0.35358519015E+03  0.35614685114E+03  0.00000000000E+00 0.  1.
         22    1    3    3    0    0  0.26539330609E+02 -0.47752125747E+02  0.84034504599E+02  0.10023172924E+03  0.00000000000E+00 0.  1.
</event>
<event>
 7    1  0.6278987E-006  0.6440544E+02  0.7818608E-02  0.1473654E+00
          2   -1    0    0  502    0  0.00000000000E+00  0.00000000000E+00  0.19705986426E+03  0.19705986426E+03  0.00000000000E+00 0. -1.
          1   -1    0    0  501    0 -0.00000000000E+00 -0.00000000000E+00 -0.19940333103E+04  0.19940333103E+04  0.00000000000E+00 0. -1.
         25    2    1    2    0    0  0.30951882070E+02 -0.53360836947E+02  0.93856891168E+02  0.16804818490E+03  0.12500271400E+03 0.  0.
          2    1    1    2  501    0 -0.13595712527E+01  0.64433216300E+02 -0.19526001016E+04  0.19536633908E+04  0.00000000000E+00 0. -1.
          1    1    1    2  502    0 -0.29592310818E+02 -0.11072379353E+02  0.61769764477E+02  0.69381598768E+02  0.00000000000E+00 0. -1.
         22    1    3    3    0    0  0.19558420858E+02 -0.16864699895E+02 -0.29321272955E+02  0.39072841933E+02  0.00000000000E+00 0.  1.
         22    1    3    3    0    0  0.11393461212E+02 -0.36496137051E+02  0.12317816412E+03  0.12897534297E+03  0.00000000000E+00 0.  1.
</event>
<event>
 7    1  0.6278987E-006  0.3482072E+02  0.7818608E-02  0.1589914E+00
          2   -1    0    0  502    0  0.00000000000E+00  0.00000000000E+00  0.28430654179E+03  0.28430654179E+03  0.00000000000E+00 0. -1.
          1   -1    0    0  501    0 -0.00000000000E+00 -0.00000000000E+00 -0.34927661498E+03  0.34927661498E+03  0.00000000000E+00 0. -1.
         25    2    1    2    0    0  0.57277410975E+02 -0.18433165613E+02 -0.15334223505E+03  0.20677993234E+03  0.12499446374E+03 0.  0.
          2    1    1    2  501    0 -0.30702121628E+02  0.12827338964E+02 -0.16685227352E+03  0.17013771503E+03  0.00000000000E+00 0. -1.
          1    1    1    2  502    0 -0.26575289348E+02  0.56058266486E+01  0.25522443538E+03  0.25666550939E+03  0.00000000000E+00 0. -1.
         22    1    3    3    0    0 -0.13967255947E+01  0.17895436801E+02 -0.13387975178E+03  0.13507770148E+03  0.00000000000E+00 0. -1.
         22    1    3    3    0    0  0.58674136570E+02 -0.36328602414E+02 -0.19462483275E+02  0.71702230863E+02  0.00000000000E+00 0. -1.
</event>
<event>
 7    1  0.6278987E-006  0.1739769E+03  0.7818608E-02  0.1205191E+00
          2   -1    0    0  502    0  0.00000000000E+00  0.00000000000E+00  0.10132394715E+04  0.10132394715E+04  0.00000000000E+00 0. -1.
          1   -1    0    0  501    0 -0.00000000000E+00 -0.00000000000E+00 -0.20473945238E+04  0.20473945238E+04  0.00000000000E+00 0. -1.
         25    2    1    2    0    0  0.63880853563E+02 -0.44048850442E+02 -0.19210761377E+03  0.24197177844E+03  0.12499576640E+03 0.  0.
          2    1    1    2  501    0 -0.19226711347E+01 -0.12288327428E+03 -0.18202458286E+04  0.18243900001E+04  0.00000000000E+00 0. -1.
          1    1    1    2  502    0 -0.61958182428E+02  0.16693212472E+03  0.97819839009E+03  0.99427221676E+03  0.00000000000E+00 0. -1.
         22    1    3    3    0    0  0.11041610106E+02 -0.79260246761E+02 -0.80148873746E+02  0.11326052195E+03  0.00000000000E+00 0.  1.
         22    1    3    3    0    0  0.52839243456E+02  0.35211396318E+02 -0.11195874002E+03  0.12871125649E+03  0.00000000000E+00 0.  1.
</event>
<event>
 7    1  0.6278987E-006  0.8529687E+02  0.7818608E-02  0.1449420E+00
          2   -1    0    0  502    0  0.00000000000E+00  0.00000000000E+00  0.84047515906E+02  0.84047515906E+02  0.00000000000E+00 0. -1.
          1   -1    0    0  501    0 -0.00000000000E+00 -0.00000000000E+00 -0.47489744864E+03  0.47489744864E+03  0.00000000000E+00 0. -1.
         25    2    1    2    0    0 -0.70315637809E+02  0.39385278258E+02 -0.75390542124E+02  0.16673960655E+03  0.12499149366E+03 0.  0.
          2    1    1    2  501    0  0.85005532004E+02 -0.15034446662E+02 -0.34235030748E+03  0.35306615257E+03  0.00000000000E+00 0. -1.
          1    1    1    2  502    0 -0.14689894194E+02 -0.24350831596E+02  0.26890916873E+02  0.39139205423E+02  0.00000000000E+00 0. -1.
         22    1    3    3    0    0 -0.79072525671E+02 -0.25524051718E+02 -0.38622264590E+02  0.91627620585E+02  0.00000000000E+00 0. -1.
         22    1    3    3    0    0  0.87568878615E+01  0.64909329977E+02 -0.36768277534E+02  0.75111985967E+02  0.00000000000E+00 0. -1.
</event>
<event>
 7    1  0.6278987E-006  0.8159509E+02  0.7818608E-02  0.1329288E+00
          2   -1    0    0  502    0  0.00000000000E+00  0.00000000000E+00  0.23638501376E+04  0.23638501376E+04  0.00000000000E+00 0. -1.
          1   -1    0    0  501    0 -0.00000000000E+00 -0.00000000000E+00 -0.27649168734E+02  0.27649168734E+02  0.00000000000E+00 0. -1.
         25    2    1    2    0    0  0.83440145701E+01  0.85986946594E+02  0.50624847897E+03  0.52856138098E+03  0.12500493368E+03 0.  0.
          2    1    1    2  501    0 -0.74568211743E+02 -0.38320246587E+02  0.97599379530E+02  0.12866428559E+03  0.00000000000E+00 0. -1.
          1    1    1    2  502    0  0.66224197173E+02 -0.47666700006E+02  0.17323531104E+04  0.17342736398E+04  0.00000000000E+00 0. -1.
         22    1    3    3    0    0  0.54960373532E+02  0.30307618477E+01  0.22567111097E+03  0.23228706056E+03  0.00000000000E+00 0. -1.
         22    1    3    3    0    0 -0.46616358962E+02  0.82956184746E+02  0.28057736800E+03  0.29627432043E+03  0.00000000000E+00 0. -1.
</event>
<event>
 7    1  0.6278987E-006  0.4482554E+02  0.7818608E-02  0.1537878E+00
          2   -1    0    0  502    0  0.00000000000E+00  0.00000000000E+00  0.84895887009E+03  0.84895887009E+03  0.00000000000E+00 0. -1.
          1   -1    0    0  501    0 -0.00000000000E+00 -0.00000000000E+00 -0.20304979216E+03  0.20304979216E+03  0.00000000000E+00 0. -1.
         25    2    1    2    0    0 -0.54300368404E+02 -0.10160407457E+02  0.61958069912E+02  0.15005549171E+03  0.12500433704E+03 0.  0.
          2    1    1    2  501    0  0.32982394779E+02  0.30253391537E+02 -0.15555580319E+03  0.16186634601E+03  0.00000000000E+00 0. -1.
          1    1    1    2  502    0  0.21317973626E+02 -0.20092984080E+02  0.73950681121E+03  0.74008682452E+03  0.00000000000E+00 0. -1.
         22    1    3    3    0    0 -0.85026060780E+02 -0.31751755045E+02  0.66091889818E+02  0.11227529942E+03  0.00000000000E+00 0. -1.
         22    1    3    3    0    0  0.30725692376E+02  0.21591347588E+02 -0.41338199067E+01  0.37780192293E+02  0.00000000000E+00 0. -1.
</event>
<event>
 7    1  0.6278987E-006  0.1098118E+03  0.7818608E-02  0.1379873E+00
          2   -1    0    0  502    0  0.00000000000E+00  0.00000000000E+00  0.55548166540E+03  0.55548166540E+03  0.00000000000E+00 0. -1.
          1   -1    0    0  501    0 -0.00000000000E+00 -0.00000000000E+00 -0.59236824590E+03  0.59236824590E+03  0.00000000000E+00 0. -1.
         25    2    1    2    0    0 -0.77977161024E+02 -0.26618787681E+01  0.21497069966E+03  0.26062407062E+03  0.12499992493E+03 0.  0.
          2    1    1    2  501    0  0.10888015856E+03 -0.19248121784E+02 -0.56301564669E+03  0.57376998662E+03  0.00000000000E+00 0. -1.
          1    1    1    2  502    0 -0.30902997537E+02  0.21910000553E+02  0.31115836653E+03  0.31345585406E+03  0.00000000000E+00 0. -1.
         22    1    3    3    0    0 -0.34316588999E+01  0.16383457468E+02  0.17137664676E+03  0.17219218628E+03  0.00000000000E+00 0.  1.
         22    1    3    3    0    0 -0.74545502125E+02 -0.19045336236E+02  0.43594052900E+02  0.88431884338E+02  0.00000000000E+00 0.  1.
</event>
<event>
 7    1  0.6278987E-006  0.6369984E+02  0.7818608E-02  0.1389680E+00
          2   -1    0    0  502    0  0.00000000000E+00  0.00000000000E+00  0.87358771159E+03  0.87358771159E+03  0.00000000000E+00 0. -1.
          1   -1    0    0  501    0 -0.00000000000E+00 -0.00000000000E+00 -0.11390591257E+03  0.11390591257E+03  0.00000000000E+00 0. -1.
         25    2    1    2    0    0 -0.11692995647E+02 -0.24139017074E+02  0.34532379055E+02  0.13242734159E+03  0.12500038922E+03 0.  0.
          2    1    1    2  501    0  0.71600203428E+02  0.24873099971E+01 -0.43477876050E+02  0.83803947089E+02  0.00000000000E+00 0. -1.
          1    1    1    2  502    0 -0.59907207781E+02  0.21651707077E+02  0.76862729601E+03  0.77126233549E+03  0.00000000000E+00 0. -1.
         22    1    3    3    0    0  0.52866132292E+02  0.82728250469E+01  0.29619242231E+01  0.53591422568E+02  0.00000000000E+00 0. -1.
         22    1    3    3    0    0 -0.64559127939E+02 -0.32411842121E+02  0.31570454832E+02  0.78835919023E+02  0.00000000000E+00 0. -1.
</event>
<event>
 7    1  0.6278987E-006  0.5617345E+02  0.7818608E-02  0.1446117E+00
          2   -1    0    0  502    0  0.00000000000E+00  0.00000000000E+00  0.14479302215E+04  0.14479302215E+04  0.00000000000E+00 0. -1.
          1   -1    0    0  501    0 -0.00000000000E+00 -0.00000000000E+00 -0.16045055481E+04  0.16045055481E+04  0.00000000000E+00 0. -1.
         25    2    1    2    0    0 -0.29788776778E+02 -0.34030605830E+02 -0.24775318850E+02  0.13521128942E+03  0.12499129173E+03 0.  0.
          2    1    1    2  501    0 -0.87673313965E+01  0.55744394271E+02 -0.15236383241E+04  0.15246829330E+04  0.00000000000E+00 0. -1.
          1    1    1    2  502    0  0.38556108174E+02 -0.21713788441E+02  0.13918383163E+04  0.13925415472E+04  0.00000000000E+00 0. -1.
         22    1    3    3    0    0  0.67049745016E+01 -0.49203601630E+02  0.36963926982E+02  0.61905435903E+02  0.00000000000E+00 0.  1.
         22    1    3    3    0    0 -0.36493751279E+02  0.15172995800E+02 -0.61739245832E+02  0.73305853517E+02  0.00000000000E+00 0.  1.
</event>
<event>
 7    1  0.6278987E-006  0.5013707E+02  0.7818608E-02  0.1448513E+00
          2   -1    0    0  502    0  0.00000000000E+00  0.00000000000E+00  0.99548922896E+03  0.99548922896E+03  0.00000000000E+00 0. -1.
          1   -1    0    0  501    0 -0.00000000000E+00 -0.00000000000E+00 -0.11838682249E+04  0.11838682249E+04  0.00000000000E+00 0. -1.
         25    2    1    2    0    0  0.28758241669E+01 -0.20417548371E+02  0.58944110615E+03  0.60290235998E+03  0.12500116563E+03 0.  0.
          2    1    1    2  501    0  0.43963548374E+02 -0.20965758180E+02 -0.11741838727E+04  0.11751936536E+04  0.00000000000E+00 0. -1.
          1    1    1    2  502    0 -0.46839372541E+02  0.41383306551E+02  0.39636377055E+03  0.40126144032E+03  0.00000000000E+00 0. -1.
         22    1    3    3    0    0 -0.14552116846E+02 -0.58153771146E+02  0.50743283862E+03  0.51096155522E+03  0.00000000000E+00 0. -1.
         22    1    3    3    0    0  0.17427941013E+02  0.37736222775E+02  0.82008267532E+02  0.91940804765E+02  0.00000000000E+00 0. -1.
</event>
<event>
 7    1  0.6278987E-006  0.5220183E+02  0.7818608E-02  0.1515459E+00
          2   -1    0    0  502    0  0.00000000000E+00  0.00000000000E+00  0.40463376764E+03  0.40463376764E+03  0.00000000000E+00 0. -1.
          1   -1    0    0  501    0 -0.00000000000E+00 -0.00000000000E+00 -0.73554344080E+03  0.73554344080E+03  0.00000000000E+00 0. -1.
         25    2    1    2    0    0 -0.44408234127E+02 -0.48975330290E+02 -0.16968948664E+03  0.22088472006E+03  0.12499945379E+03 0.  0.
          2    1    1    2  501    0 -0.37218574950E+01  0.28946372713E+02 -0.53806652885E+03  0.53885743401E+03  0.00000000000E+00 0. -1.
          1    1    1    2  502    0  0.48130091623E+02  0.20028957577E+02  0.37684634233E+03  0.38043505437E+03  0.00000000000E+00 0. -1.
         22    1    3    3    0    0 -0.47278477611E+02 -0.77748947969E+02 -0.16902285318E+03  0.19196061641E+03  0.00000000000E+00 0.  1.
         22    1    3    3    0    0  0.28702434839E+01  0.28773617678E+02 -0.66663345365E+00  0.28924103653E+02  0.00000000000E+00 0.  1.
</event>
<event>
 7    1  0.6278987E-006  0.8331306E+02  0.7818608E-02  0.1392135E+00
          2   -1    0    0  502    0  0.00000000000E+00  0.00000000000E+00  0.17416589814E+04  0.17416589814E+04  0.00000000000E+00 0. -1.
          1   -1    0    0  501    0 -0.00000000000E+00 -0.00000000000E+00 -0.73069833518E+02  0.73069833518E+02  0.00000000000E+00 0. -1.
         25    2    1    2    0    0 -0.33361212432E+02  0.36006610787E+02  0.81502233369E+02  0.15709066508E+03  0.12500166597E+03 0.  0.
          2    1    1    2  501    0 -0.44994819080E+02 -0.44992708586E+01 -0.19204375601E+02  0.49128252813E+02  0.00000000000E+00 0. -1.
          1    1    1    2  502    0  0.78356031512E+02 -0.31507339928E+02  0.16062912902E+04  0.16085098971E+04  0.00000000000E+00 0. -1.
         22    1    3    3    0    0 -0.71166372504E+02  0.96565360803E+01  0.84517129831E+02  0.11091008295E+03  0.00000000000E+00 0. -1.
         22    1    3    3    0    0  0.37805160072E+02  0.26350074707E+02 -0.30148964621E+01  0.46180582129E+02  0.00000000000E+00 0. -1.
</event>
<event>
 7    1  0.6278987E-006  0.2576255E+03  0.7818608E-02  0.1139826E+00
          2   -1    0    0  502    0  0.00000000000E+00  0.00000000000E+00  0.34734263080E+04  0.34734263080E+04  0.00000000000E+00 0. -1.
          1   -1    0    0  501    0 -0.00000000000E+00 -0.00000000000E+00 -0.14832976366E+04  0.14832976366E+04  0.00000000000E+00 0. -1.
         25    2    1    2    0    0  0.62354773420E+02 -0.13541061665E+03 -0.30258062957E+03  0.35972698623E+03  0.12499725742E+03 0.  0.
          2    1    1    2  501    0 -0.13173342002E+03 -0.11490440436E+03 -0.11405790795E+04  0.11538965953E+04  0.00000000000E+00 0. -1.
          1    1    1    2  502    0  0.69378646604E+02  0.25031502101E+03  0.34332883805E+04  0.34431003630E+04  0.00000000000E+00 0. -1.
         22    1    3    3    0    0  0.72317463019E+02 -0.15155743346E+03 -0.23045291254E+03  0.28514560490E+03  0.00000000000E+00 0.  1.
         22    1    3    3    0    0 -0.99626895989E+01  0.16146816814E+02 -0.72127717029E+02  0.74581381330E+02  0.00000000000E+00 0.  1.
</event>
<event>
 7    1  0.6278987E-006  0.1495822E+03  0.7818608E-02  0.1349139E+00
          2   -1    0    0  502    0  0.00000000000E+00  0.00000000000E+00  0.27034533881E+03  0.27034533881E+03  0.00000000000E+00 0. -1.
          1   -1    0    0  501    0 -0.00000000000E+00 -0.00000000000E+00 -0.28491351180E+03  0.28491351180E+03  0.00000000000E+00 0. -1.
         25    2    1    2    0    0  0.13090733692E+03  0.40562511938E+02 -0.28556775875E+02  0.18767767630E+03  0.12500148999E+03 0.  0.
          2    1    1    2  501    0  0.27857645707E+01  0.35835349080E+02 -0.14313857892E+03  0.14758247018E+03  0.00000000000E+00 0. -1.
          1    1    1    2  502    0 -0.13369310149E+03 -0.76397861018E+02  0.15712718181E+03  0.21999870413E+03  0.00000000000E+00 0. -1.
         22    1    3    3    0    0  0.14204607139E+02 -0.34977359287E+02 -0.30676965805E+02  0.48644246912E+02  0.00000000000E+00 0. -1.
         22    1    3    3    0    0  0.11670272978E+03  0.75539871225E+02  0.21201899295E+01  0.13903342939E+03  0.00000000000E+00 0. -1.
</event>
<event>
 7    1  0.6278987E-006  0.9296344E+02  0.7818608E-02  0.1303588E+00
          2   -1    0    0  502    0  0.00000000000E+00  0.00000000000E+00  0.43659846860E+03  0.43659846860E+03  0.00000000000E+00 0. -1.
          1   -1    0    0  501    0 -0.00000000000E+00 -0.00000000000E+00 -0.69705943418E+03  0.69705943418E+03  0.00000000000E+00 0. -1.
         25    2    1    2    0    0  0.10651903071E+03 -0.13841578452E+03 -0.65258830043E+02  0.22447475162E+03  0.12499986364E+03 0.  0.
          2    1    1    2  501    0 -0.42595453785E+02  0.75336454243E+02 -0.54306344847E+03  0.54991623279E+03  0.00000000000E+00 0. -1.
          1    1    1    2  502    0 -0.63923576921E+02  0.63079330280E+02  0.34786131294E+03  0.35926691837E+03  0.00000000000E+00 0. -1.
         22    1    3    3    0    0  0.11829720180E+03 -0.11264546121E+03 -0.11559409438E+02  0.16375850461E+03  0.00000000000E+00 0.  1.
         22    1    3    3    0    0 -0.11778171097E+02 -0.25770323317E+02 -0.53699420605E+02  0.60716247015E+02  0.00000000000E+00 0.  1.
</event>
<event>
 7    1  0.6278987E-006  0.8142463E+02  0.7818608E-02  0.1376923E+00
          2   -1    0    0  502    0  0.00000000000E+00  0.00000000000E+00  0.47170451889E+03  0.47170451889E+03  0.00000000000E+00 0. -1.
          1   -1    0    0  501    0 -0.00000000000E+00 -0.00000000000E+00 -0.54568646652E+03  0.54568646652E+03  0.00000000000E+00 0. -1.
         25    2    1    2    0    0 -0.96028767261E+00 -0.59509882565E+02 -0.57514135887E+02  0.14990621705E+03  0.12498659851E+03 0.  0.
          2    1    1    2  501    0  0.52030872512E+02 -0.56422974616E+01 -0.43637145908E+03  0.43949868887E+03  0.00000000000E+00 0. -1.
          1    1    1    2  502    0 -0.51070584839E+02  0.65152180027E+02  0.41990364734E+03  0.42798607950E+03  0.00000000000E+00 0. -1.
         22    1    3    3    0    0 -0.46207915839E+02 -0.58874529932E+02  0.23305247518E+01  0.74878655881E+02  0.00000000000E+00 0.  1.
         22    1    3    3    0    0  0.45247628166E+02 -0.63535263299E+00 -0.59844660639E+02  0.75027561167E+02  0.00000000000E+00 0.  1.
</event>
<event>
 7    1  0.6278987E-006  0.1492049E+03  0.7818608E-02  0.1327191E+00
          2   -1    0    0  502    0  0.00000000000E+00  0.00000000000E+00  0.27693782035E+04  0.27693782035E+04  0.00000000000E+00 0. -1.
          1   -1    0    0  501    0 -0.00000000000E+00 -0.00000000000E+00 -0.17003717807E+03  0.17003717807E+03  0.00000000000E+00 0. -1.
         25    2    1    2    0    0  0.93343914870E+02  0.59358445622E+02  0.73297417365E+03  0.75174005419E+03  0.12500183326E+03 0.  0.
          2    1    1    2  501    0 -0.13664600911E+03 -0.64478084976E+02 -0.12483678233E+03  0.19599433020E+03  0.00000000000E+00 0. -1.
          1    1    1    2  502    0  0.43302094237E+02  0.51196393539E+01  0.19912036341E+04  0.19916809972E+04  0.00000000000E+00 0. -1.
         22    1    3    3    0    0  0.90475611015E+02  0.24160067490E+02  0.24184028495E+03  0.25933813540E+03  0.00000000000E+00 0. -1.
         22    1    3    3    0    0  0.28683038546E+01  0.35198378133E+02  0.49113388870E+03  0.49240191879E+03  0.00000000000E+00 0. -1.
</event>
<event>
 7    1  0.6278987E-006  0.4598480E+02  0.7818608E-02  0.1559549E+00
          2   -1    0    0  502    0  0.00000000000E+00  0.00000000000E+00  0.35283304292E+03  0.35283304292E+03  0.00000000000E+00 0. -1.
          1   -1    0    0  501    0 -0.00000000000E+00 -0.00000000000E+00 -0.16099436352E+03  0.16099436352E+03  0.00000000000E+00 0. -1.
         25    2    1    2    0    0 -0.54914678792E+02  0.54169497713E+01 -0.85207789820E+01  0.13690366634E+03  0.12500017957E+03 0.  0.
          2    1    1    2  501    0  0.12020156938E+02 -0.21737713604E+02 -0.84662088071E+02  0.88230842239E+02  0.00000000000E+00 0. -1.
          1    1    1    2  502    0  0.42894521854E+02  0.16320763832E+02  0.28502154645E+03  0.28869289787E+03  0.00000000000E+00 0. -1.
         22    1    3    3    0    0 -0.20318355843E+01 -0.13376870894E+01 -0.61614769367E+02  0.61662772941E+02  0.00000000000E+00 0. -1.
         22    1    3    3    0    0 -0.52882843207E+02  0.67546368607E+01  0.53093990385E+02  0.75240893402E+02  0.00000000000E+00 0. -1.
</event>
<event>
 7    1  0.6278987E-006  0.4673263E+02  0.7818608E-02  0.1486304E+00
          2   -1    0    0  502    0  0.00000000000E+00  0.00000000000E+00  0.12880924047E+04  0.12880924047E+04  0.00000000000E+00 0. -1.
          1   -1    0    0  501    0 -0.00000000000E+00 -0.00000000000E+00 -0.71340953564E+02  0.71340953564E+02  0.00000000000E+00 0. -1.
         25    2    1    2    0    0  0.58211545738E+02  0.45275198125E+02  0.54846465616E+03  0.56734383156E+03  0.12500846583E+03 0.  0.
          2    1    1    2  501    0 -0.13616142007E+02 -0.37421999911E+02 -0.54714365095E+02  0.67671760345E+02  0.00000000000E+00 0. -1.
          1    1    1    2  502    0 -0.44595403731E+02 -0.78531982141E+01  0.72300116004E+03  0.72441776633E+03  0.00000000000E+00 0. -1.
         22    1    3    3    0    0 -0.40877919258E+01  0.75620236659E+02  0.29753162421E+03  0.30701823666E+03  0.00000000000E+00 0.  1.
         22    1    3    3    0    0  0.62299337663E+02 -0.30345038534E+02  0.25093303195E+03  0.26032559490E+03  0.00000000000E+00 0.  1.
</event>
<event>
 7    1  0.6278987E-006  0.7689714E+02  0.7818608E-02  0.1361503E+00
          2   -1    0    0  502    0  0.00000000000E+00  0.00000000000E+00  0.53110778590E+03  0.53110778590E+03  0.00000000000E+00 0. -1.
          1   -1    0    0  501    0 -0.00000000000E+00 -0.00000000000E+00 -0.51771571050E+03  0.51771571050E+03  0.00000000000E+00 0. -1.
         25    2    1    2    0    0  0.89310999187E+02  0.45642251700E+02  0.11494346836E+03  0.19722088686E+03  0.12499763029E+03 0.  0.
          2    1    1    2  501    0 -0.58103184364E+02  0.24278452779E+02 -0.47054927550E+03  0.47474418793E+03  0.00000000000E+00 0. -1.
          1    1    1    2  502    0 -0.31207814824E+02 -0.69920704479E+02  0.36899788254E+03  0.37685842161E+03  0.00000000000E+00 0. -1.
         22    1    3    3    0    0 -0.17421890450E+02 -0.92448977119E+01 -0.11545425255E+02  0.22853604636E+02  0.00000000000E+00 0.  1.
         22    1    3    3    0    0  0.10673288964E+03  0.54887149412E+02  0.12648889362E+03  0.17436728222E+03  0.00000000000E+00 0.  1.
</event>
<event>
 7    1  0.6278987E-006  0.8753222E+02  0.7818608E-02  0.1342380E+00
          2   -1    0    0  502    0  0.00000000000E+00  0.00000000000E+00  0.41475920308E+04  0.41475920308E+04  0.00000000000E+00 0. -1.
          1   -1    0    0  501    0 -0.00000000000E+00 -0.00000000000E+00 -0.25071788152E+03  0.25071788152E+03  0.00000000000E+00 0. -1.
         25    2    1    2    0    0  0.73558430459E+02 -0.12987581287E+03  0.14025438660E+03  0.23994590242E+03  0.12499669463E+03 0.  0.
          2    1    1    2  501    0 -0.36435972046E+02  0.76405570412E+02 -0.19167407457E+03  0.20953363002E+03  0.00000000000E+00 0. -1.
          1    1    1    2  502    0 -0.37122458413E+02  0.53470242456E+02  0.39482938373E+04  0.39488303799E+04  0.00000000000E+00 0. -1.
         22    1    3    3    0    0 -0.85085142671E+01 -0.14607994205E+02  0.87208053285E+02  0.88831485789E+02  0.00000000000E+00 0. -1.
         22    1    3    3    0    0  0.82066944726E+02 -0.11526781866E+03  0.53046333314E+02  0.15111441663E+03  0.00000000000E+00 0. -1.
</event>
<event>
 7    1  0.6278987E-006  0.7199209E+02  0.7818608E-02  0.1392341E+00
          2   -1    0    0  502    0  0.00000000000E+00  0.00000000000E+00  0.79929968797E+02  0.79929968797E+02  0.00000000000E+00 0. -1.
          1   -1    0    0  501    0 -0.00000000000E+00 -0.00000000000E+00 -0.47135559811E+03  0.47135559811E+03  0.00000000000E+00 0. -1.
         25    2    1    2    0    0  0.96734526936E+02  0.64317677347E+02 -0.12751263442E+03  0.21302174327E+03  0.12499783538E+03 0.  0.
          2    1    1    2  501    0 -0.63650307694E+02 -0.23884360987E+02 -0.27632554237E+03  0.28456568615E+03  0.00000000000E+00 0. -1.
          1    1    1    2  502    0 -0.33084219242E+02 -0.40433316360E+02  0.12412547474E+02  0.53698137487E+02  0.00000000000E+00 0. -1.
         22    1    3    3    0    0 -0.82407632769E+01  0.44481671997E+01 -0.84089541347E+02  0.84609380891E+02  0.00000000000E+00 0.  1.
         22    1    3    3    0    0  0.10497529021E+03  0.59869510147E+02 -0.43423093076E+02  0.12841236238E+03  0.00000000000E+00 0.  1.
</event>
<event>
 7    1  0.6278987E-006  0.9963471E+02  0.7818608E-02  0.1358147E+00
          2   -1    0    0  502    0  0.00000000000E+00  0.00000000000E+00  0.30848984988E+04  0.30848984988E+04  0.00000000000E+00 0. -1.
          1   -1    0    0  501    0 -0.00000000000E+00 -0.00000000000E+00 -0.38033783690E+03  0.38033783690E+03  0.00000000000E+00 0. -1.
         25    2    1    2    0    0  0.17497794612E+02  0.93296173733E+02  0.22646348286E+03  0.27554037586E+03  0.12500576311E+03 0.  0.
          2    1    1    2  501    0 -0.49967988159E+02  0.15356488342E+01 -0.35315207696E+03  0.35667288587E+03  0.00000000000E+00 0. -1.
          1    1    1    2  502    0  0.32470193547E+02 -0.94831822568E+02  0.28312492560E+04  0.28330230740E+04  0.00000000000E+00 0. -1.
         22    1    3    3    0    0  0.52808120413E+02  0.92050404152E+02  0.10596442349E+03  0.14996810838E+03  0.00000000000E+00 0. -1.
         22    1    3    3    0    0 -0.35310325801E+02  0.12457695814E+01  0.12049905937E+03  0.12557226748E+03  0.00000000000E+00 0. -1.
</event>
<event>
 7    1  0.6278987E-006  0.5258880E+02  0.7818608E-02  0.1507135E+00
          2   -1    0    0  502    0  0.00000000000E+00  0.00000000000E+00  0.57609463024E+03  0.57609463024E+03  0.00000000000E+00 0. -1.
          1   -1    0    0  501    0 -0.00000000000E+00 -0.00000000000E+00 -0.12136665397E+03  0.12136665397E+03  0.00000000000E+00 0. -1.
         25    2    1    2    0    0 -0.42908690224E+02  0.16078637417E+02 -0.16407125026E+02  0.13413996028E+03  0.12499862765E+03 0.  0.
          2    1    1    2  501    0  0.13212740538E+02  0.27653808565E+02 -0.39478562416E+02  0.49978660757E+02  0.00000000000E+00 0. -1.
          1    1    1    2  502    0  0.29695949686E+02 -0.43732445982E+02  0.51061366372E+03  0.51334266317E+03  0.00000000000E+00 0. -1.
         22    1    3    3    0    0 -0.32466314519E+02 -0.49838801247E+02 -0.29078585264E+02  0.66208245779E+02  0.00000000000E+00 0. -1.
         22    1    3    3    0    0 -0.10442375704E+02  0.65917438664E+02  0.12671460238E+02  0.67931714500E+02  0.00000000000E+00 0. -1.
</event>
<event>
 7    1  0.6278987E-006  0.3412955E+02  0.7818608E-02  0.1626662E+00
          2   -1    0    0  502    0  0.00000000000E+00  0.00000000000E+00  0.36489016420E+03  0.36489016420E+03  0.00000000000E+00 0. -1.
          1   -1    0    0  501    0 -0.00000000000E+00 -0.00000000000E+00 -0.21495497537E+03  0.21495497537E+03  0.00000000000E+00 0. -1.
         25    2    1    2    0    0  0.22230087898E+02 -0.13150676894E+02  0.14134061772E+03  0.19044429677E+03  0.12499897136E+03 0.  0.
          2    1    1    2  501    0 -0.11080908641E+02  0.32423121809E+02 -0.18822884816E+03  0.19132209659E+03  0.00000000000E+00 0. -1.
          1    1    1    2  502    0 -0.11149179257E+02 -0.19272444915E+02  0.19682341927E+03  0.19807874622E+03  0.00000000000E+00 0. -1.
         22    1    3    3    0    0  0.33618683623E+02  0.50432584874E+02  0.87003355927E+02  0.10603417113E+03  0.00000000000E+00 0. -1.
         22    1    3    3    0    0 -0.11388595725E+02 -0.63583261769E+02  0.54337261797E+02  0.84410125632E+02  0.00000000000E+00 0. -1.
</event>
<event>
 7    1  0.6278987E-006  0.6448119E+02  0.7818608E-02  0.1529371E+00
          2   -1    0    0  502    0  0.00000000000E+00  0.00000000000E+00  0.49218571975E+03  0.49218571975E+03  0.00000000000E+00 0. -1.
          1   -1    0    0  501    0 -0.00000000000E+00 -0.00000000000E+00 -0.35822255446E+03  0.35822255446E+03  0.00000000000E+00 0. -1.
         25    2    1    2    0    0  0.46583783792E+02  0.10863742583E+02  0.29565624574E+02  0.13706763017E+03  0.12500135707E+03 0.  0.
          2    1    1    2  501    0 -0.65230170016E+02 -0.91074679439E-01 -0.30068852688E+03  0.30768258575E+03  0.00000000000E+00 0. -1.
          1    1    1    2  502    0  0.18646386223E+02 -0.10772667903E+02  0.40508606760E+03  0.40565805829E+03  0.00000000000E+00 0. -1.
         22    1    3    3    0    0 -0.41939280556E+02  0.16435167243E+02  0.74841834629E+01  0.45662139437E+02  0.00000000000E+00 0.  1.
         22    1    3    3    0    0  0.88523064348E+02 -0.55714246607E+01  0.22081441111E+02  0.91405490732E+02  0.00000000000E+00 0.  1.
</event>
<event>
 7    1  0.6278987E-006  0.1909323E+03  0.7818608E-02  0.1193771E+00
          2   -1    0    0  502    0  0.00000000000E+00  0.00000000000E+00  0.20130357197E+04  0.20130357197E+04  0.00000000000E+00 0. -1.
          1   -1    0    0  501    0 -0.00000000000E+00 -0.00000000000E+00 -0.66998819784E+03  0.66998819784E+03  0.00000000000E+00 0. -1.
         25    2    1    2    0    0 -0.99124021174E+02 -0.14997366930E+03  0.46439268419E+03  0.51342297981E+03  0.12499967204E+03 0.  0.
          2    1    1    2  501    0  0.11562211658E+03 -0.52019424499E+02 -0.63241612441E+03  0.64499972774E+03  0.00000000000E+00 0. -1.
          1    1    1    2  502    0 -0.16498095407E+02  0.20199309380E+03  0.15110709621E+04  0.15246012100E+04  0.00000000000E+00 0. -1.
         22    1    3    3    0    0 -0.58087733878E+02 -0.84418653585E+02  0.39959848872E+03  0.41252835791E+03  0.00000000000E+00 0.  1.
         22    1    3    3    0    0 -0.41036287296E+02 -0.65555015712E+02  0.64794195479E+02  0.10089462190E+03  0.00000000000E+00 0.  1.
</event>
<event>
 7    1  0.6278987E-006  0.1372363E+03  0.7818608E-02  0.1291750E+00
          2   -1    0    0  502    0  0.00000000000E+00  0.00000000000E+00  0.17339682397E+04  0.17339682397E+04  0.00000000000E+00 0. -1.
          1   -1    0    0  501    0 -0.00000000000E+00 -0.00000000000E+00 -0.21452340459E+03  0.21452340459E+03  0.00000000000E+00 0. -1.
         25    2    1    2    0    0 -0.86453383986E+02  0.18085901116E+03  0.81817630255E+03  0.85159910319E+03  0.12499760392E+03 0.  0.
          2    1    1    2  501    0  0.52844163289E+02 -0.12474297213E+03 -0.17325107064E+03  0.21993009837E+03  0.00000000000E+00 0. -1.
          1    1    1    2  502    0  0.33609220697E+02 -0.56116039024E+02  0.87451960322E+03  0.87696244274E+03  0.00000000000E+00 0. -1.
         22    1    3    3    0    0 -0.59346354668E+02  0.76036143199E+01  0.24478390757E+03  0.25199001204E+03  0.00000000000E+00 0.  1.
         22    1    3    3    0    0 -0.27107029318E+02  0.17325539684E+03  0.57339239498E+03  0.59960909115E+03  0.00000000000E+00 0.  1.
</event>
<event>
 7    1  0.6278987E-006  0.1760653E+03  0.7818608E-02  0.1307932E+00
          2   -1    0    0  502    0  0.00000000000E+00  0.00000000000E+00  0.36565798718E+03  0.36565798718E+03  0.00000000000E+00 0. -1.
          1   -1    0    0  501    0 -0.00000000000E+00 -0.00000000000E+00 -0.71115267964E+03  0.71115267964E+03  0.00000000000E+00 0. -1.
         25    2    1    2    0    0 -0.57660876531E+02  0.19070733012E+03 -0.36720729411E+03  0.43607367476E+03  0.12499996211E+03 0.  0.
          2    1    1    2  501    0  0.67033274771E+02 -0.14780092696E+03 -0.28657414970E+03  0.32933769479E+03  0.00000000000E+00 0. -1.
          1    1    1    2  502    0 -0.93723982401E+01 -0.42906403165E+02  0.30828675134E+03  0.31139929726E+03  0.00000000000E+00 0. -1.
         22    1    3    3    0    0  0.24847935487E+02  0.12604328597E+03 -0.17437784485E+03  0.21659169561E+03  0.00000000000E+00 0.  1.
         22    1    3    3    0    0 -0.82508812018E+02  0.64664044157E+02 -0.19282944926E+03  0.21948197914E+03  0.00000000000E+00 0.  1.
</event>
<event>
 7    1  0.6278987E-006  0.1098080E+03  0.7818608E-02  0.1270759E+00
          2   -1    0    0  502    0  0.00000000000E+00  0.00000000000E+00  0.14739215522E+03  0.14739215522E+03  0.00000000000E+00 0. -1.
          1   -1    0    0  501    0 -0.00000000000E+00 -0.00000000000E+00 -0.71111086553E+03  0.71111086553E+03  0.00000000000E+00 0. -1.
         25    2    1    2    0    0  0.41885828442E+02 -0.15418383680E+03 -0.12356657115E+03  0.23753071833E+03  0.12500026596E+03 0.  0.
          2    1    1    2  501    0 -0.86118376094E+02  0.64739223808E+02 -0.49535518954E+03  0.50693619481E+03  0.00000000000E+00 0. -1.
          1    1    1    2  502    0  0.44232547652E+02  0.89444612992E+02  0.55203050386E+02  0.11403610760E+03  0.00000000000E+00 0. -1.
         22    1    3    3    0    0  0.75249767319E+02 -0.11695700471E+03 -0.48392236312E+02  0.14725242601E+03  0.00000000000E+00 0. -1.
         22    1    3    3    0    0 -0.33363938877E+02 -0.37226832093E+02 -0.75174334838E+02  0.90278292316E+02  0.00000000000E+00 0. -1.
</event>
<event>
 7    1  0.6278987E-006  0.6216672E+02  0.7818608E-02  0.1484029E+00
          2   -1    0    0  502    0  0.00000000000E+00  0.00000000000E+00  0.46714338558E+03  0.46714338558E+03  0.00000000000E+00 0. -1.
          1   -1    0    0  501    0 -0.00000000000E+00 -0.00000000000E+00 -0.21278538511E+03  0.21278538511E+03  0.00000000000E+00 0. -1.
         25    2    1    2    0    0 -0.66387508650E+02  0.63414741269E+02  0.17843087303E+03  0.23641098191E+03  0.12499538072E+03 0.  0.
          2    1    1    2  501    0  0.43543763139E+02 -0.43331139425E+02 -0.17772828207E+03  0.18804517861E+03  0.00000000000E+00 0. -1.
          1    1    1    2  502    0  0.22843745511E+02 -0.20083601844E+02  0.25365540950E+03  0.25547261016E+03  0.00000000000E+00 0. -1.
         22    1    3    3    0    0 -0.48368746343E+02  0.15459725469E+02  0.17808305681E+03  0.18518129997E+03  0.00000000000E+00 0. -1.
         22    1    3    3    0    0 -0.18018762307E+02  0.47955015799E+02  0.34781621764E+00  0.51229681938E+02  0.00000000000E+00 0. -1.
</event>
<event>
 7    1  0.6278987E-006  0.5208054E+02  0.7818608E-02  0.1478751E+00
          2   -1    0    0  502    0  0.00000000000E+00  0.00000000000E+00  0.63687365677E+03  0.63687365677E+03  0.00000000000E+00 0. -1.
          1   -1    0    0  501    0 -0.00000000000E+00 -0.00000000000E+00 -0.61238576874E+03  0.61238576874E+03  0.00000000000E+00 0. -1.
         25    2    1    2    0    0 -0.57831048459E+02  0.66137708092E+02  0.17844283841E+03  0.23491541509E+03  0.12499911629E+03 0.  0.
          2    1    1    2  501    0  0.23670427190E+02 -0.29322502594E+02 -0.58207231246E+03  0.58329090102E+03  0.00000000000E+00 0. -1.
          1    1    1    2  502    0  0.34160621269E+02 -0.36815205499E+02  0.42811736208E+03  0.43105310939E+03  0.00000000000E+00 0. -1.
         22    1    3    3    0    0 -0.34875395922E+02  0.77729398325E+02  0.18884662659E+03  0.20717432509E+03  0.00000000000E+00 0. -1.
         22    1    3    3    0    0 -0.22955652537E+02 -0.11591690233E+02 -0.10403788182E+02  0.27741090000E+02  0.00000000000E+00 0. -1.
</event>
<event>
 7    1  0.6278987E-006  0.3263050E+02  0.7818608E-02  0.1592891E+00
          2   -1    0    0  502    0  0.00000000000E+00  0.00000000000E+00  0.56549742746E+03  0.56549742746E+03  0.00000000000E+00 0. -1.
          1   -1    0    0  501    0 -0.00000000000E+00 -0.00000000000E+00 -0.36144870569E+03  0.36144870569E+03  0.00000000000E+00 0. -1.
         25    2    1    2    0    0  0.25837402115E+01 -0.21411164876E+02  0.11820112022E+03  0.17337435386E+03  0.12498819169E+03 0.  0.
          2    1    1    2  501    0 -0.28453963079E+02  0.71094522346E+00 -0.33259942551E+03  0.33381508550E+03  0.00000000000E+00 0. -1.
          1    1    1    2  502    0  0.25870222867E+02  0.20700219653E+02  0.41844702706E+03  0.41975669379E+03  0.00000000000E+00 0. -1.
         22    1    3    3    0    0 -0.12737730000E+02 -0.38205480892E+02  0.13767261237E+03  0.14344217208E+03  0.00000000000E+00 0. -1.
         22    1    3    3    0    0  0.15321470211E+02  0.16794316015E+02 -0.19471492145E+02  0.29932181782E+02  0.00000000000E+00 0. -1.
</event>
<event>
 7    1  0.6325297E-006  0.8435585E+02  0.7818608E-02  0.1405484E+00
          2   -1    0    0  502    0  0.00000000000E+00  0.00000000000E+00  0.91973097364E+03  0.91973097364E+03  0.00000000000E+00 0. -1.
          1   -1    0    0  501    0 -0.00000000000E+00 -0.00000000000E+00 -0.11603059259E+04  0.11603059259E+04  0.00000000000E+00 0. -1.
         25    2    1    2    0    0  0.57467777771E+02 -0.23263714801E+02 -0.16572552176E+03  0.21664233801E+03  0.12500083259E+03 0.  0.
          2    1    1    2  501    0 -0.86347807285E+02 -0.46619440870E+01 -0.96673996099E+03  0.97059972683E+03  0.00000000000E+00 0. -1.
          1    1    1    2  502    0  0.28880029514E+02  0.27925658888E+02  0.89189053048E+03  0.89279483471E+03  0.00000000000E+00 0. -1.
         22    1    3    3    0    0  0.86178014594E+02  0.10766377695E+02 -0.71747761502E+02  0.11265125995E+03  0.00000000000E+00 0.  1.
         22    1    3    3    0    0 -0.28710236823E+02 -0.34030092496E+02 -0.93977760255E+02  0.10399107806E+03  0.00000000000E+00 0.  1.
</event>
<event>
 7    1  0.6278987E-006  0.7545064E+02  0.7818608E-02  0.1393589E+00
          2   -1    0    0  502    0  0.00000000000E+00  0.00000000000E+00  0.88674309822E+03  0.88674309822E+03  0.00000000000E+00 0. -1.
          1   -1    0    0  501    0 -0.00000000000E+00 -0.00000000000E+00 -0.80752253434E+02  0.80752253434E+02  0.00000000000E+00 0. -1.
         25    2    1    2    0    0  0.32767362564E+02  0.29898692548E+02  0.10331415606E+03  0.16812895114E+03  0.12500358996E+03 0.  0.
          2    1    1    2  501    0 -0.81801240417E+02 -0.24286505872E+02 -0.91601635170E+01  0.85820661247E+02  0.00000000000E+00 0. -1.
          1    1    1    2  502    0  0.49033877852E+02 -0.56121866756E+01  0.71183685224E+03  0.71354573927E+03  0.00000000000E+00 0. -1.
         22    1    3    3    0    0  0.73852400309E+02  0.22346147243E+02  0.28144461180E+02  0.82131833190E+02  0.00000000000E+00 0.  1.
         22    1    3    3    0    0 -0.41085037745E+02  0.75525453044E+01  0.75169694884E+02  0.85997117952E+02  0.00000000000E+00 0.  1.
</event>
<event>
 7    1  0.6278987E-006  0.7050427E+02  0.7818608E-02  0.1422639E+00
          2   -1    0    0  502    0  0.00000000000E+00  0.00000000000E+00  0.16295165867E+04  0.16295165867E+04  0.00000000000E+00 0. -1.
          1   -1    0    0  501    0 -0.00000000000E+00 -0.00000000000E+00 -0.35442906248E+03  0.35442906248E+03  0.00000000000E+00 0. -1.
         25    2    1    2    0    0 -0.29465909549E+02 -0.28310909245E+02  0.26370278669E+02  0.13412786759E+03  0.12500058344E+03 0.  0.
          2    1    1    2  501    0  0.11594092893E+02 -0.40447999387E+02 -0.29825835273E+03  0.30121173387E+03  0.00000000000E+00 0. -1.
          1    1    1    2  502    0  0.17871816656E+02  0.68758908632E+02  0.15469755983E+04  0.15486060477E+04  0.00000000000E+00 0. -1.
         22    1    3    3    0    0 -0.50242971529E-01 -0.57379533895E+02 -0.29577943605E+02  0.64554381589E+02  0.00000000000E+00 0. -1.
         22    1    3    3    0    0 -0.29415666577E+02  0.29068624650E+02  0.55948222274E+02  0.69573486005E+02  0.00000000000E+00 0. -1.
</event>
<event>
 7    1  0.6278987E-006  0.7478891E+02  0.7818608E-02  0.1369662E+00
          2   -1    0    0  502    0  0.00000000000E+00  0.00000000000E+00  0.11645512204E+04  0.11645512204E+04  0.00000000000E+00 0. -1.
          1   -1    0    0  501    0 -0.00000000000E+00 -0.00000000000E+00 -0.11123875365E+03  0.11123875365E+03  0.00000000000E+00 0. -1.
         25    2    1    2    0    0 -0.68897155867E+02 -0.79344241721E+02  0.56635972022E+03  0.58943140254E+03  0.12499487524E+03 0.  0.
          2    1    1    2  501    0  0.86445329835E+01  0.73977926828E+02 -0.83968541427E+02  0.11224160351E+03  0.00000000000E+00 0. -1.
          1    1    1    2  502    0  0.60252622884E+02  0.53663148931E+01  0.57092128795E+03  0.57411696799E+03  0.00000000000E+00 0. -1.
         22    1    3    3    0    0 -0.41287241720E+02  0.36892173132E+01  0.39358373970E+03  0.39576054226E+03  0.00000000000E+00 0.  1.
         22    1    3    3    0    0 -0.27609914147E+02 -0.83033459034E+02  0.17277598052E+03  0.19367086028E+03  0.00000000000E+00 0.  1.
</event>
<event>
 7    1  0.6278987E-006  0.1568337E+03  0.7818608E-02  0.1343804E+00
          2   -1    0    0  502    0  0.00000000000E+00  0.00000000000E+00  0.40826354102E+03  0.40826354102E+03  0.00000000000E+00 0. -1.
          1   -1    0    0  501    0 -0.00000000000E+00 -0.00000000000E+00 -0.99820580775E+03  0.99820580775E+03  0.00000000000E+00 0. -1.
         25    2    1    2    0    0 -0.12525188435E+03  0.59781015362E+02 -0.46693459995E+03  0.50290781074E+03  0.12500616443E+03 0.  0.
          2    1    1    2  501    0  0.16112689386E+03 -0.58863144337E+02 -0.49807160871E+03  0.52678465533E+03  0.00000000000E+00 0. -1.
          1    1    1    2  502    0 -0.35875009517E+02 -0.91787102495E+00  0.37506394193E+03  0.37677688269E+03  0.00000000000E+00 0. -1.
         22    1    3    3    0    0 -0.84922634366E+01  0.65215187111E+02 -0.12039203503E+03  0.13718375001E+03  0.00000000000E+00 0.  1.
         22    1    3    3    0    0 -0.11675962091E+03 -0.54341717483E+01 -0.34654256491E+03  0.36572406073E+03  0.00000000000E+00 0.  1.
</event>
<event>
 7    1  0.6278987E-006  0.1138251E+03  0.7818608E-02  0.1439647E+00
          2   -1    0    0  502    0  0.00000000000E+00  0.00000000000E+00  0.35397127890E+03  0.35397127890E+03  0.00000000000E+00 0. -1.
          1   -1    0    0  501    0 -0.00000000000E+00 -0.00000000000E+00 -0.40423073596E+03  0.40423073596E+03  0.00000000000E+00 0. -1.
         25    2    1    2    0    0 -0.68179888834E+02  0.90195899452E+02 -0.12300351972E+03  0.20865754795E+03  0.12499723570E+03 0.  0.
          2    1    1    2  501    0 -0.17418533988E+02 -0.14889235913E+02 -0.22736105807E+03  0.22851289985E+03  0.00000000000E+00 0. -1.
          1    1    1    2  502    0  0.85598422822E+02 -0.75306663539E+02  0.30010512073E+03  0.32103156706E+03  0.00000000000E+00 0. -1.
         22    1    3    3    0    0 -0.31560195298E+02  0.11021197566E+03 -0.51087196511E+02  0.12550947037E+03  0.00000000000E+00 0. -1.
         22    1    3    3    0    0 -0.36619693536E+02 -0.20016076203E+02 -0.71916323212E+02  0.83148077582E+02  0.00000000000E+00 0. -1.
</event>
<event>
 7    1  0.6278987E-006  0.5379132E+02  0.7818608E-02  0.1453329E+00
          2   -1    0    0  502    0  0.00000000000E+00  0.00000000000E+00  0.20278399198E+04  0.20278399198E+04  0.00000000000E+00 0. -1.
          1   -1    0    0  501    0 -0.00000000000E+00 -0.00000000000E+00 -0.67124784604E+03  0.67124784604E+03  0.00000000000E+00 0. -1.
         25    2    1    2    0    0  0.75342872260E+02  0.60301745763E+02  0.20027975887E+03  0.25504985128E+03  0.12500238351E+03 0.  0.
          2    1    1    2  501    0 -0.37413750611E+02 -0.38361798740E+02 -0.64248061667E+03  0.64471137661E+03  0.00000000000E+00 0. -1.
          1    1    1    2  502    0 -0.37929121650E+02 -0.21939947023E+02  0.17987929316E+04  0.17993265380E+04  0.00000000000E+00 0. -1.
         22    1    3    3    0    0  0.17591419994E+02  0.81499530707E+02  0.62632534106E+02  0.10428070719E+03  0.00000000000E+00 0. -1.
         22    1    3    3    0    0  0.57751452266E+02 -0.21197784944E+02  0.13764722477E+03  0.15076914410E+03  0.00000000000E+00 0. -1.
</event>
<event>
 7    1  0.6278987E-006  0.1662456E+03  0.7818608E-02  0.1319423E+00
          2   -1    0    0  502    0  0.00000000000E+00  0.00000000000E+00  0.32745325937E+04  0.32745325937E+04  0.00000000000E+00 0. -1.
          1   -1    0    0  501    0 -0.00000000000E+00 -0.00000000000E+00 -0.62047563126E+02  0.62047563126E+02  0.00000000000E+00 0. -1.
         25    2    1    2    0    0  0.25878448002E+02 -0.12615548808E+03  0.17630036775E+03  0.25157795433E+03  0.12499898477E+03 0.  0.
          2    1    1    2  501    0  0.22580077296E+02 -0.35332918318E+02 -0.21559538899E+01  0.41987178337E+02  0.00000000000E+00 0. -1.
          1    1    1    2  502    0 -0.48458525298E+02  0.16148840640E+03  0.30383406167E+04  0.30430150241E+04  0.00000000000E+00 0. -1.
         22    1    3    3    0    0 -0.12877490358E+02 -0.17051795972E+02  0.12170932608E+03  0.12357084429E+03  0.00000000000E+00 0.  1.
         22    1    3    3    0    0  0.38755938360E+02 -0.10910369211E+03  0.54591041665E+02  0.12800711004E+03  0.00000000000E+00 0.  1.
</event>
<event>
 7    1  0.6278987E-006  0.4682866E+02  0.7818608E-02  0.1511287E+00
          2   -1    0    0  502    0  0.00000000000E+00  0.00000000000E+00  0.22759164473E+04  0.22759164473E+04  0.00000000000E+00 0. -1.
          1   -1    0    0  501    0 -0.00000000000E+00 -0.00000000000E+00 -0.45920186709E+03  0.45920186709E+03  0.00000000000E+00 0. -1.
         25    2    1    2    0    0  0.44621534391E+02 -0.52156086018E+02 -0.29297736373E+03  0.32584006501E+03  0.12499869467E+03 0.  0.
          2    1    1    2  501    0 -0.39015541215E+02  0.19167067436E+02 -0.14651281246E+03  0.15282536814E+03  0.00000000000E+00 0. -1.
          1    1    1    2  502    0 -0.56059931762E+01  0.32989018582E+02  0.22562047564E+04  0.22564528813E+04  0.00000000000E+00 0. -1.
         22    1    3    3    0    0  0.10519165931E+02 -0.33351763042E+02 -0.51007743094E+01  0.35341347575E+02  0.00000000000E+00 0. -1.
         22    1    3    3    0    0  0.34102368461E+02 -0.18804322976E+02 -0.28787658942E+03  0.29049871744E+03  0.00000000000E+00 0. -1.
</event>
<event>
 7    1  0.6278987E-006  0.1050115E+03  0.7818608E-02  0.1366710E+00
          2   -1    0    0  502    0  0.00000000000E+00  0.00000000000E+00  0.16422054868E+04  0.16422054868E+04  0.00000000000E+00 0. -1.
          1   -1    0    0  501    0 -0.00000000000E+00 -0.00000000000E+00 -0.25954794352E+03  0.25954794352E+03  0.00000000000E+00 0. -1.
         25    2    1    2    0    0  0.46500168465E+02 -0.47841778416E+02  0.12311864002E+03  0.18770613254E+03  0.12499716493E+03 0.  0.
          2    1    1    2  501    0 -0.60742562458E+02  0.89631785696E+02 -0.21400785405E+03  0.23983927430E+03  0.00000000000E+00 0. -1.
          1    1    1    2  502    0  0.14242393993E+02 -0.41790007280E+02  0.14735467573E+04  0.14742080235E+04  0.00000000000E+00 0. -1.
         22    1    3    3    0    0  0.61131995915E+02  0.38107904575E+01  0.11903107523E+03  0.13386575334E+03  0.00000000000E+00 0. -1.
         22    1    3    3    0    0 -0.14631827450E+02 -0.51652568873E+02  0.40875647951E+01  0.53840379193E+02  0.00000000000E+00 0. -1.
</event>
<event>
 7    1  0.6278987E-006  0.7718912E+02  0.7818608E-02  0.1481895E+00
          2   -1    0    0  502    0  0.00000000000E+00  0.00000000000E+00  0.22548784060E+02  0.22548784060E+02  0.00000000000E+00 0. -1.
          1   -1    0    0  501    0 -0.00000000000E+00 -0.00000000000E+00 -0.29947848310E+04  0.29947848310E+04  0.00000000000E+00 0. -1.
         25    2    1    2    0    0  0.23753300795E+02 -0.64529888861E+02 -0.26386600405E+03  0.29996428948E+03  0.12499992407E+03 0.  0.
          2    1    1    2  501    0 -0.25454834639E+01  0.77515767147E+02 -0.26730402702E+04  0.26741651893E+04  0.00000000000E+00 0. -1.
          1    1    1    2  502    0 -0.21207817332E+02 -0.12985878286E+02 -0.35329772649E+02  0.43204136217E+02  0.00000000000E+00 0. -1.
         22    1    3    3    0    0  0.86496181114E+01  0.29654118385E+02 -0.16885354105E+02  0.35203661939E+02  0.00000000000E+00 0.  1.
         22    1    3    3    0    0  0.15103682684E+02 -0.94184007246E+02 -0.24698064994E+03  0.26476062754E+03  0.00000000000E+00 0.  1.
</event>
<event>
 7    1  0.6278987E-006  0.9891130E+02  0.7818608E-02  0.1325710E+00
          2   -1    0    0  502    0  0.00000000000E+00  0.00000000000E+00  0.24630018310E+04  0.24630018310E+04  0.00000000000E+00 0. -1.
          1   -1    0    0  501    0 -0.00000000000E+00 -0.00000000000E+00 -0.34176398384E+02  0.34176398384E+02  0.00000000000E+00 0. -1.
         25    2    1    2    0    0  0.14560799427E+03  0.60784350990E+02  0.51539864922E+03  0.55331466495E+03  0.12499970201E+03 0.  0.
          2    1    1    2  501    0 -0.52376982585E+02 -0.41205509876E+02  0.65364445130E+02  0.93347485430E+02  0.00000000000E+00 0. -1.
          1    1    1    2  502    0 -0.93231011689E+02 -0.19578841114E+02  0.18480623382E+04  0.18505160790E+04  0.00000000000E+00 0. -1.
         22    1    3    3    0    0  0.33764241880E+02  0.61499474284E+02  0.93816670146E+02  0.11714852523E+03  0.00000000000E+00 0.  1.
         22    1    3    3    0    0  0.11184375239E+03 -0.71512329404E+00  0.42158197908E+03  0.43616613972E+03  0.00000000000E+00 0.  1.
</event>
<event>
 7    1  0.6278987E-006  0.7592058E+02  0.7818608E-02  0.1402710E+00
          2   -1    0    0  502    0  0.00000000000E+00  0.00000000000E+00  0.12848765687E+04  0.12848765687E+04  0.00000000000E+00 0. -1.
          1   -1    0    0  501    0 -0.00000000000E+00 -0.00000000000E+00 -0.49828142437E+03  0.49828142437E+03  0.00000000000E+00 0. -1.
         25    2    1    2    0    0 -0.68704722564E+02 -0.36389308405E+01  0.75105200116E+03  0.76448501460E+03  0.12499859352E+03 0.  0.
          2    1    1    2  501    0  0.63544506633E+02 -0.41690360756E+02 -0.48762871158E+03  0.49351570477E+03  0.00000000000E+00 0. -1.
          1    1    1    2  502    0  0.51602159309E+01  0.45329291596E+02  0.52317185473E+03  0.52515727367E+03  0.00000000000E+00 0. -1.
         22    1    3    3    0    0  0.57104285585E+01  0.50004707162E+02  0.23301909576E+03  0.23839248881E+03  0.00000000000E+00 0.  1.
         22    1    3    3    0    0 -0.74415151123E+02 -0.53643638003E+02  0.51803290539E+03  0.52609252578E+03  0.00000000000E+00 0.  1.
</event>
<event>
 7    1  0.6278987E-006  0.5774246E+02  0.7818608E-02  0.1454144E+00
          2   -1    0    0  502    0  0.00000000000E+00  0.00000000000E+00  0.15742030961E+04  0.15742030961E+04  0.00000000000E+00 0. -1.
          1   -1    0    0  501    0 -0.00000000000E+00 -0.00000000000E+00 -0.12984218669E+04  0.12984218669E+04  0.00000000000E+00 0. -1.
         25    2    1    2    0    0 -0.79177042783E+02  0.46806338461E+02  0.30635839302E+03  0.34343108900E+03  0.12501844060E+03 0.  0.
          2    1    1    2  501    0  0.56095794587E+02 -0.13434500313E+02 -0.12789058063E+04  0.12802059543E+04  0.00000000000E+00 0. -1.
          1    1    1    2  502    0  0.23081248196E+02 -0.33371838148E+02  0.12483286426E+04  0.12489879196E+04  0.00000000000E+00 0. -1.
         22    1    3    3    0    0 -0.40760628590E+02 -0.12061360659E+02  0.17207580327E+02  0.45858544293E+02  0.00000000000E+00 0.  1.
         22    1    3    3    0    0 -0.38416414193E+02  0.58867699121E+02  0.28915081269E+03  0.29757254470E+03  0.00000000000E+00 0.  1.
</event>
<event>
 7    1  0.6278987E-006  0.1359613E+03  0.7818608E-02  0.1368737E+00
          2   -1    0    0  502    0  0.00000000000E+00  0.00000000000E+00  0.88678359796E+03  0.88678359796E+03  0.00000000000E+00 0. -1.
          1   -1    0    0  501    0 -0.00000000000E+00 -0.00000000000E+00 -0.57216631054E+03  0.57216631054E+03  0.00000000000E+00 0. -1.
         25    2    1    2    0    0 -0.24332213834E+02  0.16146057570E+03  0.14453201324E+03  0.25134881505E+03  0.12500059935E+03 0.  0.
          2    1    1    2  501    0 -0.77289340780E+01 -0.32627959675E+02 -0.51180733833E+03  0.51290454448E+03  0.00000000000E+00 0. -1.
          1    1    1    2  502    0  0.32061147912E+02 -0.12883261603E+03  0.68189261251E+03  0.69469654898E+03  0.00000000000E+00 0. -1.
         22    1    3    3    0    0 -0.45013416852E+02  0.10004680220E+03  0.20781216182E+02  0.11165764314E+03  0.00000000000E+00 0. -1.
         22    1    3    3    0    0  0.20681203018E+02  0.61413773509E+02  0.12375079706E+03  0.13969117191E+03  0.00000000000E+00 0. -1.
</event>
<event>
 7    1  0.6278987E-006  0.7859697E+02  0.7818608E-02  0.1464803E+00
          2   -1    0    0  502    0  0.00000000000E+00  0.00000000000E+00  0.13150611421E+03  0.13150611421E+03  0.00000000000E+00 0. -1.
          1   -1    0    0  501    0 -0.00000000000E+00 -0.00000000000E+00 -0.18759653302E+04  0.18759653302E+04  0.00000000000E+00 0. -1.
         25    2    1    2    0    0  0.20870938237E+02 -0.10246773530E+03 -0.44688450324E+02  0.16898859064E+03  0.12499941333E+03 0.  0.
          2    1    1    2  501    0 -0.22520020177E+02  0.74929758434E+02 -0.17654823760E+04  0.17672152218E+04  0.00000000000E+00 0. -1.
          1    1    1    2  502    0  0.16490819393E+01  0.27537976863E+02  0.65711610342E+02  0.71267632026E+02  0.00000000000E+00 0. -1.
         22    1    3    3    0    0 -0.43809135550E+02 -0.35341408138E+01 -0.19754397221E+02  0.48186789876E+02  0.00000000000E+00 0.  1.
         22    1    3    3    0    0  0.64680073788E+02 -0.98933594483E+02 -0.24934053103E+02  0.12080180076E+03  0.00000000000E+00 0.  1.
</event>
<event>
 7    1  0.6278987E-006  0.8183210E+02  0.7818608E-02  0.1499332E+00
          2   -1    0    0  502    0  0.00000000000E+00  0.00000000000E+00  0.62175492112E+03  0.62175492112E+03  0.00000000000E+00 0. -1.
          1   -1    0    0  501    0 -0.00000000000E+00 -0.00000000000E+00 -0.62194107953E+03  0.62194107953E+03  0.00000000000E+00 0. -1.
         25    2    1    2    0    0 -0.29267510610E+02  0.56347116117E+02 -0.97399264407E+01  0.14051899351E+03  0.12497654459E+03 0.  0.
          2    1    1    2  501    0  0.29960387868E+02 -0.77111276214E+02 -0.54348650984E+03  0.54974663268E+03  0.00000000000E+00 0. -1.
          1    1    1    2  502    0 -0.69287725883E+00  0.20764160096E+02  0.55304027787E+03  0.55343037446E+03  0.00000000000E+00 0. -1.
         22    1    3    3    0    0  0.39622327247E+02  0.49125342050E+02 -0.27756803728E+02  0.68946850553E+02  0.00000000000E+00 0. -1.
         22    1    3    3    0    0 -0.68889837857E+02  0.72217740676E+01  0.18016877288E+02  0.71572142959E+02  0.00000000000E+00 0. -1.
</event>
<event>
 7    1  0.6278987E-006  0.2904472E+02  0.7818608E-02  0.1661424E+00
          2   -1    0    0  502    0  0.00000000000E+00  0.00000000000E+00  0.29327752925E+03  0.29327752925E+03  0.00000000000E+00 0. -1.
          1   -1    0    0  501    0 -0.00000000000E+00 -0.00000000000E+00 -0.71062835818E+03  0.71062835818E+03  0.00000000000E+00 0. -1.
         25    2    1    2    0    0 -0.19999956665E+01 -0.81087676084E+01 -0.12130644564E+03  0.17438351776E+03  0.12499842166E+03 0.  0.
          2    1    1    2  501    0  0.14802362404E+02  0.25341788113E+02 -0.56196789119E+03  0.56273370868E+03  0.00000000000E+00 0. -1.
          1    1    1    2  502    0 -0.12802366737E+02 -0.17233020504E+02  0.26592350789E+03  0.26678866100E+03  0.00000000000E+00 0. -1.
         22    1    3    3    0    0 -0.40714144533E+02  0.28010449088E+02 -0.90136316736E+01  0.50234175410E+02  0.00000000000E+00 0. -1.
         22    1    3    3    0    0  0.38714148867E+02 -0.36119216696E+02 -0.11229281396E+03  0.12414934235E+03  0.00000000000E+00 0. -1.
</event>
<event>
 7    1  0.6278987E-006  0.4079504E+02  0.7818608E-02  0.1580966E+00
          2   -1    0    0  502    0  0.00000000000E+00  0.00000000000E+00  0.24626804431E+04  0.24626804431E+04  0.00000000000E+00 0. -1.
          1   -1    0    0  501    0 -0.00000000000E+00 -0.00000000000E+00 -0.57527308999E+03  0.57527308999E+03  0.00000000000E+00 0. -1.
         25    2    1    2    0    0 -0.14448010947E+02 -0.12627176817E+02  0.62687766679E+03  0.63950631021E+03  0.12499808424E+03 0.  0.
          2    1    1    2  501    0 -0.24363949213E+02 -0.24800774677E+01 -0.56845806027E+03  0.56898534172E+03  0.00000000000E+00 0. -1.
          1    1    1    2  502    0  0.38811960160E+02  0.15107254284E+02  0.18289877465E+04  0.18294618811E+04  0.00000000000E+00 0. -1.
         22    1    3    3    0    0  0.53375231448E+02  0.10812553774E+02  0.29028875222E+03  0.29535298597E+03  0.00000000000E+00 0. -1.
         22    1    3    3    0    0 -0.67823242396E+02 -0.23439730591E+02  0.33658891457E+03  0.34415332425E+03  0.00000000000E+00 0. -1.
</event>
<event>
 7    1  0.6278987E-006  0.8704082E+02  0.7818608E-02  0.1444468E+00
          2   -1    0    0  502    0  0.00000000000E+00  0.00000000000E+00  0.20283310765E+03  0.20283310765E+03  0.00000000000E+00 0. -1.
          1   -1    0    0  501    0 -0.00000000000E+00 -0.00000000000E+00 -0.24649683407E+03  0.24649683407E+03  0.00000000000E+00 0. -1.
         25    2    1    2    0    0  0.29248142447E+02 -0.10608808302E+03 -0.83177258577E+01  0.16674674539E+03  0.12500062935E+03 0.  0.
          2    1    1    2  501    0 -0.11761342413E+02  0.83067593915E+02 -0.14590574592E+03  0.16830639033E+03  0.00000000000E+00 0. -1.
          1    1    1    2  502    0 -0.17486800034E+02  0.23020489106E+02  0.11055974536E+03  0.11427680599E+03  0.00000000000E+00 0. -1.
         22    1    3    3    0    0  0.71244490453E+02 -0.43459862676E+02 -0.29347589399E+02  0.88463654047E+02  0.00000000000E+00 0.  1.
         22    1    3    3    0    0 -0.41996348006E+02 -0.62628220344E+02  0.21029863542E+02  0.78283091341E+02  0.00000000000E+00 0.  1.
</event>
<event>
 7    1  0.6278987E-006  0.1219674E+03  0.7818608E-02  0.1313612E+00
          2   -1    0    0  502    0  0.00000000000E+00  0.00000000000E+00  0.63864157159E+03  0.63864157159E+03  0.00000000000E+00 0. -1.
          1   -1    0    0  501    0 -0.00000000000E+00 -0.00000000000E+00 -0.14377769281E+04  0.14377769281E+04  0.00000000000E+00 0. -1.
         25    2    1    2    0    0 -0.30322905485E+02 -0.60677610309E+02 -0.10098417838E+02  0.14257856233E+03  0.12500166961E+03 0.  0.
          2    1    1    2  501    0  0.79139194119E+02  0.95934060937E+02 -0.13570034320E+04  0.13626902328E+04  0.00000000000E+00 0. -1.
          1    1    1    2  502    0 -0.48816288634E+02 -0.35256450628E+02  0.56796649339E+03  0.57114970451E+03  0.00000000000E+00 0. -1.
         22    1    3    3    0    0 -0.48520414672E+02 -0.51840650410E+02  0.44877979817E+02  0.83998313955E+02  0.00000000000E+00 0. -1.
         22    1    3    3    0    0  0.18197509187E+02 -0.88369598996E+01 -0.54976397656E+02  0.58580248379E+02  0.00000000000E+00 0. -1.
</event>
<event>
 7    1  0.6278987E-006  0.1256219E+03  0.7818608E-02  0.1249244E+00
          2   -1    0    0  502    0  0.00000000000E+00  0.00000000000E+00  0.10861643211E+03  0.10861643211E+03  0.00000000000E+00 0. -1.
          1   -1    0    0  501    0 -0.00000000000E+00 -0.00000000000E+00 -0.86382412468E+03  0.86382412468E+03  0.00000000000E+00 0. -1.
         25    2    1    2    0    0  0.26723016331E+02  0.19240348179E+02 -0.55548689932E+02  0.14069013176E+03  0.12499498238E+03 0.  0.
          2    1    1    2  501    0 -0.11066629492E+03 -0.86813128192E+02 -0.70971708839E+03  0.72352048597E+03  0.00000000000E+00 0. -1.
          1    1    1    2  502    0  0.83943278591E+02  0.67572780013E+02  0.10058085759E+02  0.10822993906E+03  0.00000000000E+00 0. -1.
         22    1    3    3    0    0  0.44703272605E+02  0.43451095407E+02  0.14866458463E+02  0.64088937117E+02  0.00000000000E+00 0.  1.
         22    1    3    3    0    0 -0.17980256273E+02 -0.24210747227E+02 -0.70415148395E+02  0.76601194641E+02  0.00000000000E+00 0.  1.
</event>
<event>
 7    1  0.6278987E-006  0.6044848E+02  0.7818608E-02  0.1532808E+00
          2   -1    0    0  502    0  0.00000000000E+00  0.00000000000E+00  0.13097843178E+03  0.13097843178E+03  0.00000000000E+00 0. -1.
          1   -1    0    0  501    0 -0.00000000000E+00 -0.00000000000E+00 -0.29954959000E+03  0.29954959000E+03  0.00000000000E+00 0. -1.
         25    2    1    2    0    0 -0.76889829071E+02  0.88938745253E+01 -0.56904427955E+02  0.15765070823E+03  0.12499794025E+03 0.  0.
          2    1    1    2  501    0  0.56275920262E+02 -0.17803922933E+02 -0.18604445688E+03  0.19518324418E+03  0.00000000000E+00 0. -1.
          1    1    1    2  502    0  0.20613908809E+02  0.89100484080E+01  0.74377726615E+02  0.77694069371E+02  0.00000000000E+00 0. -1.
         22    1    3    3    0    0  0.75953480900E+01 -0.37684073728E+02 -0.46926538716E+02  0.60662004263E+02  0.00000000000E+00 0. -1.
         22    1    3    3    0    0 -0.84485177161E+02  0.46577948254E+02 -0.99778892393E+01  0.96988703967E+02  0.00000000000E+00 0. -1.
</event>
<event>
 7    1  0.6278987E-006  0.1491266E+03  0.7818608E-02  0.1280994E+00
          2   -1    0    0  502    0  0.00000000000E+00  0.00000000000E+00  0.35403673586E+03  0.35403673586E+03  0.00000000000E+00 0. -1.
          1   -1    0    0  501    0 -0.00000000000E+00 -0.00000000000E+00 -0.58601049881E+03  0.58601049881E+03  0.00000000000E+00 0. -1.
         25    2    1    2    0    0 -0.29029305574E+02 -0.14104049436E+03 -0.39482160680E+01  0.19072393897E+03  0.12499964343E+03 0.  0.
          2    1    1    2  501    0 -0.37339515276E+02  0.14674568148E+03 -0.47237787303E+03  0.49605381700E+03  0.00000000000E+00 0. -1.
          1    1    1    2  502    0  0.66368820850E+02 -0.57051871214E+01  0.24435232616E+03  0.25326947870E+03  0.00000000000E+00 0. -1.
         22    1    3    3    0    0  0.25076174619E+02  0.11895982493E+02  0.52142135947E+01  0.28240342710E+02  0.00000000000E+00 0. -1.
         22    1    3    3    0    0 -0.54105480192E+02 -0.15293647685E+03 -0.91624296627E+01  0.16248359626E+03  0.00000000000E+00 0. -1.
</event>
<event>
 7    1  0.6278987E-006  0.8735026E+02  0.7818608E-02  0.1410313E+00
          2   -1    0    0  502    0  0.00000000000E+00  0.00000000000E+00  0.55946279662E+03  0.55946279662E+03  0.00000000000E+00 0. -1.
          1   -1    0    0  501    0 -0.00000000000E+00 -0.00000000000E+00 -0.30841314213E+03  0.30841314213E+03  0.00000000000E+00 0. -1.
         25    2    1    2    0    0  0.90167678938E+01 -0.66637588755E+02 -0.18960995627E+03  0.23685226660E+03  0.12500076135E+03 0.  0.
          2    1    1    2  501    0 -0.32810551487E+02 -0.17860998429E+02 -0.87750495389E+02  0.95371363599E+02  0.00000000000E+00 0. -1.
          1    1    1    2  502    0  0.23793783593E+02  0.84498587184E+02  0.52841010615E+03  0.53565230855E+03  0.00000000000E+00 0. -1.
         22    1    3    3    0    0  0.38206060434E+01  0.26512554808E+02 -0.11300589810E+03  0.11613718439E+03  0.00000000000E+00 0.  1.
         22    1    3    3    0    0  0.51961618503E+01 -0.93150143564E+02 -0.76604058169E+02  0.12071508221E+03  0.00000000000E+00 0.  1.
</event>
<event>
 7    1  0.6278987E-006  0.5781021E+02  0.7818608E-02  0.1424874E+00
          2   -1    0    0  502    0  0.00000000000E+00  0.00000000000E+00  0.74935803651E+03  0.74935803651E+03  0.00000000000E+00 0. -1.
          1   -1    0    0  501    0 -0.00000000000E+00 -0.00000000000E+00 -0.43579722936E+03  0.43579722936E+03  0.00000000000E+00 0. -1.
         25    2    1    2    0    0  0.14683664493E+00  0.29198852007E+02  0.12725064858E+03  0.18074988883E+03  0.12500080091E+03 0.  0.
          2    1    1    2  501    0 -0.50280697345E+02  0.40835269354E+01 -0.40596189326E+03  0.40908419977E+03  0.00000000000E+00 0. -1.
          1    1    1    2  502    0  0.50133860700E+02 -0.33282378942E+02  0.59227205183E+03  0.59532117727E+03  0.00000000000E+00 0. -1.
         22    1    3    3    0    0 -0.36361546168E+02  0.65581846069E+02  0.60104851125E+02  0.96102724739E+02  0.00000000000E+00 0. -1.
         22    1    3    3    0    0  0.36508382813E+02 -0.36382994062E+02  0.67145797456E+02  0.84647164090E+02  0.00000000000E+00 0. -1.
</event>
<event>
 7    1  0.6278987E-006  0.6981506E+02  0.7818608E-02  0.1365853E+00
          2   -1    0    0  502    0  0.00000000000E+00  0.00000000000E+00  0.13438382045E+04  0.13438382045E+04  0.00000000000E+00 0. -1.
          1   -1    0    0  501    0 -0.00000000000E+00 -0.00000000000E+00 -0.84775995418E+03  0.84775995418E+03  0.00000000000E+00 0. -1.
         25    2    1    2    0    0 -0.84608531967E+01 -0.11233070463E+02  0.18004666290E+03  0.21965553451E+03  0.12503593528E+03 0.  0.
          2    1    1    2  501    0 -0.64893697026E+02  0.16193502829E+02 -0.82542016016E+03  0.82812551117E+03  0.00000000000E+00 0. -1.
          1    1    1    2  502    0  0.73354550223E+02 -0.49604323661E+01  0.11414517476E+04  0.11438171130E+04  0.00000000000E+00 0. -1.
         22    1    3    3    0    0  0.14116334157E+02  0.54327413927E+02  0.72415573241E+02  0.91622890381E+02  0.00000000000E+00 0. -1.
         22    1    3    3    0    0 -0.22577187353E+02 -0.65560484390E+02  0.10763108966E+03  0.12803264413E+03  0.00000000000E+00 0. -1.
</event>
<event>
 7    1  0.6278987E-006  0.1020738E+03  0.7818608E-02  0.1441550E+00
          2   -1    0    0  502    0  0.00000000000E+00  0.00000000000E+00  0.73165685096E+02  0.73165685096E+02  0.00000000000E+00 0. -1.
          1   -1    0    0  501    0 -0.00000000000E+00 -0.00000000000E+00 -0.74267986250E+03  0.74267986250E+03  0.00000000000E+00 0. -1.
         25    2    1    2    0    0 -0.50339247493E+02 -0.10024728909E+03 -0.23789265167E+03  0.29120792041E+03  0.12500232152E+03 0.  0.
          2    1    1    2  501    0  0.25001798949E+02  0.30941412459E+01 -0.42312681910E+03  0.42387612424E+03  0.00000000000E+00 0. -1.
          1    1    1    2  502    0  0.25337448544E+02  0.97153147846E+02 -0.84947066396E+01  0.10076150295E+03  0.00000000000E+00 0. -1.
         22    1    3    3    0    0  0.17373861050E+02  0.22081295123E+02 -0.37473715368E+02  0.46837100525E+02  0.00000000000E+00 0. -1.
         22    1    3    3    0    0 -0.67713108543E+02 -0.12232858422E+03 -0.20041893630E+03  0.24437081989E+03  0.00000000000E+00 0. -1.
</event>
<event>
 7    1  0.6278987E-006  0.3384887E+02  0.7818608E-02  0.1577009E+00
          2   -1    0    0  502    0  0.00000000000E+00  0.00000000000E+00  0.10793958560E+03  0.10793958560E+03  0.00000000000E+00 0. -1.
          1   -1    0    0  501    0 -0.00000000000E+00 -0.00000000000E+00 -0.49886904731E+03  0.49886904731E+03  0.00000000000E+00 0. -1.
         25    2    1    2    0    0  0.76151246723E+00 -0.32936382023E+02  0.23274326743E+02  0.13134709984E+03  0.12499992475E+03 0.  0.
          2    1    1    2  501    0 -0.28616200296E+02  0.97957971225E+01 -0.43341448314E+03  0.43446859352E+03  0.00000000000E+00 0. -1.
          1    1    1    2  502    0  0.27854687829E+02  0.23140584900E+02  0.19210694682E+02  0.40992939560E+02  0.00000000000E+00 0. -1.
         22    1    3    3    0    0  0.40433690670E+02  0.21796059433E+02 -0.21034602266E+02  0.50521342426E+02  0.00000000000E+00 0.  1.
         22    1    3    3    0    0 -0.39672178203E+02 -0.54732441455E+02  0.44308929009E+02  0.80825757410E+02  0.00000000000E+00 0.  1.
</event>
<event>
 7    1  0.6278987E-006  0.3812535E+02  0.7818608E-02  0.1602351E+00
          2   -1    0    0  502    0  0.00000000000E+00  0.00000000000E+00  0.36195264143E+03  0.36195264143E+03  0.00000000000E+00 0. -1.
          1   -1    0    0  501    0 -0.00000000000E+00 -0.00000000000E+00 -0.28125688383E+03  0.28125688383E+03  0.00000000000E+00 0. -1.
         25    2    1    2    0    0 -0.58932503945E+01  0.23143588819E+02 -0.22549223395E+02  0.12924109498E+03  0.12499774818E+03 0.  0.
          2    1    1    2  501    0  0.28723137112E+02 -0.26008114644E+02 -0.20309864554E+03  0.20676194150E+03  0.00000000000E+00 0. -1.
          1    1    1    2  502    0 -0.22829886718E+02  0.28645258255E+01  0.30634362653E+03  0.30720648879E+03  0.00000000000E+00 0. -1.
         22    1    3    3    0    0  0.58871436049E+02  0.19924793842E+02 -0.15182939082E+02  0.63979410996E+02  0.00000000000E+00 0. -1.
         22    1    3    3    0    0 -0.64764686444E+02  0.32187949763E+01 -0.73662843126E+01  0.65261683980E+02  0.00000000000E+00 0. -1.
</event>
<event>
 7    1  0.6278987E-006  0.1643145E+03  0.7818608E-02  0.1220941E+00
          2   -1    0    0  502    0  0.00000000000E+00  0.00000000000E+00  0.55421260703E+03  0.55421260703E+03  0.00000000000E+00 0. -1.
          1   -1    0    0  501    0 -0.00000000000E+00 -0.00000000000E+00 -0.49598557428E+03  0.49598557428E+03  0.00000000000E+00 0. -1.
         25    2    1    2    0    0  0.51579957976E+02 -0.19954481381E+03 -0.59033017199E+02  0.24816895598E+03  0.12499723522E+03 0.  0.
          2    1    1    2  501    0  0.66813098210E+02  0.87484430169E+02 -0.31838783957E+03  0.33688029328E+03  0.00000000000E+00 0. -1.
          1    1    1    2  502    0 -0.11839305619E+03  0.11206038364E+03  0.43564788952E+03  0.46514893204E+03  0.00000000000E+00 0. -1.
         22    1    3    3    0    0  0.47090309167E+02 -0.24231488857E+02  0.18941697513E+02  0.56244556842E+02  0.00000000000E+00 0. -1.
         22    1    3    3    0    0  0.44896488093E+01 -0.17531332495E+03 -0.77974714712E+02  0.19192439914E+03  0.00000000000E+00 0. -1.
</event>
<event>
 7    1  0.6278987E-006  0.1025288E+03  0.7818608E-02  0.1322477E+00
          2   -1    0    0  502    0  0.00000000000E+00  0.00000000000E+00  0.29933514257E+04  0.29933514257E+04  0.00000000000E+00 0. -1.
          1   -1    0    0  501    0 -0.00000000000E+00 -0.00000000000E+00 -0.14253614556E+04  0.14253614556E+04  0.00000000000E+00 0. -1.
         25    2    1    2    0    0  0.76233902042E+02 -0.79026863619E+02  0.12676799569E+03  0.20918063015E+03  0.12501823190E+03 0.  0.
          2    1    1    2  501    0 -0.62099857118E+02 -0.22828551729E+02 -0.13824280367E+04  0.13840104088E+04  0.00000000000E+00 0. -1.
          1    1    1    2  502    0 -0.14134044924E+02  0.10185541535E+03  0.28236500110E+04  0.28255218424E+04  0.00000000000E+00 0. -1.
         22    1    3    3    0    0  0.10828635372E+03 -0.68378612321E+02  0.78309476859E+02  0.15011310133E+03  0.00000000000E+00 0.  1.
         22    1    3    3    0    0 -0.32052451677E+02 -0.10648251298E+02  0.48458518828E+02  0.59067528823E+02  0.00000000000E+00 0.  1.
</event>
<event>
 7    1  0.6278987E-006  0.5723224E+02  0.7818608E-02  0.1453811E+00
          2   -1    0    0  502    0  0.00000000000E+00  0.00000000000E+00  0.12209604644E+03  0.12209604644E+03  0.00000000000E+00 0. -1.
          1   -1    0    0  501    0 -0.00000000000E+00 -0.00000000000E+00 -0.29028009078E+03  0.29028009078E+03  0.00000000000E+00 0. -1.
         25    2    1    2    0    0  0.37361770649E+02 -0.76745296195E+02  0.59819105315E+01  0.15148126901E+03  0.12500019685E+03 0.  0.
          2    1    1    2  501    0  0.20590749552E+00  0.41037407280E+02 -0.19916618612E+03  0.20335014357E+03  0.00000000000E+00 0. -1.
          1    1    1    2  502    0 -0.37567678145E+02  0.35707888915E+02  0.25000231253E+02  0.57544724647E+02  0.00000000000E+00 0. -1.
         22    1    3    3    0    0  0.52415615702E+02 -0.50676938680E+02 -0.49663178296E+02  0.88215532430E+02  0.00000000000E+00 0.  1.
         22    1    3    3    0    0 -0.15053845053E+02 -0.26068357515E+02  0.55645088828E+02  0.63265736580E+02  0.00000000000E+00 0.  1.
</event>
<event>
 7    1  0.6278987E-006  0.5809907E+02  0.7818608E-02  0.1544337E+00
          2   -1    0    0  502    0  0.00000000000E+00  0.00000000000E+00  0.19390860706E+04  0.19390860706E+04  0.00000000000E+00 0. -1.
          1   -1    0    0  501    0 -0.00000000000E+00 -0.00000000000E+00 -0.38200868816E+03  0.38200868816E+03  0.00000000000E+00 0. -1.
         25    2    1    2    0    0 -0.32532880698E+02  0.18958958770E+02  0.74887824637E+02  0.15050255948E+03  0.12500001475E+03 0.  0.
          2    1    1    2  501    0 -0.13401440160E+02  0.17032748809E+02 -0.34339347609E+03  0.34407672480E+03  0.00000000000E+00 0. -1.
          1    1    1    2  502    0  0.45934320858E+02 -0.35991707579E+02  0.18255830339E+04  0.18265154745E+04  0.00000000000E+00 0. -1.
         22    1    3    3    0    0  0.10538811565E+02 -0.35721475868E+01 -0.31569200466E+02  0.33472992182E+02  0.00000000000E+00 0.  1.
         22    1    3    3    0    0 -0.43071692262E+02  0.22531106357E+02  0.10645702510E+03  0.11702956730E+03  0.00000000000E+00 0.  1.
</event>
<event>
 7    1  0.6278987E-006  0.4724266E+02  0.7818608E-02  0.1491326E+00
          2   -1    0    0  502    0  0.00000000000E+00  0.00000000000E+00  0.17747140261E+04  0.17747140261E+04  0.00000000000E+00 0. -1.
          1   -1    0    0  501    0 -0.00000000000E+00 -0.00000000000E+00 -0.21598934283E+02  0.21598934283E+02  0.00000000000E+00 0. -1.
         25    2    1    2    0    0  0.66812436295E+02 -0.30785290512E+02  0.98823231697E+03  0.99881999277E+03  0.12500651942E+03 0.  0.
          2    1    1    2  501    0 -0.29181071329E+02  0.36315882792E+02  0.18475308311E+02  0.50117015913E+02  0.00000000000E+00 0. -1.
          1    1    1    2  502    0 -0.37631364966E+02 -0.55305922796E+01  0.74640746650E+03  0.74737595166E+03  0.00000000000E+00 0. -1.
         22    1    3    3    0    0  0.61283124505E+01 -0.53571370462E+02  0.17772108812E+03  0.18572084726E+03  0.00000000000E+00 0.  1.
         22    1    3    3    0    0  0.60684123845E+02  0.22786079950E+02  0.81051122885E+03  0.81309914550E+03  0.00000000000E+00 0.  1.
</event>
<event>
 7    1  0.6278987E-006  0.1355948E+03  0.7818608E-02  0.1396625E+00
          2   -1    0    0  502    0  0.00000000000E+00  0.00000000000E+00  0.12784629574E+04  0.12784629574E+04  0.00000000000E+00 0. -1.
          1   -1    0    0  501    0 -0.00000000000E+00 -0.00000000000E+00 -0.12396971789E+03  0.12396971789E+03  0.00000000000E+00 0. -1.
         25    2    1    2    0    0 -0.19232124494E+01 -0.11186246670E+03  0.35706584172E+03  0.39451044192E+03  0.12500225301E+03 0.  0.
          2    1    1    2  501    0 -0.13015812040E+01  0.13847346621E+03 -0.59395693759E+02  0.15067993694E+03  0.00000000000E+00 0. -1.
          1    1    1    2  502    0  0.32247936535E+01 -0.26610999511E+02  0.85682309157E+03  0.85724229646E+03  0.00000000000E+00 0. -1.
         22    1    3    3    0    0 -0.62363294085E+02 -0.41078287198E+02  0.16014303589E+03  0.17669860801E+03  0.00000000000E+00 0.  1.
         22    1    3    3    0    0  0.60440081635E+02 -0.70784179504E+02  0.19692280583E+03  0.21781183391E+03  0.00000000000E+00 0.  1.
</event>
<event>
 7    1  0.6278987E-006  0.3185381E+02  0.7818608E-02  0.1600889E+00
          2   -1    0    0  502    0  0.00000000000E+00  0.00000000000E+00  0.20741000299E+03  0.20741000299E+03  0.00000000000E+00 0. -1.
          1   -1    0    0  501    0 -0.00000000000E+00 -0.00000000000E+00 -0.12274323063E+03  0.12274323063E+03  0.00000000000E+00 0. -1.
         25    2    1    2    0    0  0.14810311366E+02 -0.22172209123E+02 -0.75367146675E+02  0.14837824992E+03  0.12499978428E+03 0.  0.
          2    1    1    2  501    0 -0.26707160742E+02 -0.76521271116E+01  0.11938019036E+02  0.30238118042E+02  0.00000000000E+00 0. -1.
          1    1    1    2  502    0  0.11896849376E+02  0.29824336235E+02  0.14809590000E+03  0.15153686566E+03  0.00000000000E+00 0. -1.
         22    1    3    3    0    0  0.69270915626E+02 -0.21341195765E+02 -0.51471711320E+02  0.88900188158E+02  0.00000000000E+00 0. -1.
         22    1    3    3    0    0 -0.54460604260E+02 -0.83101335833E+00 -0.23895435354E+02  0.59478061757E+02  0.00000000000E+00 0. -1.
</event>
<event>
 7    1  0.6278987E-006  0.3721044E+03  0.7818608E-02  0.1192872E+00
          2   -1    0    0  502    0  0.00000000000E+00  0.00000000000E+00  0.95729540071E+03  0.95729540071E+03  0.00000000000E+00 0. -1.
          1   -1    0    0  501    0 -0.00000000000E+00 -0.00000000000E+00 -0.36846331526E+03  0.36846331526E+03  0.00000000000E+00 0. -1.
         25    2    1    2    0    0 -0.34211281065E+03  0.19238929761E+03  0.44972727992E+03  0.60986587499E+03  0.12500776825E+03 0.  0.
          2    1    1    2  501    0  0.34593346816E+03 -0.12679937516E+03 -0.16577323409E+03  0.40401585498E+03  0.00000000000E+00 0. -1.
          1    1    1    2  502    0 -0.38206575113E+01 -0.65589922450E+02  0.30487803962E+03  0.31187698599E+03  0.00000000000E+00 0. -1.
         22    1    3    3    0    0 -0.27658125760E+03  0.13053224338E+03  0.26641758990E+03  0.40560348966E+03  0.00000000000E+00 0. -1.
         22    1    3    3    0    0 -0.65531553051E+02  0.61857054232E+02  0.18330969002E+03  0.20426238533E+03  0.00000000000E+00 0. -1.
</event>
<event>
 7    1  0.6278987E-006  0.6037821E+02  0.7818608E-02  0.1458424E+00
          2   -1    0    0  502    0  0.00000000000E+00  0.00000000000E+00  0.12359000592E+04  0.12359000592E+04  0.00000000000E+00 0. -1.
          1   -1    0    0  501    0 -0.00000000000E+00 -0.00000000000E+00 -0.17502261496E+03  0.17502261496E+03  0.00000000000E+00 0. -1.
         25    2    1    2    0    0 -0.29751521512E+02  0.19401583740E+02 -0.79239738027E+01  0.13018523652E+03  0.12499532777E+03 0.  0.
          2    1    1    2  501    0  0.70734113167E+01  0.36939816884E+02 -0.10181851719E+03  0.10854304981E+03  0.00000000000E+00 0. -1.
          1    1    1    2  502    0  0.22678110195E+02 -0.56341400624E+02  0.11706199352E+04  0.11721943878E+04  0.00000000000E+00 0. -1.
         22    1    3    3    0    0  0.44166647075E+02  0.26632535375E+02 -0.19260391441E+02  0.55054040113E+02  0.00000000000E+00 0.  1.
         22    1    3    3    0    0 -0.73918168587E+02 -0.72309516351E+01  0.11336417639E+02  0.75131196408E+02  0.00000000000E+00 0.  1.
</event>
<event>
 7    1  0.6278987E-006  0.6823622E+02  0.7818608E-02  0.1384036E+00
          2   -1    0    0  502    0  0.00000000000E+00  0.00000000000E+00  0.54918099276E+03  0.54918099276E+03  0.00000000000E+00 0. -1.
          1   -1    0    0  501    0 -0.00000000000E+00 -0.00000000000E+00 -0.35952563633E+02  0.35952563633E+02  0.00000000000E+00 0. -1.
         25    2    1    2    0    0 -0.13944299758E+02 -0.35570258070E+02  0.24086761116E+03  0.27404548194E+03  0.12499613319E+03 0.  0.
          2    1    1    2  501    0  0.19405304272E+02 -0.55647308188E+02  0.10583801306E+03  0.12113989331E+03  0.00000000000E+00 0. -1.
          1    1    1    2  502    0 -0.54610045138E+01  0.91217566258E+02  0.16652280491E+03  0.18994818114E+03  0.00000000000E+00 0. -1.
         22    1    3    3    0    0  0.28168171466E+02 -0.30686291588E+01  0.10026585678E+01  0.28352560605E+02  0.00000000000E+00 0.  1.
         22    1    3    3    0    0 -0.42112471225E+02 -0.32501628911E+02  0.23986495259E+03  0.24569292134E+03  0.00000000000E+00 0.  1.
</event>
<event>
 7    1  0.6278987E-006  0.1581827E+03  0.7818608E-02  0.1377423E+00
          2   -1    0    0  502    0  0.00000000000E+00  0.00000000000E+00  0.48705613636E+03  0.48705613636E+03  0.00000000000E+00 0. -1.
          1   -1    0    0  501    0 -0.00000000000E+00 -0.00000000000E+00 -0.41433206510E+03  0.41433206510E+03  0.00000000000E+00 0. -1.
         25    2    1    2    0    0  0.76719945929E+02  0.13491823936E+03  0.28880428628E+03  0.35088637588E+03  0.12499780635E+03 0.  0.
          2    1    1    2  501    0 -0.53883436303E+02 -0.14900137806E+03 -0.36567186006E+03  0.39852320461E+03  0.00000000000E+00 0. -1.
          1    1    1    2  502    0 -0.22836509626E+02  0.14083138706E+02  0.14959164503E+03  0.15197862097E+03  0.00000000000E+00 0. -1.
         22    1    3    3    0    0  0.88209344174E+02  0.13699046968E+03  0.18538164037E+03  0.24680686734E+03  0.00000000000E+00 0.  1.
         22    1    3    3    0    0 -0.11489398245E+02 -0.20722303195E+01  0.10342264591E+03  0.10407950854E+03  0.00000000000E+00 0.  1.
</event>
<event>
 7    1  0.6278987E-006  0.8825245E+02  0.7818608E-02  0.1315766E+00
          2   -1    0    0  502    0  0.00000000000E+00  0.00000000000E+00  0.13592303801E+04  0.13592303801E+04  0.00000000000E+00 0. -1.
          1   -1    0    0  501    0 -0.00000000000E+00 -0.00000000000E+00 -0.15905995276E+03  0.15905995276E+03  0.00000000000E+00 0. -1.
         25    2    1    2    0    0 -0.12316280607E+03 -0.26548022942E+01  0.34432989940E+03  0.38647980001E+03  0.12500972529E+03 0.  0.
          2    1    1    2  501    0  0.56248071854E+02  0.59146451552E+02 -0.12378807332E+03  0.14827553883E+03  0.00000000000E+00 0. -1.
          1    1    1    2  502    0  0.66914734214E+02 -0.56491649258E+02  0.97962860125E+03  0.98353499402E+03  0.00000000000E+00 0. -1.
         22    1    3    3    0    0 -0.12967292495E+03 -0.47320532051E+01  0.17940169616E+03  0.22141009096E+03  0.00000000000E+00 0.  1.
         22    1    3    3    0    0  0.65101188869E+01  0.20772509109E+01  0.16492820325E+03  0.16506970905E+03  0.00000000000E+00 0.  1.
</event>
<event>
 7    1  0.6278987E-006  0.8907597E+02  0.7818608E-02  0.1460595E+00
          2   -1    0    0  502    0  0.00000000000E+00  0.00000000000E+00  0.47967988995E+03  0.47967988995E+03  0.00000000000E+00 0. -1.
          1   -1    0    0  501    0 -0.00000000000E+00 -0.00000000000E+00 -0.33309791884E+04  0.33309791884E+04  0.00000000000E+00 0. -1.
         25    2    1    2    0    0  0.88974489876E+02 -0.46761845817E+02 -0.12039837348E+04  0.12146212186E+04  0.12499896328E+03 0.  0.
          2    1    1    2  501    0 -0.66179359297E+02  0.57255618936E+02 -0.21204417084E+04  0.21222466756E+04  0.00000000000E+00 0. -1.
          1    1    1    2  502    0 -0.22795130578E+02 -0.10493773120E+02  0.47312614480E+03  0.47379118412E+03  0.00000000000E+00 0. -1.
         22    1    3    3    0    0  0.56498771565E+02 -0.89981626315E+02 -0.77861579584E+03  0.78583163705E+03  0.00000000000E+00 0. -1.
         22    1    3    3    0    0  0.32475718311E+02  0.43219780499E+02 -0.42536793899E+03  0.42878958153E+03  0.00000000000E+00 0. -1.
</event>
<event>
 7    1  0.6278987E-006  0.1308209E+03  0.7818608E-02  0.1238916E+00
          2   -1    0    0  502    0  0.00000000000E+00  0.00000000000E+00  0.25666661834E+04  0.25666661834E+04  0.00000000000E+00 0. -1.
          1   -1    0    0  501    0 -0.00000000000E+00 -0.00000000000E+00 -0.12459964110E+04  0.12459964110E+04  0.00000000000E+00 0. -1.
         25    2    1    2    0    0  0.12767964546E+03  0.17654709653E+03  0.20920669831E+02  0.25205900983E+03  0.12500040341E+03 0.  0.
          2    1    1    2  501    0 -0.24217808628E+02 -0.12670735375E+03 -0.11253837215E+04  0.11327531843E+04  0.00000000000E+00 0. -1.
          1    1    1    2  502    0 -0.10346183683E+03 -0.49839742781E+02  0.24251328241E+04  0.24278504003E+04  0.00000000000E+00 0. -1.
         22    1    3    3    0    0  0.34091959157E+02  0.14755161440E+03  0.27279906547E+02  0.15387635911E+03  0.00000000000E+00 0.  1.
         22    1    3    3    0    0  0.93587686302E+02  0.28995482134E+02 -0.63592367154E+01  0.98182650723E+02  0.00000000000E+00 0.  1.
</event>
<event>
 7    1  0.6278987E-006  0.1000969E+03  0.7818608E-02  0.1415374E+00
          2   -1    0    0  502    0  0.00000000000E+00  0.00000000000E+00  0.17657009815E+04  0.17657009815E+04  0.00000000000E+00 0. -1.
          1   -1    0    0  501    0 -0.00000000000E+00 -0.00000000000E+00 -0.39589333327E+03  0.39589333327E+03  0.00000000000E+00 0. -1.
         25    2    1    2    0    0  0.66925401966E+02 -0.80690796792E+02  0.12702873499E+04  0.12807203100E+04  0.12499818861E+03 0.  0.
          2    1    1    2  501    0 -0.84013785034E+02  0.54416114980E+02 -0.38374927000E+03  0.39658912223E+03  0.00000000000E+00 0. -1.
          1    1    1    2  502    0  0.17088383068E+02  0.26274681811E+02  0.48326956838E+03  0.48428488255E+03  0.00000000000E+00 0. -1.
         22    1    3    3    0    0 -0.95510833255E+00 -0.70657034929E+02  0.30855060850E+03  0.31653879197E+03  0.00000000000E+00 0. -1.
         22    1    3    3    0    0  0.67880510299E+02 -0.10033761863E+02  0.96173674137E+03  0.96418151806E+03  0.00000000000E+00 0. -1.
</event>
<event>
 7    1  0.6278987E-006  0.4654181E+02  0.7818608E-02  0.1557567E+00
          2   -1    0    0  502    0  0.00000000000E+00  0.00000000000E+00  0.16493640057E+04  0.16493640057E+04  0.00000000000E+00 0. -1.
          1   -1    0    0  501    0 -0.00000000000E+00 -0.00000000000E+00 -0.34223596052E+02  0.34223596052E+02  0.00000000000E+00 0. -1.
         25    2    1    2    0    0  0.17703005672E+01 -0.42321438755E+02  0.23807617647E+03  0.27221270301E+03  0.12500100693E+03 0.  0.
          2    1    1    2  501    0 -0.24801795501E+02  0.15995504578E+01 -0.75466828329E+01  0.25973833824E+02  0.00000000000E+00 0. -1.
          1    1    1    2  502    0  0.23031494933E+02  0.40721888297E+02  0.13846109160E+04  0.13854010649E+04  0.00000000000E+00 0. -1.
         22    1    3    3    0    0  0.29796851227E+02 -0.76433263775E+02  0.18992793084E+03  0.20688768709E+03  0.00000000000E+00 0.  1.
         22    1    3    3    0    0 -0.28026550660E+02  0.34111825020E+02  0.48148245628E+02  0.65325015921E+02  0.00000000000E+00 0.  1.
</event>
<event>
 7    1  0.6278987E-006  0.4186848E+02  0.7818608E-02  0.1525135E+00
          2   -1    0    0  502    0  0.00000000000E+00  0.00000000000E+00  0.13644176466E+04  0.13644176466E+04  0.00000000000E+00 0. -1.
          1   -1    0    0  501    0 -0.00000000000E+00 -0.00000000000E+00 -0.75882029664E+02  0.75882029664E+02  0.00000000000E+00 0. -1.
         25    2    1    2    0    0 -0.46653570282E+02 -0.27858172925E+02  0.41701802770E+03  0.43872830889E+03  0.12500344068E+03 0.  0.
          2    1    1    2  501    0  0.41447293471E+02 -0.58507591574E+01 -0.57945415102E+02  0.71482729734E+02  0.00000000000E+00 0. -1.
          1    1    1    2  502    0  0.52062768110E+01  0.33708932082E+02  0.92946300435E+03  0.93008863764E+03  0.00000000000E+00 0. -1.
         22    1    3    3    0    0  0.10481026019E+02 -0.84359685626E+01 -0.35003222034E+01  0.13902148306E+02  0.00000000000E+00 0. -1.
         22    1    3    3    0    0 -0.57134596301E+02 -0.19422204362E+02  0.42051834990E+03  0.42482616059E+03  0.00000000000E+00 0. -1.
</event>
<event>
 7    1  0.6278987E-006  0.5526656E+02  0.7818608E-02  0.1424079E+00
          2   -1    0    0  502    0  0.00000000000E+00  0.00000000000E+00  0.13524442957E+04  0.13524442957E+04  0.00000000000E+00 0. -1.
          1   -1    0    0  501    0 -0.00000000000E+00 -0.00000000000E+00 -0.21073609475E+02  0.21073609475E+02  0.00000000000E+00 0. -1.
         25    2    1    2    0    0 -0.49077095866E+02 -0.53746774328E+01  0.94229233113E+03  0.95182820050E+03  0.12499854988E+03 0.  0.
          2    1    1    2  501    0  0.12003243349E+02 -0.51714766071E+02  0.41163920259E+02  0.67178591916E+02  0.00000000000E+00 0. -1.
          1    1    1    2  502    0  0.37073852517E+02  0.57089443504E+02  0.34791443486E+03  0.35451111278E+03  0.00000000000E+00 0. -1.
         22    1    3    3    0    0 -0.30487825486E+02 -0.85246633485E+01  0.92703111464E+03  0.92757148776E+03  0.00000000000E+00 0.  1.
         22    1    3    3    0    0 -0.18589270379E+02  0.31499859157E+01  0.15261216488E+02  0.24256712745E+02  0.00000000000E+00 0.  1.
</event>
<event>
 7    1  0.6278987E-006  0.7402552E+02  0.7818608E-02  0.1482186E+00
          2   -1    0    0  502    0  0.00000000000E+00  0.00000000000E+00  0.75100971451E+03  0.75100971451E+03  0.00000000000E+00 0. -1.
          1   -1    0    0  501    0 -0.00000000000E+00 -0.00000000000E+00 -0.24475268234E+03  0.24475268234E+03  0.00000000000E+00 0. -1.
         25    2    1    2    0    0 -0.64692124471E+02  0.35667553946E+02 -0.13095418982E+03  0.19552931906E+03  0.12500187763E+03 0.  0.
          2    1    1    2  501    0  0.16106353085E+02  0.20254059704E+02 -0.77493210724E+02  0.81699689428E+02  0.00000000000E+00 0. -1.
          1    1    1    2  502    0  0.48585771385E+02 -0.55921613650E+02  0.71470443271E+03  0.71853338836E+03  0.00000000000E+00 0. -1.
         22    1    3    3    0    0 -0.40825242595E+02  0.61244135943E+02 -0.14106671900E+03  0.15911431057E+03  0.00000000000E+00 0. -1.
         22    1    3    3    0    0 -0.23866881876E+02 -0.25576581997E+02  0.10112529179E+02  0.36415008493E+02  0.00000000000E+00 0. -1.
</event>
<event>
 7    1  0.6278987E-006  0.8333439E+02  0.7818608E-02  0.1359391E+00
          2   -1    0    0  502    0  0.00000000000E+00  0.00000000000E+00  0.11705085263E+04  0.11705085263E+04  0.00000000000E+00 0. -1.
          1   -1    0    0  501    0 -0.00000000000E+00 -0.00000000000E+00 -0.77553077712E+03  0.77553077712E+03  0.00000000000E+00 0. -1.
         25    2    1    2    0    0  0.48714016118E+02 -0.39791539345E+02  0.72930742511E+02  0.15780271229E+03  0.12500552321E+03 0.  0.
          2    1    1    2  501    0  0.35828235110E+02  0.47061177021E+02 -0.73019105180E+03  0.73258268403E+03  0.00000000000E+00 0. -1.
          1    1    1    2  502    0 -0.84542251228E+02 -0.72696376752E+01  0.10522380584E+04  0.10556539071E+04  0.00000000000E+00 0. -1.
         22    1    3    3    0    0  0.35981569963E+02  0.14998114367E+02 -0.23967763863E+02  0.45761015244E+02  0.00000000000E+00 0. -1.
         22    1    3    3    0    0  0.12732446156E+02 -0.54789653712E+02  0.96898506375E+02  0.11204169704E+03  0.00000000000E+00 0. -1.
</event>
<event>
 7    1  0.6278987E-006  0.4050429E+02  0.7818608E-02  0.1551796E+00
          2   -1    0    0  502    0  0.00000000000E+00  0.00000000000E+00  0.40061989172E+02  0.40061989172E+02  0.00000000000E+00 0. -1.
          1   -1    0    0  501    0 -0.00000000000E+00 -0.00000000000E+00 -0.17510302355E+04  0.17510302355E+04  0.00000000000E+00 0. -1.
         25    2    1    2    0    0 -0.41349494757E+02 -0.58800015052E+01 -0.42968187224E+03  0.44944167940E+03  0.12500782662E+03 0.  0.
          2    1    1    2  501    0  0.26153691371E+02  0.31316136737E+02 -0.13037998487E+04  0.13044381018E+04  0.00000000000E+00 0. -1.
          1    1    1    2  502    0  0.15195803386E+02 -0.25436135232E+02  0.22513474551E+02  0.37212443516E+02  0.00000000000E+00 0. -1.
         22    1    3    3    0    0 -0.58309544785E+02 -0.39770428932E+02 -0.38233741501E+03  0.38879761952E+03  0.00000000000E+00 0.  1.
         22    1    3    3    0    0  0.16960050028E+02  0.33890427427E+02 -0.47344457229E+02  0.60644059877E+02  0.00000000000E+00 0.  1.
</event>
<event>
 7    1  0.6278987E-006  0.6013687E+02  0.7818608E-02  0.1481580E+00
          2   -1    0    0  502    0  0.00000000000E+00  0.00000000000E+00  0.17430863491E+04  0.17430863491E+04  0.00000000000E+00 0. -1.
          1   -1    0    0  501    0 -0.00000000000E+00 -0.00000000000E+00 -0.35098546975E+02  0.35098546975E+02  0.00000000000E+00 0. -1.
         25    2    1    2    0    0 -0.16884607458E+02  0.50293219053E+02  0.42281325051E+03  0.44408260444E+03  0.12499526755E+03 0.  0.
          2    1    1    2  501    0  0.47009960056E+02 -0.39530397308E+02  0.14610026053E+02  0.63135105267E+02  0.00000000000E+00 0. -1.
          1    1    1    2  502    0 -0.30125352598E+02 -0.10762821746E+02  0.12705645256E+04  0.12709671864E+04  0.00000000000E+00 0. -1.
         22    1    3    3    0    0 -0.70512365778E+01  0.90692339258E+02  0.24152683739E+03  0.25808919683E+03  0.00000000000E+00 0.  1.
         22    1    3    3    0    0 -0.98333708806E+01 -0.40399120204E+02  0.18128641312E+03  0.18599340762E+03  0.00000000000E+00 0.  1.
</event>
<event>
 7    1  0.6278987E-006  0.5677905E+02  0.7818608E-02  0.1549660E+00
          2   -1    0    0  502    0  0.00000000000E+00  0.00000000000E+00  0.90880285297E+03  0.90880285297E+03  0.00000000000E+00 0. -1.
          1   -1    0    0  501    0 -0.00000000000E+00 -0.00000000000E+00 -0.59227788762E+03  0.59227788762E+03  0.00000000000E+00 0. -1.
         25    2    1    2    0    0  0.39927542115E+02  0.22295514745E+01  0.34496727191E+03  0.36909054084E+03  0.12500491642E+03 0.  0.
          2    1    1    2  501    0 -0.53708256605E+02 -0.18638864518E+02 -0.57861460415E+03  0.58140076044E+03  0.00000000000E+00 0. -1.
          1    1    1    2  502    0  0.13780714490E+02  0.16409313043E+02  0.55017229759E+03  0.55058943931E+03  0.00000000000E+00 0. -1.
         22    1    3    3    0    0 -0.98827065330E+01 -0.16810593184E+02 -0.52480032302E+00  0.19507417743E+02  0.00000000000E+00 0.  1.
         22    1    3    3    0    0  0.49810248648E+02  0.19040144658E+02  0.34549207224E+03  0.34958312310E+03  0.00000000000E+00 0.  1.
</event>
<event>
 7    1  0.6278987E-006  0.1547770E+03  0.7818608E-02  0.1386392E+00
          2   -1    0    0  502    0  0.00000000000E+00  0.00000000000E+00  0.64074295843E+03  0.64074295843E+03  0.00000000000E+00 0. -1.
          1   -1    0    0  501    0 -0.00000000000E+00 -0.00000000000E+00 -0.11236898685E+04  0.11236898685E+04  0.00000000000E+00 0. -1.
         25    2    1    2    0    0 -0.12818322711E+03 -0.12160007117E+03  0.14470109143E+03  0.26033890104E+03  0.12498168069E+03 0.  0.
          2    1    1    2  501    0  0.10386604531E+03  0.11395247290E+03 -0.10599174794E+04  0.10710734731E+04  0.00000000000E+00 0. -1.
          1    1    1    2  502    0  0.24317181803E+02  0.76475982722E+01  0.43226947790E+03  0.43302045288E+03  0.00000000000E+00 0. -1.
         22    1    3    3    0    0 -0.91502254332E+02 -0.74877489046E+02  0.16005103946E+03  0.19898652252E+03  0.00000000000E+00 0.  1.
         22    1    3    3    0    0 -0.36680972778E+02 -0.46722582127E+02 -0.15349948028E+02  0.61352378512E+02  0.00000000000E+00 0.  1.
</event>
<event>
 7    1  0.1438230E-005  0.5594375E+02  0.7818608E-02  0.1441109E+00
          2   -1    0    0  502    0  0.00000000000E+00  0.00000000000E+00  0.69962718233E+03  0.69962718233E+03  0.00000000000E+00 0. -1.
          1   -1    0    0  501    0 -0.00000000000E+00 -0.00000000000E+00 -0.13749971348E+04  0.13749971348E+04  0.00000000000E+00 0. -1.
         25    2    1    2    0    0 -0.38446813088E+02  0.15018314317E+02 -0.65637264603E+03  0.66944313258E+03  0.12500140042E+03 0.  0.
          2    1    1    2  501    0  0.24336940993E+02  0.39172800090E+02 -0.71020908185E+03  0.71170480882E+03  0.00000000000E+00 0. -1.
          1    1    1    2  502    0  0.14109872095E+02 -0.54191114408E+02  0.69121177535E+03  0.69347637578E+03  0.00000000000E+00 0. -1.
         22    1    3    3    0    0 -0.83042726880E+02  0.22109131062E+02 -0.40041207714E+03  0.40952990084E+03  0.00000000000E+00 0.  1.
         22    1    3    3    0    0  0.44595913792E+02 -0.70908167441E+01 -0.25596056888E+03  0.25991323174E+03  0.00000000000E+00 0.  1.
</event>
<event>
 7    1  0.6278987E-006  0.4226631E+02  0.7818608E-02  0.1593474E+00
          2   -1    0    0  502    0  0.00000000000E+00  0.00000000000E+00  0.10537786541E+04  0.10537786541E+04  0.00000000000E+00 0. -1.
          1   -1    0    0  501    0 -0.00000000000E+00 -0.00000000000E+00 -0.82826020532E+03  0.82826020532E+03  0.00000000000E+00 0. -1.
         25    2    1    2    0    0 -0.55640925732E+02  0.21414357352E+00  0.17114537404E+02  0.13789022649E+03  0.12499939479E+03 0.  0.
          2    1    1    2  501    0  0.16075321375E+02 -0.14867126878E+02 -0.76726024780E+03  0.76757262541E+03  0.00000000000E+00 0. -1.
          1    1    1    2  502    0  0.39565604357E+02  0.14652983304E+02  0.97566415918E+03  0.97657600753E+03  0.00000000000E+00 0. -1.
         22    1    3    3    0    0 -0.66934917379E+02  0.50061949895E+02 -0.12084425447E+01  0.83593913206E+02  0.00000000000E+00 0.  1.
         22    1    3    3    0    0  0.11293991647E+02 -0.49847806321E+02  0.18322979948E+02  0.54296313287E+02  0.00000000000E+00 0.  1.
</event>
<event>
 7    1  0.6278987E-006  0.2307068E+02  0.7818608E-02  0.1693775E+00
          2   -1    0    0  502    0  0.00000000000E+00  0.00000000000E+00  0.49908672323E+03  0.49908672323E+03  0.00000000000E+00 0. -1.
          1   -1    0    0  501    0 -0.00000000000E+00 -0.00000000000E+00 -0.18179212116E+02  0.18179212116E+02  0.00000000000E+00 0. -1.
         25    2    1    2    0    0 -0.23010138437E+02  0.45221388483E+01  0.27421966795E+03  0.30227554690E+03  0.12499665496E+03 0.  0.
          2    1    1    2  501    0  0.14386187591E+02  0.17498398240E+02  0.35064697918E+02  0.41745531192E+02  0.00000000000E+00 0. -1.
          1    1    1    2  502    0  0.86239508464E+01 -0.22020537088E+02  0.17162314524E+03  0.17324485725E+03  0.00000000000E+00 0. -1.
         22    1    3    3    0    0 -0.56109566759E+02  0.45125094310E+02  0.18889693622E+03  0.20215491617E+03  0.00000000000E+00 0. -1.
         22    1    3    3    0    0  0.33099428322E+02 -0.40602955461E+02  0.85322731736E+02  0.10012063073E+03  0.00000000000E+00 0. -1.
</event>
<event>
 7    1  0.6278987E-006  0.9953931E+02  0.7818608E-02  0.1312043E+00
          2   -1    0    0  502    0  0.00000000000E+00  0.00000000000E+00  0.12782114484E+04  0.12782114484E+04  0.00000000000E+00 0. -1.
          1   -1    0    0  501    0 -0.00000000000E+00 -0.00000000000E+00 -0.72037510571E+03  0.72037510571E+03  0.00000000000E+00 0. -1.
         25    2    1    2    0    0 -0.15146754645E+03 -0.62094629919E+02  0.57240604436E+02  0.21377418461E+03  0.12499901807E+03 0.  0.
          2    1    1    2  501    0  0.97390144559E+02  0.10360597775E+02 -0.63713714899E+03  0.64462076360E+03  0.00000000000E+00 0. -1.
          1    1    1    2  502    0  0.54077401892E+02  0.51734032144E+02  0.11377328872E+04  0.11401916059E+04  0.00000000000E+00 0. -1.
         22    1    3    3    0    0 -0.11055899973E+03 -0.31223438153E+02 -0.24337978170E+02  0.11743309880E+03  0.00000000000E+00 0. -1.
         22    1    3    3    0    0 -0.40908546719E+02 -0.30871191766E+02  0.81578582606E+02  0.96341085813E+02  0.00000000000E+00 0. -1.
</event>
<event>
 7    1  0.6278987E-006  0.1548325E+03  0.7818608E-02  0.1264270E+00
          2   -1    0    0  502    0  0.00000000000E+00  0.00000000000E+00  0.96388220753E+03  0.96388220753E+03  0.00000000000E+00 0. -1.
          1   -1    0    0  501    0 -0.00000000000E+00 -0.00000000000E+00 -0.51551951841E+03  0.51551951841E+03  0.00000000000E+00 0. -1.
         25    2    1    2    0    0  0.57334515701E+02 -0.95921849392E+02  0.44502617617E+03  0.47556429791E+03  0.12499942437E+03 0.  0.
          2    1    1    2  501    0 -0.13176363935E+03  0.84055934621E+02 -0.48508160659E+03  0.50963832455E+03  0.00000000000E+00 0. -1.
          1    1    1    2  502    0  0.74429123649E+02  0.11865914771E+02  0.48841811954E+03  0.49419910348E+03  0.00000000000E+00 0. -1.
         22    1    3    3    0    0  0.33635539161E+01 -0.12259570903E+02 -0.57297279335E+01  0.13944187171E+02  0.00000000000E+00 0.  1.
         22    1    3    3    0    0  0.53970961785E+02 -0.83662278489E+02  0.45075590410E+03  0.46162011074E+03  0.00000000000E+00 0.  1.
</event>
<event>
 7    1  0.6278987E-006  0.7792091E+02  0.7818608E-02  0.1453572E+00
          2   -1    0    0  502    0  0.00000000000E+00  0.00000000000E+00  0.89937803526E+03  0.89937803526E+03  0.00000000000E+00 0. -1.
          1   -1    0    0  501    0 -0.00000000000E+00 -0.00000000000E+00 -0.20843041096E+03  0.20843041096E+03  0.00000000000E+00 0. -1.
         25    2    1    2    0    0 -0.49529751222E+02 -0.12703038816E+02 -0.81726113515E+02  0.15785724467E+03  0.12500075445E+03 0.  0.
          2    1    1    2  501    0 -0.20717455502E+02 -0.21966205755E+02 -0.84227736416E+02  0.89476470312E+02  0.00000000000E+00 0. -1.
          1    1    1    2  502    0  0.70247206724E+02  0.34669244570E+02  0.85690147422E+03  0.86047473124E+03  0.00000000000E+00 0. -1.
         22    1    3    3    0    0 -0.30136656674E+02 -0.32348744879E+01  0.30840012240E+02  0.43241055068E+02  0.00000000000E+00 0.  1.
         22    1    3    3    0    0 -0.19393094548E+02 -0.94681643277E+01 -0.11256612575E+03  0.11461618960E+03  0.00000000000E+00 0.  1.
</event>
<event>
 7    1  0.6278987E-006  0.9135921E+02  0.7818608E-02  0.1359911E+00
          2   -1    0    0  502    0  0.00000000000E+00  0.00000000000E+00  0.66565496980E+03  0.66565496980E+03  0.00000000000E+00 0. -1.
          1   -1    0    0  501    0 -0.00000000000E+00 -0.00000000000E+00 -0.17842071083E+04  0.17842071083E+04  0.00000000000E+00 0. -1.
         25    2    1    2    0    0 -0.73588416423E+02 -0.34421303943E+02  0.96163055853E+02  0.17742744115E+03  0.12503232528E+03 0.  0.
          2    1    1    2  501    0  0.44886208731E+02  0.79826457604E+02 -0.17410043045E+04  0.17434113179E+04  0.00000000000E+00 0. -1.
          1    1    1    2  502    0  0.28702207692E+02 -0.45405153661E+02  0.52628911012E+03  0.52902331908E+03  0.00000000000E+00 0. -1.
         22    1    3    3    0    0 -0.93759829128E+02  0.14195712915E+02  0.48936875095E+02  0.10671101896E+03  0.00000000000E+00 0. -1.
         22    1    3    3    0    0  0.20171412704E+02 -0.48617016858E+02  0.47226180758E+02  0.70716422192E+02  0.00000000000E+00 0. -1.
</event>
<event>
 7    1  0.6278987E-006  0.1143498E+03  0.7818608E-02  0.1289535E+00
          2   -1    0    0  502    0  0.00000000000E+00  0.00000000000E+00  0.16794615834E+04  0.16794615834E+04  0.00000000000E+00 0. -1.
          1   -1    0    0  501    0 -0.00000000000E+00 -0.00000000000E+00 -0.46059049989E+02  0.46059049989E+02  0.00000000000E+00 0. -1.
         25    2    1    2    0    0  0.14333234189E+03 -0.87789446001E+02  0.58635726010E+03  0.62264830715E+03  0.12499972343E+03 0.  0.
          2    1    1    2  501    0 -0.63214052537E+02  0.85689701829E+02  0.81723399057E+02  0.13422911529E+03  0.00000000000E+00 0. -1.
          1    1    1    2  502    0 -0.80118289357E+02  0.20997441721E+01  0.96532187426E+03  0.96864321096E+03  0.00000000000E+00 0. -1.
         22    1    3    3    0    0  0.39840529732E+02 -0.86632707473E+02  0.18459000574E+03  0.20776420296E+03  0.00000000000E+00 0.  1.
         22    1    3    3    0    0  0.10349181216E+03 -0.11567385284E+01  0.40176725437E+03  0.41488410419E+03  0.00000000000E+00 0.  1.
</event>
<event>
 7    1  0.6278987E-006  0.3236113E+03  0.7818608E-02  0.1270845E+00
          2   -1    0    0  502    0  0.00000000000E+00  0.00000000000E+00  0.90526463513E+03  0.90526463513E+03  0.00000000000E+00 0. -1.
          1   -1    0    0  501    0 -0.00000000000E+00 -0.00000000000E+00 -0.49383340180E+03  0.49383340180E+03  0.00000000000E+00 0. -1.
         25    2    1    2    0    0  0.23777811368E+03  0.20180217879E+03  0.34015568236E+03  0.47811364152E+03  0.12499686101E+03 0.  0.
          2    1    1    2  501    0 -0.15394035538E+01  0.33795778952E+02 -0.36789871643E+03  0.36945093042E+03  0.00000000000E+00 0. -1.
          1    1    1    2  502    0 -0.23623871012E+03 -0.23559795774E+03  0.43917426741E+03  0.55153346499E+03  0.00000000000E+00 0. -1.
         22    1    3    3    0    0  0.23301461931E+03  0.16393626324E+03  0.24561973225E+03  0.37616480974E+03  0.00000000000E+00 0. -1.
         22    1    3    3    0    0  0.47634943683E+01  0.37865915549E+02  0.94535950108E+02  0.10194883178E+03  0.00000000000E+00 0. -1.
</event>
<event>
 7    1  0.6278987E-006  0.1357001E+03  0.7818608E-02  0.1247835E+00
          2   -1    0    0  502    0  0.00000000000E+00  0.00000000000E+00  0.86274052068E+03  0.86274052068E+03  0.00000000000E+00 0. -1.
          1   -1    0    0  501    0 -0.00000000000E+00 -0.00000000000E+00 -0.17616378164E+03  0.17616378164E+03  0.00000000000E+00 0. -1.
         25    2    1    2    0    0 -0.45039658212E+02 -0.29987078510E+02  0.15392841536E+03  0.20553740593E+03  0.12499548988E+03 0.  0.
          2    1    1    2  501    0  0.14007700452E+03  0.64691357465E+02 -0.10571516275E+03  0.18703538318E+03  0.00000000000E+00 0. -1.
          1    1    1    2  502    0 -0.95037346303E+02 -0.34704278954E+02  0.63836348643E+03  0.64633151322E+03  0.00000000000E+00 0. -1.
         22    1    3    3    0    0  0.13969078268E+02  0.13795296226E+01  0.13548702254E+03  0.13621222972E+03  0.00000000000E+00 0.  1.
         22    1    3    3    0    0 -0.59008736480E+02 -0.31366608133E+02  0.18441392820E+02  0.69325176205E+02  0.00000000000E+00 0.  1.
</event>
<event>
 7    1  0.6278987E-006  0.5557336E+02  0.7818608E-02  0.1448672E+00
          2   -1    0    0  502    0  0.00000000000E+00  0.00000000000E+00  0.19941716882E+04  0.19941716882E+04  0.00000000000E+00 0. -1.
          1   -1    0    0  501    0 -0.00000000000E+00 -0.00000000000E+00 -0.71488788640E+03  0.71488788640E+03  0.00000000000E+00 0. -1.
         25    2    1    2    0    0  0.51771854929E+02  0.61148692839E+01  0.88995510991E+02  0.16205789106E+03  0.12499936996E+03 0.  0.
          2    1    1    2  501    0 -0.32302280847E+02 -0.45450829005E+02 -0.67695251499E+03  0.67924511243E+03  0.00000000000E+00 0. -1.
          1    1    1    2  502    0 -0.19469574081E+02  0.39335959721E+02  0.18672408058E+04  0.18677565711E+04  0.00000000000E+00 0. -1.
         22    1    3    3    0    0 -0.16481843439E+02  0.50482650801E+02  0.26027944313E+02  0.59140536692E+02  0.00000000000E+00 0.  1.
         22    1    3    3    0    0  0.68253698368E+02 -0.44367781517E+02  0.62967566678E+02  0.10291735437E+03  0.00000000000E+00 0.  1.
</event>
<event>
 7    1  0.6278987E-006  0.1736081E+03  0.7818608E-02  0.1198390E+00
          2   -1    0    0  502    0  0.00000000000E+00  0.00000000000E+00  0.18718870718E+04  0.18718870718E+04  0.00000000000E+00 0. -1.
          1   -1    0    0  501    0 -0.00000000000E+00 -0.00000000000E+00 -0.13003732103E+03  0.13003732103E+03  0.00000000000E+00 0. -1.
         25    2    1    2    0    0  0.25090743295E+02 -0.11175510952E+03  0.93300049421E+02  0.19352794954E+03  0.12501767127E+03 0.  0.
          2    1    1    2  501    0 -0.18201335404E+03  0.37491560748E+02  0.39472015101E+02  0.18998030990E+03  0.00000000000E+00 0. -1.
          1    1    1    2  502    0  0.15692261074E+03  0.74263548768E+02  0.16090776863E+04  0.16184161334E+04  0.00000000000E+00 0. -1.
         22    1    3    3    0    0 -0.21377704813E+02 -0.82064705276E+02  0.10717259905E+03  0.13666597273E+03  0.00000000000E+00 0.  1.
         22    1    3    3    0    0  0.46468448108E+02 -0.29690404240E+02 -0.13872549632E+02  0.56861976810E+02  0.00000000000E+00 0.  1.
</event>
<event>
 7    1  0.6278987E-006  0.2055102E+03  0.7818608E-02  0.1161154E+00
          2   -1    0    0  502    0  0.00000000000E+00  0.00000000000E+00  0.12185993999E+03  0.12185993999E+03  0.00000000000E+00 0. -1.
          1   -1    0    0  501    0 -0.00000000000E+00 -0.00000000000E+00 -0.22982459613E+04  0.22982459613E+04  0.00000000000E+00 0. -1.
         25    2    1    2    0    0  0.18573728188E+03  0.86730892942E+02 -0.18261727546E+03  0.30165366107E+03  0.12500110507E+03 0.  0.
          2    1    1    2  501    0  0.39628647845E+02 -0.16556173765E+03 -0.18078484602E+04  0.18158461316E+04  0.00000000000E+00 0. -1.
          1    1    1    2  502    0 -0.22536592972E+03  0.78830844704E+02 -0.18592028569E+03  0.30260610864E+03  0.00000000000E+00 0. -1.
         22    1    3    3    0    0  0.72617893433E+01  0.45217474829E+02 -0.43461938434E+01  0.46002641395E+02  0.00000000000E+00 0.  1.
         22    1    3    3    0    0  0.17847549253E+03  0.41513418113E+02 -0.17827108161E+03  0.25565101967E+03  0.00000000000E+00 0.  1.
</event>
<event>
 7    1  0.6278987E-006  0.8910357E+02  0.7818608E-02  0.1359818E+00
          2   -1    0    0  502    0  0.00000000000E+00  0.00000000000E+00  0.78925334782E+03  0.78925334782E+03  0.00000000000E+00 0. -1.
          1   -1    0    0  501    0 -0.00000000000E+00 -0.00000000000E+00 -0.14640721387E+04  0.14640721387E+04  0.00000000000E+00 0. -1.
         25    2    1    2    0    0  0.36599653695E+02  0.18952234282E+02  0.19889374060E+03  0.23849909125E+03  0.12499749855E+03 0.  0.
          2    1    1    2  501    0 -0.54084806040E+02 -0.71224661040E+02 -0.14415492688E+04  0.14443207445E+04  0.00000000000E+00 0. -1.
          1    1    1    2  502    0  0.17485152345E+02  0.52272426758E+02  0.56783673739E+03  0.57050565070E+03  0.00000000000E+00 0. -1.
         22    1    3    3    0    0 -0.37972441025E+02  0.31661723974E+02  0.11697829034E+03  0.12699721042E+03  0.00000000000E+00 0. -1.
         22    1    3    3    0    0  0.74572094720E+02 -0.12709489692E+02  0.81915450260E+02  0.11150188084E+03  0.00000000000E+00 0. -1.
</event>
<event>
 7    1  0.6278987E-006  0.1312295E+03  0.7818608E-02  0.1278334E+00
          2   -1    0    0  502    0  0.00000000000E+00  0.00000000000E+00  0.13635458500E+03  0.13635458500E+03  0.00000000000E+00 0. -1.
          1   -1    0    0  501    0 -0.00000000000E+00 -0.00000000000E+00 -0.14575974802E+04  0.14575974802E+04  0.00000000000E+00 0. -1.
         25    2    1    2    0    0  0.76046814675E+02  0.46021896893E+02 -0.22984116547E+03  0.27631995227E+03  0.12499848665E+03 0.  0.
          2    1    1    2  501    0 -0.67941598353E+02 -0.12323768791E+03 -0.11865278394E+04  0.11948438820E+04  0.00000000000E+00 0. -1.
          1    1    1    2  502    0 -0.81052163218E+01  0.77215791016E+02  0.95126109708E+02  0.12278823096E+03  0.00000000000E+00 0. -1.
         22    1    3    3    0    0  0.69395593303E+02 -0.16262099808E+02 -0.18782794249E+03  0.20089683979E+03  0.00000000000E+00 0. -1.
         22    1    3    3    0    0  0.66512213723E+01  0.62283996701E+02 -0.42013222979E+02  0.75423112478E+02  0.00000000000E+00 0. -1.
</event>
<event>
 7    1  0.6278987E-006  0.1651708E+03  0.7818608E-02  0.1204154E+00
          2   -1    0    0  502    0  0.00000000000E+00  0.00000000000E+00  0.10017215707E+04  0.10017215707E+04  0.00000000000E+00 0. -1.
          1   -1    0    0  501    0 -0.00000000000E+00 -0.00000000000E+00 -0.88000371647E+03  0.88000371647E+03  0.00000000000E+00 0. -1.
         25    2    1    2    0    0 -0.92471402056E+02 -0.16591229677E+03 -0.60406945916E+02  0.23527051229E+03  0.12500145767E+03 0.  0.
          2    1    1    2  501    0 -0.65364020610E+02  0.11341775838E+03 -0.71863774497E+03  0.73046303918E+03  0.00000000000E+00 0. -1.
          1    1    1    2  502    0  0.15783542267E+03  0.52494538386E+02  0.90076254508E+03  0.91599173568E+03  0.00000000000E+00 0. -1.
         22    1    3    3    0    0  0.12429853343E+02 -0.75861746034E+02 -0.59179364748E+02  0.97013931873E+02  0.00000000000E+00 0.  1.
         22    1    3    3    0    0 -0.10490125540E+03 -0.90050550736E+02 -0.12275811678E+01  0.13825658041E+03  0.00000000000E+00 0.  1.
</event>
<event>
 7    1  0.6278987E-006  0.1073995E+03  0.7818608E-02  0.1271467E+00
          2   -1    0    0  502    0  0.00000000000E+00  0.00000000000E+00  0.89278197201E+03  0.89278197201E+03  0.00000000000E+00 0. -1.
          1   -1    0    0  501    0 -0.00000000000E+00 -0.00000000000E+00 -0.60559715034E+03  0.60559715034E+03  0.00000000000E+00 0. -1.
         25    2    1    2    0    0  0.18934851967E+03  0.83015588900E+02 -0.11147800095E+03  0.26607417554E+03  0.12499468906E+03 0.  0.
          2    1    1    2  501    0 -0.94400249791E+02 -0.36819991141E+02 -0.40716756723E+03  0.41958616125E+03  0.00000000000E+00 0. -1.
          1    1    1    2  502    0 -0.94948269874E+02 -0.46195597759E+02  0.80583038985E+03  0.81271878556E+03  0.00000000000E+00 0. -1.
         22    1    3    3    0    0  0.36339563643E+02  0.60980330741E+02 -0.82425831913E+02  0.10878043202E+03  0.00000000000E+00 0.  1.
         22    1    3    3    0    0  0.15300895602E+03  0.22035258159E+02 -0.29052169032E+02  0.15729374352E+03  0.00000000000E+00 0.  1.
</event>
<event>
 7    1  0.6278987E-006  0.4308549E+03  0.7818608E-02  0.1167277E+00
          2   -1    0    0  502    0  0.00000000000E+00  0.00000000000E+00  0.37693457465E+03  0.37693457465E+03  0.00000000000E+00 0. -1.
          1   -1    0    0  501    0 -0.00000000000E+00 -0.00000000000E+00 -0.13587891738E+04  0.13587891738E+04  0.00000000000E+00 0. -1.
         25    2    1    2    0    0  0.81432775863E+02  0.40012729999E+03 -0.19286454972E+03  0.46856553928E+03  0.12499510743E+03 0.  0.
          2    1    1    2  501    0 -0.15625499471E+03 -0.41132511797E+03 -0.97318443581E+03  0.10680317983E+04  0.00000000000E+00 0. -1.
          1    1    1    2  502    0  0.74822218850E+02  0.11197817979E+02  0.18419438635E+03  0.19912641091E+03  0.00000000000E+00 0. -1.
         22    1    3    3    0    0  0.11316831645E+03  0.28691061604E+03 -0.12488194558E+03  0.33274655487E+03  0.00000000000E+00 0. -1.
         22    1    3    3    0    0 -0.31735540590E+02  0.11321668394E+03 -0.67982604139E+02  0.13581898441E+03  0.00000000000E+00 0. -1.
</event>
<event>
 7    1  0.6278987E-006  0.1055764E+03  0.7818608E-02  0.1421144E+00
          2   -1    0    0  502    0  0.00000000000E+00  0.00000000000E+00  0.11141956514E+04  0.11141956514E+04  0.00000000000E+00 0. -1.
          1   -1    0    0  501    0 -0.00000000000E+00 -0.00000000000E+00 -0.12813963892E+04  0.12813963892E+04  0.00000000000E+00 0. -1.
         25    2    1    2    0    0 -0.79668501747E+02 -0.35959010263E+02  0.11947848467E+03  0.19375256423E+03  0.12499930902E+03 0.  0.
          2    1    1    2  501    0 -0.66153324993E+01 -0.27642393688E+02 -0.12410963698E+04  0.12414217912E+04  0.00000000000E+00 0. -1.
          1    1    1    2  502    0  0.86283834246E+02  0.63601403951E+02  0.95441714738E+03  0.96041768510E+03  0.00000000000E+00 0. -1.
         22    1    3    3    0    0 -0.25571537318E+02 -0.77763763942E+02  0.48247150793E+02  0.95020492857E+02  0.00000000000E+00 0. -1.
         22    1    3    3    0    0 -0.54096964429E+02  0.41804753679E+02  0.71231333881E+02  0.98732071370E+02  0.00000000000E+00 0. -1.
</event>
<event>
 7    1  0.6278987E-006  0.2287778E+03  0.7818608E-02  0.1258266E+00
          2   -1    0    0  502    0  0.00000000000E+00  0.00000000000E+00  0.28518850131E+04  0.28518850131E+04  0.00000000000E+00 0. -1.
          1   -1    0    0  501    0 -0.00000000000E+00 -0.00000000000E+00 -0.13735519468E+04  0.13735519468E+04  0.00000000000E+00 0. -1.
         25    2    1    2    0    0  0.42401483598E+02 -0.25202766198E+03  0.17898724452E+04  0.18123422799E+04  0.12500136427E+03 0.  0.
          2    1    1    2  501    0  0.91136247912E+01  0.53328675901E+02 -0.13517460024E+04  0.13528282451E+04  0.00000000000E+00 0. -1.
          1    1    1    2  502    0 -0.51515108390E+02  0.19869898608E+03  0.10402066234E+04  0.10602664348E+04  0.00000000000E+00 0. -1.
         22    1    3    3    0    0  0.64689736437E+02 -0.83461821452E+02  0.91726383779E+03  0.92332203795E+03  0.00000000000E+00 0.  1.
         22    1    3    3    0    0 -0.22288252839E+02 -0.16856584053E+03  0.87260860745E+03  0.88902024195E+03  0.00000000000E+00 0.  1.
</event>
<event>
 7    1  0.6278987E-006  0.7825772E+02  0.7818608E-02  0.1370160E+00
          2   -1    0    0  502    0  0.00000000000E+00  0.00000000000E+00  0.13686495956E+04  0.13686495956E+04  0.00000000000E+00 0. -1.
          1   -1    0    0  501    0 -0.00000000000E+00 -0.00000000000E+00 -0.17703472270E+04  0.17703472270E+04  0.00000000000E+00 0. -1.
         25    2    1    2    0    0  0.82552409323E+02 -0.78478879748E+02 -0.80239492081E+02  0.18718179568E+03  0.12499925477E+03 0.  0.
          2    1    1    2  501    0 -0.74853666918E+02  0.21423831577E+02 -0.16350797328E+04  0.16369324313E+04  0.00000000000E+00 0. -1.
          1    1    1    2  502    0 -0.76987424050E+01  0.57055048171E+02  0.13136215935E+04  0.13148825956E+04  0.00000000000E+00 0. -1.
         22    1    3    3    0    0 -0.11610081718E+02 -0.65938033982E+02 -0.71682446041E+01  0.67334998728E+02  0.00000000000E+00 0.  1.
         22    1    3    3    0    0  0.94162491042E+02 -0.12540845765E+02 -0.73071247477E+02  0.11984679695E+03  0.00000000000E+00 0.  1.
</event>
<event>
 7    1  0.6278987E-006  0.4957948E+02  0.7818608E-02  0.1493816E+00
          2   -1    0    0  502    0  0.00000000000E+00  0.00000000000E+00  0.13777655358E+03  0.13777655358E+03  0.00000000000E+00 0. -1.
          1   -1    0    0  501    0 -0.00000000000E+00 -0.00000000000E+00 -0.74919234132E+03  0.74919234132E+03  0.00000000000E+00 0. -1.
         25    2    1    2    0    0 -0.21899874901E+02  0.22814103897E+02 -0.55077027716E+03  0.56566232743E+03  0.12500353042E+03 0.  0.
          2    1    1    2  501    0 -0.27911064111E+02 -0.22133509854E+02 -0.18444864393E+03  0.18785691898E+03  0.00000000000E+00 0. -1.
          1    1    1    2  502    0  0.49810939011E+02 -0.68059404309E+00  0.12380313335E+03  0.13344964849E+03  0.00000000000E+00 0. -1.
         22    1    3    3    0    0 -0.25820688705E+02 -0.75274661933E+01 -0.52492291039E+03  0.52561148443E+03  0.00000000000E+00 0.  1.
         22    1    3    3    0    0  0.39208138046E+01  0.30341570091E+02 -0.25847366775E+02  0.40050843008E+02  0.00000000000E+00 0.  1.
</event>
<event>
 7    1  0.6278987E-006  0.6263770E+02  0.7818608E-02  0.1393400E+00
          2   -1    0    0  502    0  0.00000000000E+00  0.00000000000E+00  0.29448881606E+04  0.29448881606E+04  0.00000000000E+00 0. -1.
          1   -1    0    0  501    0 -0.00000000000E+00 -0.00000000000E+00 -0.19086306598E+04  0.19086306598E+04  0.00000000000E+00 0. -1.
         25    2    1    2    0    0  0.18384588955E+02  0.72818097670E+02  0.55159668029E+03  0.57054767209E+03  0.12500111984E+03 0.  0.
          2    1    1    2  501    0  0.36874123187E+02 -0.50650387454E+02 -0.18982665128E+04  0.18993001122E+04  0.00000000000E+00 0. -1.
          1    1    1    2  502    0 -0.55258712142E+02 -0.22167710216E+02  0.23829273333E+04  0.23836710361E+04  0.00000000000E+00 0. -1.
         22    1    3    3    0    0  0.24181134777E+02 -0.25705105855E+02  0.26703765889E+03  0.26935959424E+03  0.00000000000E+00 0.  1.
         22    1    3    3    0    0 -0.57965458218E+01  0.98523203524E+02  0.28455902140E+03  0.30118807785E+03  0.00000000000E+00 0.  1.
</event>
<event>
 7    1  0.6278987E-006  0.3401060E+02  0.7818608E-02  0.1591402E+00
          2   -1    0    0  502    0  0.00000000000E+00  0.00000000000E+00  0.44390303833E+02  0.44390303833E+02  0.00000000000E+00 0. -1.
          1   -1    0    0  501    0 -0.00000000000E+00 -0.00000000000E+00 -0.53980199863E+03  0.53980199863E+03  0.00000000000E+00 0. -1.
         25    2    1    2    0    0  0.59131143027E+02 -0.13062538418E+02 -0.17732279258E+03  0.22524643127E+03  0.12500184018E+03 0.  0.
          2    1    1    2  501    0 -0.32626833764E+02  0.55216438591E+01 -0.32799740355E+03  0.32966239635E+03  0.00000000000E+00 0. -1.
          1    1    1    2  502    0 -0.26504309263E+02  0.75408945591E+01  0.99085013284E+01  0.29283474842E+02  0.00000000000E+00 0. -1.
         22    1    3    3    0    0  0.54992232810E+01  0.15294251853E+02 -0.16181434073E+03  0.16262852290E+03  0.00000000000E+00 0. -1.
         22    1    3    3    0    0  0.53631919746E+02 -0.28356790271E+02 -0.15508451853E+02  0.62617908373E+02  0.00000000000E+00 0. -1.
</event>
<event>
 7    1  0.6278987E-006  0.7434942E+02  0.7818608E-02  0.1416409E+00
          2   -1    0    0  502    0  0.00000000000E+00  0.00000000000E+00  0.18847921410E+04  0.18847921410E+04  0.00000000000E+00 0. -1.
          1   -1    0    0  501    0 -0.00000000000E+00 -0.00000000000E+00 -0.11937132061E+04  0.11937132061E+04  0.00000000000E+00 0. -1.
         25    2    1    2    0    0 -0.14208570120E+02  0.39935832395E+02 -0.22204607125E+02  0.13384777958E+03  0.12500171738E+03 0.  0.
          2    1    1    2  501    0 -0.92520616968E+01 -0.74604109323E+02 -0.11141807120E+04  0.11167139440E+04  0.00000000000E+00 0. -1.
          1    1    1    2  502    0  0.23460631816E+02  0.34668276927E+02  0.18274642541E+04  0.18279436235E+04  0.00000000000E+00 0. -1.
         22    1    3    3    0    0 -0.58138307055E+02 -0.87215979470E+01  0.11856752954E+02  0.59972590478E+02  0.00000000000E+00 0. -1.
         22    1    3    3    0    0  0.43929736936E+02  0.48657430342E+02 -0.34061360079E+02  0.73875189104E+02  0.00000000000E+00 0. -1.
</event>
<event>
 7    1  0.6278987E-006  0.8020375E+02  0.7818608E-02  0.1505578E+00
          2   -1    0    0  502    0  0.00000000000E+00  0.00000000000E+00  0.87775426380E+03  0.87775426380E+03  0.00000000000E+00 0. -1.
          1   -1    0    0  501    0 -0.00000000000E+00 -0.00000000000E+00 -0.44829187544E+03  0.44829187544E+03  0.00000000000E+00 0. -1.
         25    2    1    2    0    0  0.86614576969E+02  0.27593008649E+02  0.12433363764E+03  0.19836143039E+03  0.12499977818E+03 0.  0.
          2    1    1    2  501    0 -0.16992158804E+02  0.11124863812E+02 -0.40881045313E+03  0.40931464993E+03  0.00000000000E+00 0. -1.
          1    1    1    2  502    0 -0.69622418165E+02 -0.38717872461E+02  0.71393920385E+03  0.71837005892E+03  0.00000000000E+00 0. -1.
         22    1    3    3    0    0  0.26369313468E+02  0.60666829868E+02  0.12835630931E+02  0.67383665383E+02  0.00000000000E+00 0. -1.
         22    1    3    3    0    0  0.60245263501E+02 -0.33073821219E+02  0.11149800671E+03  0.13097776500E+03  0.00000000000E+00 0. -1.
</event>
<event>
 7    1  0.6278987E-006  0.5506057E+02  0.7818608E-02  0.1467248E+00
          2   -1    0    0  502    0  0.00000000000E+00  0.00000000000E+00  0.15190710671E+04  0.15190710671E+04  0.00000000000E+00 0. -1.
          1   -1    0    0  501    0 -0.00000000000E+00 -0.00000000000E+00 -0.26514617760E+03  0.26514617760E+03  0.00000000000E+00 0. -1.
         25    2    1    2    0    0  0.17744528472E+02 -0.17067017637E+02  0.17980572954E+02  0.12865896954E+03  0.12499471212E+03 0.  0.
          2    1    1    2  501    0 -0.12711849297E+02  0.55430737319E+02 -0.20568890314E+03  0.21340591048E+03  0.00000000000E+00 0. -1.
          1    1    1    2  502    0 -0.50326791748E+01 -0.38363719682E+02  0.14416332197E+04  0.14421523646E+04  0.00000000000E+00 0. -1.
         22    1    3    3    0    0 -0.28761237602E+02 -0.26932920878E+02  0.55521868589E+02  0.68082809188E+02  0.00000000000E+00 0. -1.
         22    1    3    3    0    0  0.46505766074E+02  0.98659032403E+01 -0.37541295635E+02  0.60576160351E+02  0.00000000000E+00 0. -1.
</event>
<event>
 7    1  0.6278987E-006  0.7818798E+02  0.7818608E-02  0.1432893E+00
          2   -1    0    0  502    0  0.00000000000E+00  0.00000000000E+00  0.15820431519E+03  0.15820431519E+03  0.00000000000E+00 0. -1.
          1   -1    0    0  501    0 -0.00000000000E+00 -0.00000000000E+00 -0.11890019245E+04  0.11890019245E+04  0.00000000000E+00 0. -1.
         25    2    1    2    0    0 -0.66073319041E+02  0.14853805353E+02 -0.59815975201E+02  0.15423788944E+03  0.12500022651E+03 0.  0.
          2    1    1    2  501    0 -0.12319662812E+02 -0.32862251689E+02 -0.10670761139E+04  0.10676530966E+04  0.00000000000E+00 0. -1.
          1    1    1    2  502    0  0.78392981854E+02  0.18008446335E+02  0.96094479842E+02  0.12531525366E+03  0.00000000000E+00 0. -1.
         22    1    3    3    0    0  0.53169891781E+01  0.27081331463E+01  0.34677442292E+02  0.35187062438E+02  0.00000000000E+00 0. -1.
         22    1    3    3    0    0 -0.71390308219E+02  0.12145672207E+02 -0.94493417494E+02  0.11905082701E+03  0.00000000000E+00 0. -1.
</event>
<event>
 7    1  0.6278987E-006  0.7991654E+02  0.7818608E-02  0.1472631E+00
          2   -1    0    0  502    0  0.00000000000E+00  0.00000000000E+00  0.70701700783E+03  0.70701700783E+03  0.00000000000E+00 0. -1.
          1   -1    0    0  501    0 -0.00000000000E+00 -0.00000000000E+00 -0.43958524174E+03  0.43958524174E+03  0.00000000000E+00 0. -1.
         25    2    1    2    0    0 -0.65117765274E+02 -0.46018845087E+02  0.53494457868E+02  0.15762038044E+03  0.12499787938E+03 0.  0.
          2    1    1    2  501    0 -0.11594631830E+02  0.22879510171E+02 -0.38442440552E+03  0.38527915987E+03  0.00000000000E+00 0. -1.
          1    1    1    2  502    0  0.76712397104E+02  0.23139334916E+02  0.59836171374E+03  0.60370270926E+03  0.00000000000E+00 0. -1.
         22    1    3    3    0    0 -0.22528406392E+00  0.22593660906E+02 -0.25808037933E+02  0.34301298634E+02  0.00000000000E+00 0.  1.
         22    1    3    3    0    0 -0.64892481210E+02 -0.68612505993E+02  0.79302495801E+02  0.12331908180E+03  0.00000000000E+00 0.  1.
</event>
<event>
 7    1  0.6278987E-006  0.7859134E+02  0.7818608E-02  0.1400206E+00
          2   -1    0    0  502    0  0.00000000000E+00  0.00000000000E+00  0.58764384352E+03  0.58764384352E+03  0.00000000000E+00 0. -1.
          1   -1    0    0  501    0 -0.00000000000E+00 -0.00000000000E+00 -0.13352235490E+04  0.13352235490E+04  0.00000000000E+00 0. -1.
         25    2    1    2    0    0 -0.92804716493E+02 -0.31498682519E+02  0.15053043820E+02  0.15955212266E+03  0.12500161325E+03 0.  0.
          2    1    1    2  501    0  0.77710731424E+02 -0.10843814790E+02 -0.12607422358E+04  0.12631815116E+04  0.00000000000E+00 0. -1.
          1    1    1    2  502    0  0.15093985069E+02  0.42342497309E+02  0.49810948658E+03  0.50013375819E+03  0.00000000000E+00 0. -1.
         22    1    3    3    0    0 -0.27578063996E+02 -0.65450619654E+02  0.40475966033E+02  0.81747397837E+02  0.00000000000E+00 0. -1.
         22    1    3    3    0    0 -0.65226652497E+02  0.33951937135E+02 -0.25422922213E+02  0.77804724824E+02  0.00000000000E+00 0. -1.
</event>
<event>
 7    1  0.6278987E-006  0.9745296E+02  0.7818608E-02  0.1390130E+00
          2   -1    0    0  502    0  0.00000000000E+00  0.00000000000E+00  0.19755310657E+02  0.19755310657E+02  0.00000000000E+00 0. -1.
          1   -1    0    0  501    0 -0.00000000000E+00 -0.00000000000E+00 -0.14353095802E+04  0.14353095802E+04  0.00000000000E+00 0. -1.
         25    2    1    2    0    0  0.71015515116E+02  0.51398616223E+02 -0.98996296523E+03  0.10016660673E+04  0.12499286701E+03 0.  0.
          2    1    1    2  501    0  0.27040526891E+02 -0.28497851303E+02 -0.23080750340E+03  0.23412693405E+03  0.00000000000E+00 0. -1.
          1    1    1    2  502    0 -0.98056042006E+02 -0.22900764920E+02 -0.19478380089E+03  0.21927188943E+03  0.00000000000E+00 0. -1.
         22    1    3    3    0    0 -0.31171042808E+02 -0.99116790609E+01 -0.17409894092E+03  0.17714490261E+03  0.00000000000E+00 0.  1.
         22    1    3    3    0    0  0.10218655792E+03  0.61310295284E+02 -0.81586402431E+03  0.82452116473E+03  0.00000000000E+00 0.  1.
</event>
<event>
 7    1  0.6278987E-006  0.2473313E+03  0.7818608E-02  0.1151341E+00
          2   -1    0    0  502    0  0.00000000000E+00  0.00000000000E+00  0.29271542344E+03  0.29271542344E+03  0.00000000000E+00 0. -1.
          1   -1    0    0  501    0 -0.00000000000E+00 -0.00000000000E+00 -0.10847006549E+04  0.10847006549E+04  0.00000000000E+00 0. -1.
         25    2    1    2    0    0  0.34794791174E+02 -0.22012899851E+03 -0.63423781953E+03  0.68377769252E+03  0.12500747016E+03 0.  0.
          2    1    1    2  501    0  0.83198443449E+02  0.32624119934E+03 -0.32155700356E+03  0.46556869276E+03  0.00000000000E+00 0. -1.
          1    1    1    2  502    0 -0.11799323462E+03 -0.10611220082E+03  0.16380959163E+03  0.22806969306E+03  0.00000000000E+00 0. -1.
         22    1    3    3    0    0 -0.44285869936E+02 -0.11943469625E+03 -0.30622375447E+03  0.33166077963E+03  0.00000000000E+00 0. -1.
         22    1    3    3    0    0  0.79080661110E+02 -0.10069430226E+03 -0.32801406506E+03  0.35211691289E+03  0.00000000000E+00 0. -1.
</event>
<event>
 7    1  0.6278987E-006  0.9969315E+02  0.7818608E-02  0.1307882E+00
          2   -1    0    0  502    0  0.00000000000E+00  0.00000000000E+00  0.45525743448E+02  0.45525743448E+02  0.00000000000E+00 0. -1.
          1   -1    0    0  501    0 -0.00000000000E+00 -0.00000000000E+00 -0.10877214847E+04  0.10877214847E+04  0.00000000000E+00 0. -1.
         25    2    1    2    0    0  0.14887132298E+03  0.36801639350E+02 -0.46803388047E+03  0.50813175490E+03  0.12500054245E+03 0.  0.
          2    1    1    2  501    0 -0.75586390247E+02  0.17555349740E+02 -0.50420188684E+03  0.51013825125E+03  0.00000000000E+00 0. -1.
          1    1    1    2  502    0 -0.73284932728E+02 -0.54356989090E+02 -0.69959973997E+02  0.11497722205E+03  0.00000000000E+00 0. -1.
         22    1    3    3    0    0  0.12476360175E+03  0.76644293166E+02 -0.39750316885E+03  0.42361429773E+03  0.00000000000E+00 0. -1.
         22    1    3    3    0    0  0.24107721222E+02 -0.39842653816E+02 -0.70530711619E+02  0.84517457173E+02  0.00000000000E+00 0. -1.
</event>
<event>
 7    1  0.6278987E-006  0.3293351E+03  0.7818608E-02  0.1253692E+00
          2   -1    0    0  502    0  0.00000000000E+00  0.00000000000E+00  0.34283919518E+03  0.34283919518E+03  0.00000000000E+00 0. -1.
          1   -1    0    0  501    0 -0.00000000000E+00 -0.00000000000E+00 -0.48138974183E+03  0.48138974183E+03  0.00000000000E+00 0. -1.
         25    2    1    2    0    0  0.19233925622E+03 -0.26309475855E+03 -0.12809346707E+03  0.37181604199E+03  0.12500396520E+03 0.  0.
          2    1    1    2  501    0 -0.22712836559E+03  0.24476531272E+03 -0.10498901084E+03  0.35002863478E+03  0.00000000000E+00 0. -1.
          1    1    1    2  502    0  0.34789109375E+02  0.18329445825E+02  0.94531931268E+02  0.10238426024E+03  0.00000000000E+00 0. -1.
         22    1    3    3    0    0 -0.17692594926E+02 -0.13762522896E+02 -0.29175405045E+01  0.22604136663E+02  0.00000000000E+00 0.  1.
         22    1    3    3    0    0  0.21003185114E+03 -0.24933223565E+03 -0.12517592656E+03  0.34921190533E+03  0.00000000000E+00 0.  1.
</event>
<event>
 7    1  0.6278987E-006  0.7004708E+02  0.7818608E-02  0.1447908E+00
          2   -1    0    0  502    0  0.00000000000E+00  0.00000000000E+00  0.16434819011E+03  0.16434819011E+03  0.00000000000E+00 0. -1.
          1   -1    0    0  501    0 -0.00000000000E+00 -0.00000000000E+00 -0.86187460949E+03  0.86187460949E+03  0.00000000000E+00 0. -1.
         25    2    1    2    0    0  0.17255693745E+01 -0.74675727771E+02 -0.29044693446E+03  0.32490702746E+03  0.12500285135E+03 0.  0.
          2    1    1    2  501    0  0.32366250907E+02  0.13368693149E+02 -0.54524189237E+03  0.54636527832E+03  0.00000000000E+00 0. -1.
          1    1    1    2  502    0 -0.34091820281E+02  0.61307034622E+02  0.13816240745E+03  0.15495049383E+03  0.00000000000E+00 0. -1.
         22    1    3    3    0    0 -0.53437344872E+02 -0.82869299045E+00 -0.10615524949E+03  0.11884937338E+03  0.00000000000E+00 0. -1.
         22    1    3    3    0    0  0.55162914247E+02 -0.73847034781E+02 -0.18429168497E+03  0.20605765408E+03  0.00000000000E+00 0. -1.
</event>
<event>
 7    1  0.6278987E-006  0.6110055E+02  0.7818608E-02  0.1511417E+00
          2   -1    0    0  502    0  0.00000000000E+00  0.00000000000E+00  0.26104102360E+03  0.26104102360E+03  0.00000000000E+00 0. -1.
          1   -1    0    0  501    0 -0.00000000000E+00 -0.00000000000E+00 -0.41171340172E+03  0.41171340172E+03  0.00000000000E+00 0. -1.
         25    2    1    2    0    0 -0.21495715018E+02  0.43073658509E+02  0.33347762314E+02  0.13803778262E+03  0.12499980143E+03 0.  0.
          2    1    1    2  501    0 -0.25583019065E+02 -0.14379910518E+01 -0.35325785402E+03  0.35418592591E+03  0.00000000000E+00 0. -1.
          1    1    1    2  502    0  0.47078734083E+02 -0.41635667457E+02  0.16923771358E+03  0.18053071679E+03  0.00000000000E+00 0. -1.
         22    1    3    3    0    0 -0.61082498148E+02  0.16095756703E+02  0.56574485609E+02  0.84798687406E+02  0.00000000000E+00 0. -1.
         22    1    3    3    0    0  0.39586783130E+02  0.26977901806E+02 -0.23226723295E+02  0.53239095217E+02  0.00000000000E+00 0. -1.
</event>
<event>
 7    1  0.6278987E-006  0.1368031E+03  0.7818608E-02  0.1330145E+00
          2   -1    0    0  502    0  0.00000000000E+00  0.00000000000E+00  0.24351975746E+04  0.24351975746E+04  0.00000000000E+00 0. -1.
          1   -1    0    0  501    0 -0.00000000000E+00 -0.00000000000E+00 -0.38981200189E+03  0.38981200189E+03  0.00000000000E+00 0. -1.
         25    2    1    2    0    0 -0.11540902178E+03  0.54726145388E+02  0.12074968893E+03  0.21568434219E+03  0.12500021917E+03 0.  0.
          2    1    1    2  501    0 -0.21429788686E+02 -0.41080832909E+02 -0.33868034821E+03  0.34183511952E+03  0.00000000000E+00 0. -1.
          1    1    1    2  502    0  0.13683881047E+03 -0.13645312479E+02  0.22633162320E+04  0.22674901148E+04  0.00000000000E+00 0. -1.
         22    1    3    3    0    0 -0.48536244272E+02  0.90398489274E+02  0.63050634553E+02  0.12042855304E+03  0.00000000000E+00 0. -1.
         22    1    3    3    0    0 -0.66872777508E+02 -0.35672343885E+02  0.57699054382E+02  0.95255789149E+02  0.00000000000E+00 0. -1.
</event>
<event>
 7    1  0.6278987E-006  0.5460612E+02  0.7818608E-02  0.1437383E+00
          2   -1    0    0  502    0  0.00000000000E+00  0.00000000000E+00  0.18473076724E+03  0.18473076724E+03  0.00000000000E+00 0. -1.
          1   -1    0    0  501    0 -0.00000000000E+00 -0.00000000000E+00 -0.28475146574E+03  0.28475146574E+03  0.00000000000E+00 0. -1.
         25    2    1    2    0    0 -0.43931338017E+02  0.78713991156E+02 -0.21879660037E+03  0.26762503251E+03  0.12500140331E+03 0.  0.
          2    1    1    2  501    0 -0.94973759422E+00 -0.48572854120E+02 -0.20292513779E+02  0.52649883897E+02  0.00000000000E+00 0. -1.
          1    1    1    2  502    0  0.44881075611E+02 -0.30141137036E+02  0.13906841564E+03  0.14920731657E+03  0.00000000000E+00 0. -1.
         22    1    3    3    0    0 -0.55586542274E+02  0.70513673333E+02 -0.23164453198E+03  0.24843757970E+03  0.00000000000E+00 0. -1.
         22    1    3    3    0    0  0.11655204257E+02  0.82003178234E+01  0.12847931613E+02  0.19187452812E+02  0.00000000000E+00 0. -1.
</event>
<event>
 7    1  0.6278987E-006  0.1178882E+03  0.7818608E-02  0.1328599E+00
          2   -1    0    0  502    0  0.00000000000E+00  0.00000000000E+00  0.56593459730E+03  0.56593459730E+03  0.00000000000E+00 0. -1.
          1   -1    0    0  501    0 -0.00000000000E+00 -0.00000000000E+00 -0.77016793759E+03  0.77016793759E+03  0.00000000000E+00 0. -1.
         25    2    1    2    0    0  0.11969067405E+03  0.28571973720E+02 -0.16149497662E+03  0.23842842539E+03  0.12500108569E+03 0.  0.
          2    1    1    2  501    0 -0.91788612876E+02 -0.75394225552E+02 -0.56257980521E+03  0.57498302230E+03  0.00000000000E+00 0. -1.
          1    1    1    2  502    0 -0.27902061174E+02  0.46822251832E+02  0.51984144155E+03  0.52269108720E+03  0.00000000000E+00 0. -1.
         22    1    3    3    0    0  0.60951502669E+02  0.47966102543E+02 -0.14442221674E+02  0.78894932902E+02  0.00000000000E+00 0.  1.
         22    1    3    3    0    0  0.58739171381E+02 -0.19394128823E+02 -0.14705275495E+03  0.15953349249E+03  0.00000000000E+00 0.  1.
</event>
<event>
 7    1  0.6278987E-006  0.4944180E+03  0.7818608E-02  0.1064076E+00
          2   -1    0    0  502    0  0.00000000000E+00  0.00000000000E+00  0.17282321277E+04  0.17282321277E+04  0.00000000000E+00 0. -1.
          1   -1    0    0  501    0 -0.00000000000E+00 -0.00000000000E+00 -0.67759934908E+03  0.67759934908E+03  0.00000000000E+00 0. -1.
         25    2    1    2    0    0 -0.36035360706E+03 -0.22940839605E+03  0.20113107772E+03  0.48843117981E+03  0.12501349001E+03 0.  0.
          2    1    1    2  501    0 -0.16853053776E+03  0.17476265129E+03 -0.45111578550E+03  0.51229871986E+03  0.00000000000E+00 0. -1.
          1    1    1    2  502    0  0.52888414482E+03  0.54645744763E+02  0.13006174864E+04  0.14051015771E+04  0.00000000000E+00 0. -1.
         22    1    3    3    0    0 -0.14008615272E+03 -0.33721466504E+02  0.10578577415E+03  0.17875093706E+03  0.00000000000E+00 0.  1.
         22    1    3    3    0    0 -0.22026745434E+03 -0.19568692955E+03  0.95345303574E+02  0.30968024275E+03  0.00000000000E+00 0.  1.
</event>
<event>
 7    1  0.6278987E-006  0.2003374E+03  0.7818608E-02  0.1189598E+00
          2   -1    0    0  502    0  0.00000000000E+00  0.00000000000E+00  0.67498656705E+03  0.67498656705E+03  0.00000000000E+00 0. -1.
          1   -1    0    0  501    0 -0.00000000000E+00 -0.00000000000E+00 -0.14670380736E+04  0.14670380736E+04  0.00000000000E+00 0. -1.
         25    2    1    2    0    0 -0.91897532725E+02 -0.25689830305E+03 -0.14258926783E+03  0.33225854792E+03  0.12498859442E+03 0.  0.
          2    1    1    2  501    0 -0.18644277203E+02  0.19536085496E+03 -0.12147465854E+04  0.12304969482E+04  0.00000000000E+00 0. -1.
          1    1    1    2  502    0  0.11054180993E+03  0.61537448093E+02  0.56528434667E+03  0.57926914457E+03  0.00000000000E+00 0. -1.
         22    1    3    3    0    0 -0.11943420978E+03 -0.19109873835E+03 -0.12895025360E+03  0.25963710476E+03  0.00000000000E+00 0. -1.
         22    1    3    3    0    0  0.27536677052E+02 -0.65799564705E+02 -0.13639014236E+02  0.72621443168E+02  0.00000000000E+00 0. -1.
</event>
<event>
 7    1  0.6278987E-006  0.7851460E+02  0.7818608E-02  0.1357010E+00
          2   -1    0    0  502    0  0.00000000000E+00  0.00000000000E+00  0.36467718708E+04  0.36467718708E+04  0.00000000000E+00 0. -1.
          1   -1    0    0  501    0 -0.00000000000E+00 -0.00000000000E+00 -0.18446848398E+04  0.18446848398E+04  0.00000000000E+00 0. -1.
         25    2    1    2    0    0 -0.12486048297E+03  0.38898689391E+02  0.19457759650E+03  0.26569100007E+03  0.12501207228E+03 0.  0.
          2    1    1    2  501    0  0.63404117007E+02  0.90752253419E+01 -0.18081162527E+04  0.18092503489E+04  0.00000000000E+00 0. -1.
          1    1    1    2  502    0  0.61456365961E+02 -0.47973914732E+02  0.34156256872E+04  0.34165153617E+04  0.00000000000E+00 0. -1.
         22    1    3    3    0    0 -0.12237012074E+02 -0.39126791060E+02  0.26370366465E+02  0.48744707104E+02  0.00000000000E+00 0.  1.
         22    1    3    3    0    0 -0.11262347089E+03  0.78025480450E+02  0.16820723003E+03  0.21694629296E+03  0.00000000000E+00 0.  1.
</event>
<event>
 7    1  0.6278987E-006  0.5928935E+02  0.7818608E-02  0.1543092E+00
          2   -1    0    0  502    0  0.00000000000E+00  0.00000000000E+00  0.26310327660E+03  0.26310327660E+03  0.00000000000E+00 0. -1.
          1   -1    0    0  501    0 -0.00000000000E+00 -0.00000000000E+00 -0.55350099712E+03  0.55350099712E+03  0.00000000000E+00 0. -1.
         25    2    1    2    0    0 -0.33482008186E+02  0.42918899492E+02 -0.47145143090E+03  0.49076942995E+03  0.12500041949E+03 0.  0.
          2    1    1    2  501    0 -0.17435886362E+02 -0.12424360601E+02 -0.67229574267E+02  0.70556293311E+02  0.00000000000E+00 0. -1.
          1    1    1    2  502    0  0.50917894548E+02 -0.30494538890E+02  0.24828328465E+03  0.25527855046E+03  0.00000000000E+00 0. -1.
         22    1    3    3    0    0  0.79816616634E+01  0.62479347113E+02 -0.11275645908E+03  0.12915647411E+03  0.00000000000E+00 0.  1.
         22    1    3    3    0    0 -0.41463669850E+02 -0.19560447621E+02 -0.35869497182E+03  0.36161295585E+03  0.00000000000E+00 0.  1.
</event>
<event>
 7    1  0.6278987E-006  0.9801679E+02  0.7818608E-02  0.1303797E+00
          2   -1    0    0  502    0  0.00000000000E+00  0.00000000000E+00  0.60703088623E+03  0.60703088623E+03  0.00000000000E+00 0. -1.
          1   -1    0    0  501    0 -0.00000000000E+00 -0.00000000000E+00 -0.96896826360E+02  0.96896826360E+02  0.00000000000E+00 0. -1.
         25    2    1    2    0    0  0.67407339471E+02  0.55209092788E+02  0.13822744858E+03  0.20572670612E+03  0.12499942691E+03 0.  0.
          2    1    1    2  501    0 -0.10686699306E+03  0.16587111980E+02 -0.90596766982E+01  0.10852540823E+03  0.00000000000E+00 0. -1.
          1    1    1    2  502    0  0.39459653592E+02 -0.71796204767E+02  0.38096628799E+03  0.38967559824E+03  0.00000000000E+00 0. -1.
         22    1    3    3    0    0  0.34133348881E+02 -0.22217139813E+02 -0.34574440528E+01  0.40873472163E+02  0.00000000000E+00 0.  1.
         22    1    3    3    0    0  0.33273990591E+02  0.77426232600E+02  0.14168489264E+03  0.16485323396E+03  0.00000000000E+00 0.  1.
</event>
<event>
 7    1  0.6278987E-006  0.1310796E+03  0.7818608E-02  0.1276396E+00
          2   -1    0    0  502    0  0.00000000000E+00  0.00000000000E+00  0.54357580397E+03  0.54357580397E+03  0.00000000000E+00 0. -1.
          1   -1    0    0  501    0 -0.00000000000E+00 -0.00000000000E+00 -0.49715985222E+03  0.49715985222E+03  0.00000000000E+00 0. -1.
         25    2    1    2    0    0 -0.95603325088E+02 -0.14940657717E+02  0.92445707314E+02  0.18312114744E+03  0.12499570720E+03 0.  0.
          2    1    1    2  501    0 -0.14885204480E+02 -0.77770030921E+02 -0.43532071134E+03  0.44246340950E+03  0.00000000000E+00 0. -1.
          1    1    1    2  502    0  0.11048852957E+03  0.92710688638E+02  0.38929095578E+03  0.41515109925E+03  0.00000000000E+00 0. -1.
         22    1    3    3    0    0 -0.24840930942E+02  0.39025320690E+02  0.81156823784E+02  0.93415617279E+02  0.00000000000E+00 0. -1.
         22    1    3    3    0    0 -0.70762394146E+02 -0.53965978407E+02  0.11288883530E+02  0.89705530165E+02  0.00000000000E+00 0. -1.
</event>
<event>
 7    1  0.6278987E-006  0.5320895E+02  0.7818608E-02  0.1458171E+00
          2   -1    0    0  502    0  0.00000000000E+00  0.00000000000E+00  0.13282164168E+03  0.13282164168E+03  0.00000000000E+00 0. -1.
          1   -1    0    0  501    0 -0.00000000000E+00 -0.00000000000E+00 -0.32566140913E+03  0.32566140913E+03  0.00000000000E+00 0. -1.
         25    2    1    2    0    0  0.79921469936E+02 -0.44445462660E+02 -0.14031959873E+03  0.20898964528E+03  0.12499696611E+03 0.  0.
          2    1    1    2  501    0 -0.42670103514E+02  0.23457088163E+02 -0.14211157607E+03  0.15022207818E+03  0.00000000000E+00 0. -1.
          1    1    1    2  502    0 -0.37251366422E+02  0.20988374498E+02  0.89591407345E+02  0.99271327353E+02  0.00000000000E+00 0. -1.
         22    1    3    3    0    0  0.32244732005E+02 -0.69251332127E+02 -0.22729732446E+02  0.79700128484E+02  0.00000000000E+00 0. -1.
         22    1    3    3    0    0  0.47676737930E+02  0.24805869466E+02 -0.11758986629E+03  0.12928951679E+03  0.00000000000E+00 0. -1.
</event>
<event>
 7    1  0.6278987E-006  0.6970108E+02  0.7818608E-02  0.1439293E+00
          2   -1    0    0  502    0  0.00000000000E+00  0.00000000000E+00  0.27469889979E+03  0.27469889979E+03  0.00000000000E+00 0. -1.
          1   -1    0    0  501    0 -0.00000000000E+00 -0.00000000000E+00 -0.94075641310E+03  0.94075641310E+03  0.00000000000E+00 0. -1.
         25    2    1    2    0    0  0.51164373433E+01 -0.34684284768E+02 -0.78667067642E+02  0.15179861469E+03  0.12500053740E+03 0.  0.
          2    1    1    2  501    0  0.40276660601E+01  0.71073260028E+02 -0.82249860056E+03  0.82557348450E+03  0.00000000000E+00 0. -1.
          1    1    1    2  502    0 -0.91441034034E+01 -0.36388975260E+02  0.23510815490E+03  0.23808321370E+03  0.00000000000E+00 0. -1.
         22    1    3    3    0    0 -0.11018915109E+02 -0.11777842370E+02 -0.10918462037E+03  0.11036944952E+03  0.00000000000E+00 0.  1.
         22    1    3    3    0    0  0.16135352453E+02 -0.22906442398E+02  0.30517552731E+02  0.41429165171E+02  0.00000000000E+00 0.  1.
</event>
<event>
 7    1  0.6278987E-006  0.1190847E+03  0.7818608E-02  0.1376347E+00
          2   -1    0    0  502    0  0.00000000000E+00  0.00000000000E+00  0.38889916990E+03  0.38889916990E+03  0.00000000000E+00 0. -1.
          1   -1    0    0  501    0 -0.00000000000E+00 -0.00000000000E+00 -0.17779525552E+04  0.17779525552E+04  0.00000000000E+00 0. -1.
         25    2    1    2    0    0 -0.37847640092E+02  0.75132669216E+02 -0.32687693724E+03  0.35993171529E+03  0.12499978292E+03 0.  0.
          2    1    1    2  501    0 -0.15242290016E+02  0.32563309615E+02 -0.14246363723E+04  0.14250899936E+04  0.00000000000E+00 0. -1.
          1    1    1    2  502    0  0.53089930108E+02 -0.10769597883E+03  0.36245992429E+03  0.38183001618E+03  0.00000000000E+00 0. -1.
         22    1    3    3    0    0 -0.12258384456E+02  0.99962850683E+02 -0.15827051283E+03  0.18759636121E+03  0.00000000000E+00 0.  1.
         22    1    3    3    0    0 -0.25589255636E+02 -0.24830181467E+02 -0.16860642441E+03  0.17233535408E+03  0.00000000000E+00 0.  1.
</event>
<event>
 7    1  0.6278987E-006  0.1057964E+03  0.7818608E-02  0.1286100E+00
          2   -1    0    0  502    0  0.00000000000E+00  0.00000000000E+00  0.78698767451E+03  0.78698767451E+03  0.00000000000E+00 0. -1.
          1   -1    0    0  501    0 -0.00000000000E+00 -0.00000000000E+00 -0.13526557045E+04  0.13526557045E+04  0.00000000000E+00 0. -1.
         25    2    1    2    0    0 -0.15233462034E+03  0.79709342875E+02 -0.10264757249E+04  0.10482547669E+04  0.12500490565E+03 0.  0.
          2    1    1    2  501    0  0.89324287927E+02  0.50626007703E+01 -0.30524598467E+03  0.31808736143E+03  0.00000000000E+00 0. -1.
          1    1    1    2  502    0  0.63010332412E+02 -0.84771943645E+02  0.76605367960E+03  0.77330125077E+03  0.00000000000E+00 0. -1.
         22    1    3    3    0    0 -0.13011327535E+03  0.10296225860E+02 -0.49985248170E+03  0.51661202091E+03  0.00000000000E+00 0.  1.
         22    1    3    3    0    0 -0.22221344988E+02  0.69413117015E+02 -0.52662324324E+03  0.53164274594E+03  0.00000000000E+00 0.  1.
</event>
<event>
 7    1  0.6278987E-006  0.5638835E+02  0.7818608E-02  0.1424926E+00
          2   -1    0    0  502    0  0.00000000000E+00  0.00000000000E+00  0.59003377069E+03  0.59003377069E+03  0.00000000000E+00 0. -1.
          1   -1    0    0  501    0 -0.00000000000E+00 -0.00000000000E+00 -0.19968445201E+03  0.19968445201E+03  0.00000000000E+00 0. -1.
         25    2    1    2    0    0 -0.76521608556E+01 -0.51552658924E+01  0.14792374171E+02  0.12620853478E+03  0.12499859033E+03 0.  0.
          2    1    1    2  501    0  0.55900135278E+02  0.23724354694E+02 -0.13621237573E+03  0.14913578186E+03  0.00000000000E+00 0. -1.
          1    1    1    2  502    0 -0.48247974423E+02 -0.18569088802E+02  0.51176932024E+03  0.51437390606E+03  0.00000000000E+00 0. -1.
         22    1    3    3    0    0 -0.53666947172E+02  0.12961996693E+02  0.42362314702E+02  0.69589656443E+02  0.00000000000E+00 0.  1.
         22    1    3    3    0    0  0.46014786316E+02 -0.18117262586E+02 -0.27569940531E+02  0.56618878337E+02  0.00000000000E+00 0.  1.
</event>
<event>
 7    1  0.6278987E-006  0.1361534E+03  0.7818608E-02  0.1406717E+00
          2   -1    0    0  502    0  0.00000000000E+00  0.00000000000E+00  0.38955012563E+03  0.38955012563E+03  0.00000000000E+00 0. -1.
          1   -1    0    0  501    0 -0.00000000000E+00 -0.00000000000E+00 -0.22103332865E+03  0.22103332865E+03  0.00000000000E+00 0. -1.
         25    2    1    2    0    0  0.10007323620E+03 -0.80466946014E+02  0.94260152139E+02  0.20248392967E+03  0.12500073395E+03 0.  0.
          2    1    1    2  501    0 -0.12065001128E+03  0.66893687220E+02 -0.13758096974E+03  0.19483252769E+03  0.00000000000E+00 0. -1.
          1    1    1    2  502    0  0.20576775082E+02  0.13573258794E+02  0.21183761457E+03  0.21326699692E+03  0.00000000000E+00 0. -1.
         22    1    3    3    0    0  0.25430185455E+02  0.27250114675E+02  0.53569117602E+02  0.65260351230E+02  0.00000000000E+00 0. -1.
         22    1    3    3    0    0  0.74643050744E+02 -0.10771706069E+03  0.40691034538E+02  0.13722357844E+03  0.00000000000E+00 0. -1.
</event>
<event>
 7    1  0.6278987E-006  0.7138219E+02  0.7818608E-02  0.1480596E+00
          2   -1    0    0  502    0  0.00000000000E+00  0.00000000000E+00  0.10538840171E+04  0.10538840171E+04  0.00000000000E+00 0. -1.
          1   -1    0    0  501    0 -0.00000000000E+00 -0.00000000000E+00 -0.95370106684E+02  0.95370106684E+02  0.00000000000E+00 0. -1.
         25    2    1    2    0    0 -0.66093310685E+02 -0.37706557131E+02  0.28654141197E+03  0.32174717073E+03  0.12500060371E+03 0.  0.
          2    1    1    2  501    0  0.20793197914E+02 -0.17439346470E+02 -0.73642775535E+02  0.78484051076E+02  0.00000000000E+00 0. -1.
          1    1    1    2  502    0  0.45300112771E+02  0.55145903600E+02  0.74561527400E+03  0.74902290200E+03  0.00000000000E+00 0. -1.
         22    1    3    3    0    0 -0.14489491630E+02 -0.64911807256E+02  0.66298327063E+02  0.93909298050E+02  0.00000000000E+00 0.  1.
         22    1    3    3    0    0 -0.51603819055E+02  0.27205250125E+02  0.22024308491E+03  0.22783787268E+03  0.00000000000E+00 0.  1.
</event>
<event>
 7    1  0.6278987E-006  0.8624351E+02  0.7818608E-02  0.1353422E+00
          2   -1    0    0  502    0  0.00000000000E+00  0.00000000000E+00  0.56350062141E+03  0.56350062141E+03  0.00000000000E+00 0. -1.
          1   -1    0    0  501    0 -0.00000000000E+00 -0.00000000000E+00 -0.22272114584E+04  0.22272114584E+04  0.00000000000E+00 0. -1.
         25    2    1    2    0    0 -0.30279859464E+02 -0.71379163844E+02 -0.69627861478E+02  0.16274122603E+03  0.12499925053E+03 0.  0.
          2    1    1    2  501    0 -0.48891020530E+02  0.34967302767E+02 -0.21069227697E+04  0.21077800174E+04  0.00000000000E+00 0. -1.
          1    1    1    2  502    0  0.79170879994E+02  0.36411861077E+02  0.51283979415E+03  0.52019083646E+03  0.00000000000E+00 0. -1.
         22    1    3    3    0    0 -0.31937988099E+02 -0.40903074028E+02  0.29035016856E+02  0.59465357584E+02  0.00000000000E+00 0. -1.
         22    1    3    3    0    0  0.16581286347E+01 -0.30476089817E+02 -0.98662878335E+02  0.10327586844E+03  0.00000000000E+00 0. -1.
</event>
<event>
 7    1  0.6278987E-006  0.4860137E+02  0.7818608E-02  0.1482410E+00
          2   -1    0    0  502    0  0.00000000000E+00  0.00000000000E+00  0.56574026496E+02  0.56574026496E+02  0.00000000000E+00 0. -1.
          1   -1    0    0  501    0 -0.00000000000E+00 -0.00000000000E+00 -0.20978585595E+04  0.20978585595E+04  0.00000000000E+00 0. -1.
         25    2    1    2    0    0  0.80838946912E+01  0.16986898169E+02 -0.11038252566E+04  0.11110405635E+04  0.12500812990E+03 0.  0.
          2    1    1    2  501    0  0.31588502535E+00 -0.55432274152E+02 -0.98222532971E+03  0.98378830809E+03  0.00000000000E+00 0. -1.
          1    1    1    2  502    0 -0.83997797165E+01  0.38445375982E+02  0.44766053358E+02  0.59603714373E+02  0.00000000000E+00 0. -1.
         22    1    3    3    0    0  0.25517870663E+02  0.45100950644E+02 -0.10139036022E+04  0.10152269559E+04  0.00000000000E+00 0.  1.
         22    1    3    3    0    0 -0.17433975971E+02 -0.28114052474E+02 -0.89921654389E+02  0.95813607555E+02  0.00000000000E+00 0.  1.
</event>
<event>
 7    1  0.6278987E-006  0.4072646E+02  0.7818608E-02  0.1508467E+00
          2   -1    0    0  502    0  0.00000000000E+00  0.00000000000E+00  0.12652055044E+04  0.12652055044E+04  0.00000000000E+00 0. -1.
          1   -1    0    0  501    0 -0.00000000000E+00 -0.00000000000E+00 -0.43529598833E+02  0.43529598833E+02  0.00000000000E+00 0. -1.
         25    2    1    2    0    0 -0.63228144347E+02 -0.41337031603E+02  0.73866430860E+03  0.75296519860E+03  0.12500032435E+03 0.  0.
          2    1    1    2  501    0  0.25318938743E+02  0.31288702314E+02 -0.24252740324E+02  0.46991775502E+02  0.00000000000E+00 0. -1.
          1    1    1    2  502    0  0.37909205604E+02  0.10048329289E+02  0.50726433727E+03  0.50877812911E+03  0.00000000000E+00 0. -1.
         22    1    3    3    0    0 -0.18294002093E+02 -0.47771072141E+02  0.66123885494E+03  0.66321457247E+03  0.00000000000E+00 0. -1.
         22    1    3    3    0    0 -0.44934142254E+02  0.64340405382E+01  0.77425453654E+02  0.89750626133E+02  0.00000000000E+00 0. -1.
</event>
<event>
 7    1  0.6278987E-006  0.7126457E+02  0.7818608E-02  0.1406892E+00
          2   -1    0    0  502    0  0.00000000000E+00  0.00000000000E+00  0.21760974525E+03  0.21760974525E+03  0.00000000000E+00 0. -1.
          1   -1    0    0  501    0 -0.00000000000E+00 -0.00000000000E+00 -0.81554924490E+03  0.81554924490E+03  0.00000000000E+00 0. -1.
         25    2    1    2    0    0  0.65158691958E+02 -0.75845423429E+02 -0.25822546792E+03  0.30381522596E+03  0.12500046339E+03 0.  0.
          2    1    1    2  501    0 -0.62912259594E+02  0.28868619399E+02 -0.52940424094E+03  0.53391029202E+03  0.00000000000E+00 0. -1.
          1    1    1    2  502    0 -0.22464323646E+01  0.46976804030E+02  0.18969020921E+03  0.19543347218E+03  0.00000000000E+00 0. -1.
         22    1    3    3    0    0  0.99316668423E+02 -0.72701833126E+02 -0.17645340850E+03  0.21513986738E+03  0.00000000000E+00 0. -1.
         22    1    3    3    0    0 -0.34157976464E+02 -0.31435903031E+01 -0.81772059422E+02  0.88675358575E+02  0.00000000000E+00 0. -1.
</event>
<event>
 7    1  0.6278987E-006  0.3617920E+02  0.7818608E-02  0.1587222E+00
          2   -1    0    0  502    0  0.00000000000E+00  0.00000000000E+00  0.12754989033E+04  0.12754989033E+04  0.00000000000E+00 0. -1.
          1   -1    0    0  501    0 -0.00000000000E+00 -0.00000000000E+00 -0.13517183739E+04  0.13517183739E+04  0.00000000000E+00 0. -1.
         25    2    1    2    0    0 -0.18930631472E+02 -0.11946356573E+02  0.47228403849E+02  0.13548693245E+03  0.12500040996E+03 0.  0.
          2    1    1    2  501    0 -0.16220620183E+02  0.21048393415E+02 -0.13071756831E+04  0.13074457579E+04  0.00000000000E+00 0. -1.
          1    1    1    2  502    0  0.35151251654E+02 -0.91020368424E+01  0.11837278086E+04  0.11842845868E+04  0.00000000000E+00 0. -1.
         22    1    3    3    0    0 -0.10277599246E+02 -0.14402590770E+02  0.90029083693E+02  0.91751291968E+02  0.00000000000E+00 0.  1.
         22    1    3    3    0    0 -0.86530322261E+01  0.24562341976E+01 -0.42800679845E+02  0.43735640481E+02  0.00000000000E+00 0.  1.
</event>
<event>
 7    1  0.6278987E-006  0.9643718E+02  0.7818608E-02  0.1354714E+00
          2   -1    0    0  502    0  0.00000000000E+00  0.00000000000E+00  0.95306333965E+03  0.95306333965E+03  0.00000000000E+00 0. -1.
          1   -1    0    0  501    0 -0.00000000000E+00 -0.00000000000E+00 -0.66637378784E+03  0.66637378784E+03  0.00000000000E+00 0. -1.
         25    2    1    2    0    0  0.14424313264E+03 -0.94922666298E+01 -0.25240135550E+03  0.31658582799E+03  0.12499583108E+03 0.  0.
          2    1    1    2  501    0 -0.51206143432E+02 -0.14313363039E+02 -0.37750871552E+03  0.38123453645E+03  0.00000000000E+00 0. -1.
          1    1    1    2  502    0 -0.93036989209E+02  0.23805629669E+02  0.91659962283E+03  0.92161676305E+03  0.00000000000E+00 0. -1.
         22    1    3    3    0    0  0.40654634040E+02  0.31906641896E+02 -0.17059248276E+03  0.17824878188E+03  0.00000000000E+00 0.  1.
         22    1    3    3    0    0  0.10358849860E+03 -0.41398908525E+02 -0.81808872736E+02  0.13833704611E+03  0.00000000000E+00 0.  1.
</event>
<event>
 7    1  0.6278987E-006  0.3099191E+03  0.7818608E-02  0.1083381E+00
          2   -1    0    0  502    0  0.00000000000E+00  0.00000000000E+00  0.52902440754E+03  0.52902440754E+03  0.00000000000E+00 0. -1.
          1   -1    0    0  501    0 -0.00000000000E+00 -0.00000000000E+00 -0.34860091994E+04  0.34860091994E+04  0.00000000000E+00 0. -1.
         25    2    1    2    0    0 -0.52587626794E+02  0.26285866787E+02 -0.33539497974E+02  0.14214936587E+03  0.12500055603E+03 0.  0.
          2    1    1    2  501    0  0.25641684861E+03 -0.24326475845E+03 -0.33412356486E+04  0.33598784208E+04  0.00000000000E+00 0. -1.
          1    1    1    2  502    0 -0.20382922181E+03  0.21697889166E+03  0.41779035475E+03  0.51300582025E+03  0.00000000000E+00 0. -1.
         22    1    3    3    0    0 -0.51186272329E+02 -0.34888578424E+02  0.15358712729E+02  0.63821136280E+02  0.00000000000E+00 0. -1.
         22    1    3    3    0    0 -0.14013544648E+01  0.61174445210E+02 -0.48898210703E+02  0.78328229593E+02  0.00000000000E+00 0. -1.
</event>
<event>
 7    1  0.6278987E-006  0.9622521E+02  0.7818608E-02  0.1319237E+00
          2   -1    0    0  502    0  0.00000000000E+00  0.00000000000E+00  0.57705424971E+02  0.57705424971E+02  0.00000000000E+00 0. -1.
          1   -1    0    0  501    0 -0.00000000000E+00 -0.00000000000E+00 -0.14475463489E+04  0.14475463489E+04  0.00000000000E+00 0. -1.
         25    2    1    2    0    0 -0.75188028279E+02 -0.12932246214E+03 -0.44921474166E+03  0.48968914345E+03  0.12499613705E+03 0.  0.
          2    1    1    2  501    0  0.60714813150E+02  0.39740986410E+02 -0.91954395311E+03  0.92240268659E+03  0.00000000000E+00 0. -1.
          1    1    1    2  502    0  0.14473215129E+02  0.89581475734E+02 -0.21082229183E+02  0.93159943850E+02  0.00000000000E+00 0. -1.
         22    1    3    3    0    0 -0.20051149343E+02 -0.79540922835E+01 -0.24416836233E+03  0.24511936956E+03  0.00000000000E+00 0. -1.
         22    1    3    3    0    0 -0.55136878936E+02 -0.12136836986E+03 -0.20504637934E+03  0.24456977389E+03  0.00000000000E+00 0. -1.
</event>
<event>
 7    1  0.6278987E-006  0.1074655E+03  0.7818608E-02  0.1464732E+00
          2   -1    0    0  502    0  0.00000000000E+00  0.00000000000E+00  0.15433439301E+04  0.15433439301E+04  0.00000000000E+00 0. -1.
          1   -1    0    0  501    0 -0.00000000000E+00 -0.00000000000E+00 -0.24277261428E+03  0.24277261428E+03  0.00000000000E+00 0. -1.
         25    2    1    2    0    0 -0.44492406803E+02  0.10197765163E+03  0.32955628929E+03  0.36960981713E+03  0.12500021367E+03 0.  0.
          2    1    1    2  501    0  0.60006115857E+02 -0.89061213049E+02 -0.20971084427E+03  0.23560830167E+03  0.00000000000E+00 0. -1.
          1    1    1    2  502    0 -0.15513709054E+02 -0.12916438585E+02  0.11807258708E+04  0.11808984255E+04  0.00000000000E+00 0. -1.
         22    1    3    3    0    0 -0.28253257848E+02 -0.25842518522E+02  0.83448222995E+02  0.91813333800E+02  0.00000000000E+00 0.  1.
         22    1    3    3    0    0 -0.16239148955E+02  0.12782017016E+03  0.24610806629E+03  0.27779648333E+03  0.00000000000E+00 0.  1.
</event>
<event>
 7    1  0.6278987E-006  0.1703714E+03  0.7818608E-02  0.1236069E+00
          2   -1    0    0  502    0  0.00000000000E+00  0.00000000000E+00  0.11298724401E+04  0.11298724401E+04  0.00000000000E+00 0. -1.
          1   -1    0    0  501    0 -0.00000000000E+00 -0.00000000000E+00 -0.18305592721E+03  0.18305592721E+03  0.00000000000E+00 0. -1.
         25    2    1    2    0    0 -0.18322001664E+03  0.13424346957E+03  0.22762976578E+03  0.34501538749E+03  0.12501769362E+03 0.  0.
          2    1    1    2  501    0  0.15419409475E+03 -0.48230558184E+02 -0.68159858147E+02  0.17535042590E+03  0.00000000000E+00 0. -1.
          1    1    1    2  502    0  0.29025921890E+02 -0.86012911386E+02  0.78734660528E+03  0.79256255395E+03  0.00000000000E+00 0. -1.
         22    1    3    3    0    0 -0.51141429241E+02 -0.21003144372E+02  0.53509513877E+02  0.76940535049E+02  0.00000000000E+00 0. -1.
         22    1    3    3    0    0 -0.13207858740E+03  0.15524661394E+03  0.17412025190E+03  0.26807485244E+03  0.00000000000E+00 0. -1.
</event>
<event>
 7    1  0.6278987E-006  0.8165966E+02  0.7818608E-02  0.1325143E+00
          2   -1    0    0  502    0  0.00000000000E+00  0.00000000000E+00  0.10287864524E+04  0.10287864524E+04  0.00000000000E+00 0. -1.
          1   -1    0    0  501    0 -0.00000000000E+00 -0.00000000000E+00 -0.29049430214E+03  0.29049430214E+03  0.00000000000E+00 0. -1.
         25    2    1    2    0    0  0.59588682694E+02 -0.32349584619E+02  0.13219577313E+03  0.19416149808E+03  0.12500263267E+03 0.  0.
          2    1    1    2  501    0  0.10511698989E+02  0.80444491297E+02 -0.25101621800E+03  0.26380097365E+03  0.00000000000E+00 0. -1.
          1    1    1    2  502    0 -0.70100381683E+02 -0.48094906679E+02  0.85711259518E+03  0.86131828285E+03  0.00000000000E+00 0. -1.
         22    1    3    3    0    0 -0.32843431388E+02  0.17319087865E+02  0.38477322924E+02  0.53470984367E+02  0.00000000000E+00 0.  1.
         22    1    3    3    0    0  0.92432114082E+02 -0.49668672483E+02  0.93718450206E+02  0.14069051371E+03  0.00000000000E+00 0.  1.
</event>
<event>
 7    1  0.6278987E-006  0.1036003E+03  0.7818608E-02  0.1384950E+00
          2   -1    0    0  502    0  0.00000000000E+00  0.00000000000E+00  0.18523876290E+04  0.18523876290E+04  0.00000000000E+00 0. -1.
          1   -1    0    0  501    0 -0.00000000000E+00 -0.00000000000E+00 -0.11950002043E+03  0.11950002043E+03  0.00000000000E+00 0. -1.
         25    2    1    2    0    0 -0.21927223881E+01 -0.82247277263E+02  0.99178256604E+02  0.17953074035E+03  0.12500214998E+03 0.  0.
          2    1    1    2  501    0  0.34430472169E+02 -0.17295389626E+02 -0.72946217766E+02  0.82496900563E+02  0.00000000000E+00 0. -1.
          1    1    1    2  502    0 -0.32237749781E+02  0.99542666889E+02  0.17066555698E+04  0.17098600086E+04  0.00000000000E+00 0. -1.
         22    1    3    3    0    0 -0.60772417911E+02 -0.49219723643E+02  0.74170082374E+02  0.10778250829E+03  0.00000000000E+00 0. -1.
         22    1    3    3    0    0  0.58579695523E+02 -0.33027553620E+02  0.25008174230E+02  0.71748232062E+02  0.00000000000E+00 0. -1.
</event>
<event>
 7    1  0.6278987E-006  0.1269689E+03  0.7818608E-02  0.1351682E+00
          2   -1    0    0  502    0  0.00000000000E+00  0.00000000000E+00  0.20091410435E+04  0.20091410435E+04  0.00000000000E+00 0. -1.
          1   -1    0    0  501    0 -0.00000000000E+00 -0.00000000000E+00 -0.12765864860E+03  0.12765864860E+03  0.00000000000E+00 0. -1.
         25    2    1    2    0    0 -0.87222496447E+02 -0.13749353535E+03  0.37421671997E+03  0.42682078035E+03  0.12500235550E+03 0.  0.
          2    1    1    2  501    0  0.75849127356E+02  0.97648105504E+02 -0.63272368840E+02  0.13889433137E+03  0.00000000000E+00 0. -1.
          1    1    1    2  502    0  0.11373369091E+02  0.39845429846E+02  0.15705380438E+04  0.15710845804E+04  0.00000000000E+00 0. -1.
         22    1    3    3    0    0 -0.19454434573E+02 -0.74467293043E+02  0.29539478131E+03  0.30525715321E+03  0.00000000000E+00 0. -1.
         22    1    3    3    0    0 -0.67768061874E+02 -0.63026242307E+02  0.78821938657E+02  0.12156362714E+03  0.00000000000E+00 0. -1.
</event>
<event>
 7    1  0.6278987E-006  0.2501280E+02  0.7818608E-02  0.1677327E+00
          2   -1    0    0  502    0  0.00000000000E+00  0.00000000000E+00  0.16970404293E+03  0.16970404293E+03  0.00000000000E+00 0. -1.
          1   -1    0    0  501    0 -0.00000000000E+00 -0.00000000000E+00 -0.25950400908E+03  0.25950400908E+03  0.00000000000E+00 0. -1.
         25    2    1    2    0    0  0.11197011265E+02 -0.45255677459E+02 -0.14616897162E+02  0.13421117637E+03  0.12500214709E+03 0.  0.
          2    1    1    2  501    0 -0.12666278942E+01  0.24691563104E+02 -0.18306369853E+03  0.18472573008E+03  0.00000000000E+00 0. -1.
          1    1    1    2  502    0 -0.99303833712E+01  0.20564114354E+02  0.10788062954E+03  0.11027114556E+03  0.00000000000E+00 0. -1.
         22    1    3    3    0    0  0.38001584649E+02 -0.18150829966E+02 -0.61030008317E+02  0.74150084150E+02  0.00000000000E+00 0. -1.
         22    1    3    3    0    0 -0.26804573383E+02 -0.27104847492E+02  0.46413111155E+02  0.60061092222E+02  0.00000000000E+00 0. -1.
</event>
<event>
 7    1  0.6278987E-006  0.5174321E+02  0.7818608E-02  0.1569182E+00
          2   -1    0    0  502    0  0.00000000000E+00  0.00000000000E+00  0.13793717880E+04  0.13793717880E+04  0.00000000000E+00 0. -1.
          1   -1    0    0  501    0 -0.00000000000E+00 -0.00000000000E+00 -0.17943067140E+03  0.17943067140E+03  0.00000000000E+00 0. -1.
         25    2    1    2    0    0 -0.29830430949E+02 -0.34716637500E+02  0.54928987109E+03  0.56518968631E+03  0.12499967801E+03 0.  0.
          2    1    1    2  501    0  0.13806404722E+02 -0.15523757103E+02 -0.17000213487E+03  0.17126683773E+03  0.00000000000E+00 0. -1.
          1    1    1    2  502    0  0.16024026227E+02  0.50240394604E+02  0.82065338034E+03  0.82234593531E+03  0.00000000000E+00 0. -1.
         22    1    3    3    0    0  0.32373378589E+02 -0.83296073785E+01  0.39913365905E+03  0.40053101726E+03  0.00000000000E+00 0. -1.
         22    1    3    3    0    0 -0.62203809539E+02 -0.26387030122E+02  0.15015621203E+03  0.16465866905E+03  0.00000000000E+00 0. -1.
</event>
<event>
 7    1  0.6278987E-006  0.6845246E+02  0.7818608E-02  0.1466566E+00
          2   -1    0    0  502    0  0.00000000000E+00  0.00000000000E+00  0.39173721187E+02  0.39173721187E+02  0.00000000000E+00 0. -1.
          1   -1    0    0  501    0 -0.00000000000E+00 -0.00000000000E+00 -0.94989171915E+03  0.94989171915E+03  0.00000000000E+00 0. -1.
         25    2    1    2    0    0  0.55515176644E+02 -0.29740045902E+02 -0.66894313994E+03  0.68343016252E+03  0.12500182959E+03 0.  0.
          2    1    1    2  501    0  0.13603106373E+02  0.28162627600E+02 -0.23397990447E+03  0.23606095355E+03  0.00000000000E+00 0. -1.
          1    1    1    2  502    0 -0.69118283017E+02  0.15774183022E+01 -0.77949535501E+01  0.69574324262E+02  0.00000000000E+00 0. -1.
         22    1    3    3    0    0 -0.11019548314E+02  0.30733883589E+01 -0.48438235141E+03  0.48451742849E+03  0.00000000000E+00 0. -1.
         22    1    3    3    0    0  0.66534724959E+02 -0.32813434261E+02 -0.18456078854E+03  0.19891273403E+03  0.00000000000E+00 0. -1.
</event>
<event>
 7    1  0.6278987E-006  0.2430400E+03  0.7818608E-02  0.1134336E+00
          2   -1    0    0  502    0  0.00000000000E+00  0.00000000000E+00  0.12041875364E+04  0.12041875364E+04  0.00000000000E+00 0. -1.
          1   -1    0    0  501    0 -0.00000000000E+00 -0.00000000000E+00 -0.56832562461E+03  0.56832562461E+03  0.00000000000E+00 0. -1.
         25    2    1    2    0    0  0.20485974229E+03 -0.20350133190E+03  0.76642955066E+03  0.82850421600E+03  0.12499869485E+03 0.  0.
          2    1    1    2  501    0  0.24974908457E+02  0.19646671396E+03 -0.48366421442E+03  0.52264135701E+03  0.00000000000E+00 0. -1.
          1    1    1    2  502    0 -0.22983465075E+03  0.70346179433E+01  0.35309657552E+03  0.42136758795E+03  0.00000000000E+00 0. -1.
         22    1    3    3    0    0  0.22662387123E+02  0.15520249820E+02  0.10062890885E+03  0.10431030266E+03  0.00000000000E+00 0.  1.
         22    1    3    3    0    0  0.18219735517E+03 -0.21902158172E+03  0.66580064181E+03  0.72419391334E+03  0.00000000000E+00 0.  1.
</event>
<event>
 7    1  0.6278987E-006  0.5700249E+02  0.7818608E-02  0.1451089E+00
          2   -1    0    0  502    0  0.00000000000E+00  0.00000000000E+00  0.17222741401E+04  0.17222741401E+04  0.00000000000E+00 0. -1.
          1   -1    0    0  501    0 -0.00000000000E+00 -0.00000000000E+00 -0.32796965700E+03  0.32796965700E+03  0.00000000000E+00 0. -1.
         25    2    1    2    0    0 -0.34635894468E+02  0.70291635319E+02  0.69575420030E+03  0.71122378665E+03  0.12499923314E+03 0.  0.
          2    1    1    2  501    0  0.39410044947E+02 -0.14621473914E+02 -0.31808500290E+03  0.32085044524E+03  0.00000000000E+00 0. -1.
          1    1    1    2  502    0 -0.47741504793E+01 -0.55670161405E+02  0.10166352857E+04  0.10181695652E+04  0.00000000000E+00 0. -1.
         22    1    3    3    0    0 -0.71542279253E+02  0.38862053707E+02  0.25190201861E+03  0.26473228726E+03  0.00000000000E+00 0. -1.
         22    1    3    3    0    0  0.36906384785E+02  0.31429581612E+02  0.44385218169E+03  0.44649149939E+03  0.00000000000E+00 0. -1.
</event>
<event>
 7    1  0.6278987E-006  0.1239269E+03  0.7818608E-02  0.1301639E+00
          2   -1    0    0  502    0  0.00000000000E+00  0.00000000000E+00  0.35300532390E+03  0.35300532390E+03  0.00000000000E+00 0. -1.
          1   -1    0    0  501    0 -0.00000000000E+00 -0.00000000000E+00 -0.18780086760E+03  0.18780086760E+03  0.00000000000E+00 0. -1.
         25    2    1    2    0    0  0.57704542827E+02  0.57772553601E+02 -0.70009078663E+02  0.16490578974E+03  0.12500066473E+03 0.  0.
          2    1    1    2  501    0 -0.13572755080E+02  0.64684745118E+02 -0.35859424037E+02  0.75194642255E+02  0.00000000000E+00 0. -1.
          1    1    1    2  502    0 -0.44131787747E+02 -0.12245729872E+03  0.27107295900E+03  0.30070575950E+03  0.00000000000E+00 0. -1.
         22    1    3    3    0    0  0.35588635862E+02  0.92534590216E+02 -0.21839091801E+02  0.10151919680E+03  0.00000000000E+00 0.  1.
         22    1    3    3    0    0  0.22115906965E+02 -0.34762036615E+02 -0.48169986862E+02  0.63386592941E+02  0.00000000000E+00 0.  1.
</event>
<event>
 7    1  0.6278987E-006  0.1084427E+03  0.7818608E-02  0.1414990E+00
          2   -1    0    0  502    0  0.00000000000E+00  0.00000000000E+00  0.21654069545E+04  0.21654069545E+04  0.00000000000E+00 0. -1.
          1   -1    0    0  501    0 -0.00000000000E+00 -0.00000000000E+00 -0.42742570350E+03  0.42742570350E+03  0.00000000000E+00 0. -1.
         25    2    1    2    0    0 -0.26480342159E+02  0.92064511691E+02  0.60586691647E+03  0.62600143679E+03  0.12500398218E+03 0.  0.
          2    1    1    2  501    0  0.26299765779E+01 -0.10859146285E+03 -0.41015198004E+03  0.42429196235E+03  0.00000000000E+00 0. -1.
          1    1    1    2  502    0  0.23850365581E+02  0.16526951162E+02  0.15422663145E+04  0.15425392588E+04  0.00000000000E+00 0. -1.
         22    1    3    3    0    0 -0.28486397921E+02 -0.12934929100E+02  0.41635096587E+02  0.52079444363E+02  0.00000000000E+00 0. -1.
         22    1    3    3    0    0  0.20060557618E+01  0.10499944079E+03  0.56423181988E+03  0.57392199243E+03  0.00000000000E+00 0. -1.
</event>
<event>
 7    1  0.6278987E-006  0.2020955E+03  0.7818608E-02  0.1246320E+00
          2   -1    0    0  502    0  0.00000000000E+00  0.00000000000E+00  0.78371983635E+03  0.78371983635E+03  0.00000000000E+00 0. -1.
          1   -1    0    0  501    0 -0.00000000000E+00 -0.00000000000E+00 -0.22039469231E+03  0.22039469231E+03  0.00000000000E+00 0. -1.
         25    2    1    2    0    0 -0.87420661247E+02 -0.13217477594E+03  0.93079065176E+02  0.22226424844E+03  0.12500056141E+03 0.  0.
          2    1    1    2  501    0  0.14107092572E+03  0.17552726552E+03 -0.71083875662E+02  0.23614348266E+03  0.00000000000E+00 0. -1.
          1    1    1    2  502    0 -0.53650264469E+02 -0.43352489576E+02  0.54132995453E+03  0.54570679755E+03  0.00000000000E+00 0. -1.
         22    1    3    3    0    0 -0.11187031001E+03 -0.11542788725E+03  0.10311655246E+03  0.19097535654E+03  0.00000000000E+00 0.  1.
         22    1    3    3    0    0  0.24449648758E+02 -0.16746888696E+02 -0.10037487282E+02  0.31288891900E+02  0.00000000000E+00 0.  1.
</event>
<event>
 7    1  0.6278987E-006  0.7431076E+02  0.7818608E-02  0.1349135E+00
          2   -1    0    0  502    0  0.00000000000E+00  0.00000000000E+00  0.31670871829E+02  0.31670871829E+02  0.00000000000E+00 0. -1.
          1   -1    0    0  501    0 -0.00000000000E+00 -0.00000000000E+00 -0.20367643644E+04  0.20367643644E+04  0.00000000000E+00 0. -1.
         25    2    1    2    0    0 -0.79928068746E+02 -0.45127176925E+01 -0.29361790879E+03  0.32900587906E+03  0.12499812516E+03 0.  0.
          2    1    1    2  501    0  0.39519682189E+02  0.64531831513E+02 -0.16246358607E+04  0.16263971970E+04  0.00000000000E+00 0. -1.
          1    1    1    2  502    0  0.40408386557E+02 -0.60019113820E+02 -0.86839723074E+02  0.11303216016E+03  0.00000000000E+00 0. -1.
         22    1    3    3    0    0 -0.87994801990E+02 -0.34839717872E+02 -0.27856102492E+03  0.29419914297E+03  0.00000000000E+00 0. -1.
         22    1    3    3    0    0  0.80667332436E+01  0.30327000180E+02 -0.15056883876E+02  0.34806736089E+02  0.00000000000E+00 0. -1.
</event>
<event>
 7    1  0.6278987E-006  0.1599647E+03  0.7818608E-02  0.1235395E+00
          2   -1    0    0  502    0  0.00000000000E+00  0.00000000000E+00  0.47618674523E+03  0.47618674523E+03  0.00000000000E+00 0. -1.
          1   -1    0    0  501    0 -0.00000000000E+00 -0.00000000000E+00 -0.11924316928E+04  0.11924316928E+04  0.00000000000E+00 0. -1.
         25    2    1    2    0    0  0.22266711205E+03  0.62971458702E+02 -0.42770575742E+03  0.50209713577E+03  0.12499308547E+03 0.  0.
          2    1    1    2  501    0 -0.12609176842E+03 -0.75249808553E+02 -0.71457397654E+03  0.72950506214E+03  0.00000000000E+00 0. -1.
          1    1    1    2  502    0 -0.96575343636E+02  0.12278349851E+02  0.42603478641E+03  0.43701624009E+03  0.00000000000E+00 0. -1.
         22    1    3    3    0    0  0.10769447027E+03  0.93692408690E+02 -0.20873095353E+03  0.25287344134E+03  0.00000000000E+00 0.  1.
         22    1    3    3    0    0  0.11497264178E+03 -0.30720949988E+02 -0.21897480389E+03  0.24922369443E+03  0.00000000000E+00 0.  1.
</event>
<event>
 7    1  0.6278987E-006  0.8377841E+02  0.7818608E-02  0.1438278E+00
          2   -1    0    0  502    0  0.00000000000E+00  0.00000000000E+00  0.15309268551E+04  0.15309268551E+04  0.00000000000E+00 0. -1.
          1   -1    0    0  501    0 -0.00000000000E+00 -0.00000000000E+00 -0.48178937712E+03  0.48178937712E+03  0.00000000000E+00 0. -1.
         25    2    1    2    0    0 -0.21883907423E+02 -0.56177266457E+02  0.83887332510E+03  0.85027235803E+03  0.12497934470E+03 0.  0.
          2    1    1    2  501    0  0.65441238327E+01  0.83636892969E+02 -0.47202902546E+03  0.47942606969E+03  0.00000000000E+00 0. -1.
          1    1    1    2  502    0  0.15339783590E+02 -0.27459626513E+02  0.68229317834E+03  0.68301780450E+03  0.00000000000E+00 0. -1.
         22    1    3    3    0    0 -0.15137592666E+02  0.66435024129E+01  0.10698940613E+02  0.19691372889E+02  0.00000000000E+00 0.  1.
         22    1    3    3    0    0 -0.67463147570E+01 -0.62820768870E+02  0.82817438448E+03  0.83058098514E+03  0.00000000000E+00 0.  1.
</event>
<event>
 7    1  0.6278987E-006  0.2075583E+03  0.7818608E-02  0.1146746E+00
          2   -1    0    0  502    0  0.00000000000E+00  0.00000000000E+00  0.16385636726E+04  0.16385636726E+04  0.00000000000E+00 0. -1.
          1   -1    0    0  501    0 -0.00000000000E+00 -0.00000000000E+00 -0.18025520902E+04  0.18025520902E+04  0.00000000000E+00 0. -1.
         25    2    1    2    0    0  0.20081648633E+03 -0.10935850144E+02  0.82898366262E+03  0.86214043175E+03  0.12500142864E+03 0.  0.
          2    1    1    2  501    0 -0.11875822446E+03 -0.17112090026E+03 -0.17671875297E+04  0.17794205920E+04  0.00000000000E+00 0. -1.
          1    1    1    2  502    0 -0.82058261871E+02  0.18205675040E+03  0.77421544939E+03  0.79955473908E+03  0.00000000000E+00 0. -1.
         22    1    3    3    0    0  0.11346861796E+02 -0.60803934335E+01  0.29915832554E+03  0.29943517862E+03  0.00000000000E+00 0. -1.
         22    1    3    3    0    0  0.18946962454E+03 -0.48554567101E+01  0.52982533709E+03  0.56270525313E+03  0.00000000000E+00 0. -1.
</event>
<event>
 7    1  0.6278987E-006  0.3302886E+03  0.7818608E-02  0.1097787E+00
          2   -1    0    0  502    0  0.00000000000E+00  0.00000000000E+00  0.13355715428E+04  0.13355715428E+04  0.00000000000E+00 0. -1.
          1   -1    0    0  501    0 -0.00000000000E+00 -0.00000000000E+00 -0.31168132733E+03  0.31168132733E+03  0.00000000000E+00 0. -1.
         25    2    1    2    0    0 -0.41430872052E+03  0.36569736061E+02  0.60938046502E+01  0.43433835802E+03  0.12499445306E+03 0.  0.
          2    1    1    2  501    0  0.24194495931E+03  0.11715368367E+03  0.13578051284E+03  0.30116224299E+03  0.00000000000E+00 0. -1.
          1    1    1    2  502    0  0.17236376120E+03 -0.15372341973E+03  0.88201589797E+03  0.91175226911E+03  0.00000000000E+00 0. -1.
         22    1    3    3    0    0  0.79602283606E+01  0.75139287271E+01  0.14781113621E+01  0.11045776282E+02  0.00000000000E+00 0. -1.
         22    1    3    3    0    0 -0.42226894888E+03  0.29055807334E+02  0.46156932881E+01  0.42329258173E+03  0.00000000000E+00 0. -1.
</event>
<event>
 7    1  0.6278987E-006  0.1208812E+03  0.7818608E-02  0.1341340E+00
          2   -1    0    0  502    0  0.00000000000E+00  0.00000000000E+00  0.15257162926E+04  0.15257162926E+04  0.00000000000E+00 0. -1.
          1   -1    0    0  501    0 -0.00000000000E+00 -0.00000000000E+00 -0.51565550596E+02  0.51565550596E+02  0.00000000000E+00 0. -1.
         25    2    1    2    0    0 -0.59498123495E+02 -0.52552263655E+02  0.17397381003E+03  0.22845468952E+03  0.12499156561E+03 0.  0.
          2    1    1    2  501    0 -0.24533182456E+02 -0.40744587700E+02  0.52752183365E+01  0.47852130535E+02  0.00000000000E+00 0. -1.
          1    1    1    2  502    0  0.84031305952E+02  0.93296851355E+02  0.12949017137E+04  0.13009750232E+04  0.00000000000E+00 0. -1.
         22    1    3    3    0    0  0.20097519098E+02  0.69520545074E+01 -0.66628111253E+01  0.22285295328E+02  0.00000000000E+00 0. -1.
         22    1    3    3    0    0 -0.79595642593E+02 -0.59504318163E+02  0.18063662115E+03  0.20616939419E+03  0.00000000000E+00 0. -1.
</event>
<event>
 7    1  0.6278987E-006  0.5051539E+02  0.7818608E-02  0.1461300E+00
          2   -1    0    0  502    0  0.00000000000E+00  0.00000000000E+00  0.80400828171E+03  0.80400828171E+03  0.00000000000E+00 0. -1.
          1   -1    0    0  501    0 -0.00000000000E+00 -0.00000000000E+00 -0.13845401700E+03  0.13845401700E+03  0.00000000000E+00 0. -1.
         25    2    1    2    0    0  0.49785564737E+02  0.37783845928E+02  0.77813825398E+03  0.79058895134E+03  0.12500210483E+03 0.  0.
          2    1    1    2  501    0 -0.74914616127E+01 -0.50005659282E+02 -0.87887649484E+02  0.10139490564E+03  0.00000000000E+00 0. -1.
          1    1    1    2  502    0 -0.42294103124E+02  0.12221813354E+02 -0.24696339787E+02  0.50478441732E+02  0.00000000000E+00 0. -1.
         22    1    3    3    0    0  0.55041961612E+02  0.27539401575E+02  0.14724320134E+03  0.15958883582E+03  0.00000000000E+00 0. -1.
         22    1    3    3    0    0 -0.52563968745E+01  0.10244444353E+02  0.63089505264E+03  0.63100011553E+03  0.00000000000E+00 0. -1.
</event>
<event>
 7    1  0.6278987E-006  0.5519612E+02  0.7818608E-02  0.1483941E+00
          2   -1    0    0  502    0  0.00000000000E+00  0.00000000000E+00  0.16282588959E+04  0.16282588959E+04  0.00000000000E+00 0. -1.
          1   -1    0    0  501    0 -0.00000000000E+00 -0.00000000000E+00 -0.23786199269E+02  0.23786199269E+02  0.00000000000E+00 0. -1.
         25    2    1    2    0    0 -0.11481955804E+02 -0.22091346141E+02  0.44834376773E+03  0.46610887333E+03  0.12500193938E+03 0.  0.
          2    1    1    2  501    0  0.25724440173E+02  0.53272036120E+02  0.45125505397E+02  0.74404085183E+02  0.00000000000E+00 0. -1.
          1    1    1    2  502    0 -0.14242484369E+02 -0.31180689979E+02  0.11110034235E+04  0.11115321366E+04  0.00000000000E+00 0. -1.
         22    1    3    3    0    0 -0.68629177234E+01  0.29877439062E+02  0.37416888359E+03  0.37542258117E+03  0.00000000000E+00 0. -1.
         22    1    3    3    0    0 -0.46190380805E+01 -0.51968785203E+02  0.74174884144E+02  0.90686292162E+02  0.00000000000E+00 0. -1.
</event>
<event>
 7    1  0.6278987E-006  0.9402797E+02  0.7818608E-02  0.1380630E+00
          2   -1    0    0  502    0  0.00000000000E+00  0.00000000000E+00  0.80664711950E+03  0.80664711950E+03  0.00000000000E+00 0. -1.
          1   -1    0    0  501    0 -0.00000000000E+00 -0.00000000000E+00 -0.29928681591E+03  0.29928681591E+03  0.00000000000E+00 0. -1.
         25    2    1    2    0    0  0.33905999410E+02 -0.11841390557E+03  0.87867916249E+02  0.19628037562E+03  0.12503497637E+03 0.  0.
          2    1    1    2  501    0 -0.50354350137E+02  0.77637761781E+02 -0.23558220650E+03  0.25310503483E+03  0.00000000000E+00 0. -1.
          1    1    1    2  502    0  0.16448350726E+02  0.40776143793E+02  0.65507459385E+03  0.65654852498E+03  0.00000000000E+00 0. -1.
         22    1    3    3    0    0 -0.12071994001E+02 -0.51598434969E+02 -0.23943275752E+02  0.58149909580E+02  0.00000000000E+00 0.  1.
         22    1    3    3    0    0  0.45977993411E+02 -0.66815470605E+02  0.11181119200E+03  0.13813046604E+03  0.00000000000E+00 0.  1.
</event>
<event>
 7    1  0.6278987E-006  0.6893436E+02  0.7818608E-02  0.1514731E+00
          2   -1    0    0  502    0  0.00000000000E+00  0.00000000000E+00  0.11924962910E+02  0.11924962910E+02  0.00000000000E+00 0. -1.
          1   -1    0    0  501    0 -0.00000000000E+00 -0.00000000000E+00 -0.21543975924E+04  0.21543975924E+04  0.00000000000E+00 0. -1.
         25    2    1    2    0    0 -0.88382636509E+02 -0.58623730010E+01 -0.12172917812E+04  0.12268946591E+04  0.12500146454E+03 0.  0.
          2    1    1    2  501    0  0.22201728298E+02  0.57240374878E+00 -0.77391144115E+03  0.77423004536E+03  0.00000000000E+00 0. -1.
          1    1    1    2  502    0  0.66180908211E+02  0.52899692522E+01 -0.15126940717E+03  0.16519785087E+03  0.00000000000E+00 0. -1.
         22    1    3    3    0    0 -0.84848369028E+02 -0.56813675638E+02 -0.81990707584E+03  0.82624127982E+03  0.00000000000E+00 0. -1.
         22    1    3    3    0    0 -0.35342674814E+01  0.50951302637E+02 -0.39738470532E+03  0.40065337926E+03  0.00000000000E+00 0. -1.
</event>
<event>
 7    1  0.6278987E-006  0.7989611E+02  0.7818608E-02  0.1381018E+00
          2   -1    0    0  502    0  0.00000000000E+00  0.00000000000E+00  0.14145616251E+04  0.14145616251E+04  0.00000000000E+00 0. -1.
          1   -1    0    0  501    0 -0.00000000000E+00 -0.00000000000E+00 -0.72877531878E+02  0.72877531878E+02  0.00000000000E+00 0. -1.
         25    2    1    2    0    0 -0.23269605433E+02 -0.11935957284E+03  0.66766212093E+03  0.69006234807E+03  0.12500061734E+03 0.  0.
          2    1    1    2  501    0 -0.41857262886E+01  0.51412641540E+02 -0.48705299714E+02  0.70943542588E+02  0.00000000000E+00 0. -1.
          1    1    1    2  502    0  0.27455331721E+02  0.67946931300E+02  0.72272727202E+03  0.72643326634E+03  0.00000000000E+00 0. -1.
         22    1    3    3    0    0 -0.39381319909E+02 -0.11661815822E+03  0.33331717583E+03  0.35531819949E+03  0.00000000000E+00 0. -1.
         22    1    3    3    0    0  0.16111714476E+02 -0.27414146238E+01  0.33434494509E+03  0.33474414858E+03  0.00000000000E+00 0. -1.
</event>
<event>
 7    1  0.6278987E-006  0.1669204E+03  0.7818608E-02  0.1191528E+00
          2   -1    0    0  502    0  0.00000000000E+00  0.00000000000E+00  0.41572850851E+04  0.41572850851E+04  0.00000000000E+00 0. -1.
          1   -1    0    0  501    0 -0.00000000000E+00 -0.00000000000E+00 -0.24299877370E+04  0.24299877370E+04  0.00000000000E+00 0. -1.
         25    2    1    2    0    0 -0.14377393729E+03 -0.17358782016E+03  0.20952134581E+04  0.21110063877E+04  0.12499943010E+03 0.  0.
          2    1    1    2  501    0  0.14787753273E+03  0.15087870271E+02 -0.24167448575E+04  0.24213118582E+04  0.00000000000E+00 0. -1.
          1    1    1    2  502    0 -0.41035954432E+01  0.15849994988E+03  0.20488287475E+04  0.20549545762E+04  0.00000000000E+00 0. -1.
         22    1    3    3    0    0  0.19599130602E+02 -0.18301008853E+01  0.21760640294E+03  0.21849490106E+03  0.00000000000E+00 0.  1.
         22    1    3    3    0    0 -0.16337306789E+03 -0.17175771927E+03  0.18776070552E+04  0.18925114867E+04  0.00000000000E+00 0.  1.
</event>
<event>
 7    1  0.6278987E-006  0.1067998E+03  0.7818608E-02  0.1332076E+00
          2   -1    0    0  502    0  0.00000000000E+00  0.00000000000E+00  0.41078283875E+03  0.41078283875E+03  0.00000000000E+00 0. -1.
          1   -1    0    0  501    0 -0.00000000000E+00 -0.00000000000E+00 -0.12091941353E+04  0.12091941353E+04  0.00000000000E+00 0. -1.
         25    2    1    2    0    0 -0.47551950907E+02  0.19461608772E+02  0.94770439429E+02  0.16506340916E+03  0.12499820240E+03 0.  0.
          2    1    1    2  501    0  0.10589400652E+03 -0.20596203791E+02 -0.11685051244E+04  0.11734743158E+04  0.00000000000E+00 0. -1.
          1    1    1    2  502    0 -0.58342055617E+02  0.11345950190E+01  0.27532338836E+03  0.28143924910E+03  0.00000000000E+00 0. -1.
         22    1    3    3    0    0 -0.28674806435E+02 -0.41691291408E+02 -0.12793758393E+00  0.50600639041E+02  0.00000000000E+00 0. -1.
         22    1    3    3    0    0 -0.18877144472E+02  0.61152900180E+02  0.94898377013E+02  0.11446277012E+03  0.00000000000E+00 0. -1.
</event>
<event>
 7    1  0.6278987E-006  0.2332212E+03  0.7818608E-02  0.1201822E+00
          2   -1    0    0  502    0  0.00000000000E+00  0.00000000000E+00  0.80369892181E+03  0.80369892181E+03  0.00000000000E+00 0. -1.
          1   -1    0    0  501    0 -0.00000000000E+00 -0.00000000000E+00 -0.10939601681E+04  0.10939601681E+04  0.00000000000E+00 0. -1.
         25    2    1    2    0    0 -0.16044762714E+03  0.11199100870E+03 -0.17020399379E+03  0.28788926593E+03  0.12500161140E+03 0.  0.
          2    1    1    2  501    0  0.33703629049E+02  0.88899711068E+02 -0.84323704540E+03  0.84857987719E+03  0.00000000000E+00 0. -1.
          1    1    1    2  502    0  0.12674399809E+03 -0.20089071977E+03  0.72317979286E+03  0.76118994682E+03  0.00000000000E+00 0. -1.
         22    1    3    3    0    0 -0.25909053847E+02  0.77630693636E+02 -0.21886575300E+02  0.84716148661E+02  0.00000000000E+00 0.  1.
         22    1    3    3    0    0 -0.13453857329E+03  0.34360315066E+02 -0.14831741849E+03  0.20317311727E+03  0.00000000000E+00 0.  1.
</event>
<event>
 7    1  0.8597437E-006  0.6840526E+02  0.7818608E-02  0.1464572E+00
          2   -1    0    0  502    0  0.00000000000E+00  0.00000000000E+00  0.10702346504E+04  0.10702346504E+04  0.00000000000E+00 0. -1.
          1   -1    0    0  501    0 -0.00000000000E+00 -0.00000000000E+00 -0.12393594485E+04  0.12393594485E+04  0.00000000000E+00 0. -1.
         25    2    1    2    0    0 -0.50404661280E+02 -0.20186396136E+02 -0.33654936404E+03  0.36309613175E+03  0.12500082395E+03 0.  0.
          2    1    1    2  501    0  0.47662035199E+02  0.51818189407E+02 -0.88790448753E+03  0.89069140185E+03  0.00000000000E+00 0. -1.
          1    1    1    2  502    0  0.27426260807E+01 -0.31631793271E+02  0.10553290535E+04  0.10558065653E+04  0.00000000000E+00 0. -1.
         22    1    3    3    0    0 -0.86281576781E+02  0.11145695352E+02 -0.24328057792E+03  0.25836829645E+03  0.00000000000E+00 0. -1.
         22    1    3    3    0    0  0.35876915501E+02 -0.31332091488E+02 -0.93268786124E+02  0.10472783531E+03  0.00000000000E+00 0. -1.
</event>
<event>
 7    1  0.6278987E-006  0.7651044E+02  0.7818608E-02  0.1446958E+00
          2   -1    0    0  502    0  0.00000000000E+00  0.00000000000E+00  0.10428609888E+04  0.10428609888E+04  0.00000000000E+00 0. -1.
          1   -1    0    0  501    0 -0.00000000000E+00 -0.00000000000E+00 -0.10034781180E+03  0.10034781180E+03  0.00000000000E+00 0. -1.
         25    2    1    2    0    0 -0.76266798179E+02  0.21787669447E+01  0.72822991987E+03  0.74280861323E+03  0.12499779262E+03 0.  0.
          2    1    1    2  501    0  0.68897325188E+02 -0.33612828265E+02 -0.76223405323E+02  0.10810490813E+03  0.00000000000E+00 0. -1.
          1    1    1    2  502    0  0.73694729913E+01  0.31434061320E+02  0.29050666242E+03  0.29229527922E+03  0.00000000000E+00 0. -1.
         22    1    3    3    0    0 -0.89749119746E+02 -0.18162016801E+02  0.29483347856E+03  0.30872567666E+03  0.00000000000E+00 0. -1.
         22    1    3    3    0    0  0.13482321567E+02  0.20340783745E+02  0.43339644131E+03  0.43408293656E+03  0.00000000000E+00 0. -1.
</event>
<event>
 7    1  0.6278987E-006  0.3896113E+02  0.7818608E-02  0.1591463E+00
          2   -1    0    0  502    0  0.00000000000E+00  0.00000000000E+00  0.12735817475E+04  0.12735817475E+04  0.00000000000E+00 0. -1.
          1   -1    0    0  501    0 -0.00000000000E+00 -0.00000000000E+00 -0.35607954051E+03  0.35607954051E+03  0.00000000000E+00 0. -1.
         25    2    1    2    0    0 -0.13833374048E+02  0.57161766823E+02  0.63606599977E+03  0.65089427659E+03  0.12499829360E+03 0.  0.
          2    1    1    2  501    0  0.19380920226E+02 -0.33764551812E+02 -0.34734811748E+03  0.34952307469E+03  0.00000000000E+00 0. -1.
          1    1    1    2  502    0 -0.55475461776E+01 -0.23397215011E+02  0.62878432465E+03  0.62924393669E+03  0.00000000000E+00 0. -1.
         22    1    3    3    0    0  0.35652441776E+01  0.84085255150E+02  0.58189120018E+03  0.58794592433E+03  0.00000000000E+00 0. -1.
         22    1    3    3    0    0 -0.17398618226E+02 -0.26923488328E+02  0.54174799598E+02  0.62948352253E+02  0.00000000000E+00 0. -1.
</event>
<event>
 7    1  0.6278987E-006  0.3528132E+02  0.7818608E-02  0.1558034E+00
          2   -1    0    0  502    0  0.00000000000E+00  0.00000000000E+00  0.47673263933E+03  0.47673263933E+03  0.00000000000E+00 0. -1.
          1   -1    0    0  501    0 -0.00000000000E+00 -0.00000000000E+00 -0.65688343297E+02  0.65688343297E+02  0.00000000000E+00 0. -1.
         25    2    1    2    0    0  0.12351009123E+02  0.12426485441E+01  0.16482701843E+03  0.20723689156E+03  0.12500036648E+03 0.  0.
          2    1    1    2  501    0  0.24251580695E+01  0.32598174012E+02 -0.37113956953E+02  0.49456729990E+02  0.00000000000E+00 0. -1.
          1    1    1    2  502    0 -0.14776167192E+02 -0.33840822557E+02  0.28333123456E+03  0.28572736107E+03  0.00000000000E+00 0. -1.
         22    1    3    3    0    0 -0.52139694311E+02  0.21468442844E+02  0.91786582118E+02  0.10772287788E+03  0.00000000000E+00 0. -1.
         22    1    3    3    0    0  0.64490703434E+02 -0.20225794300E+02  0.73040436308E+02  0.99514013689E+02  0.00000000000E+00 0. -1.
</event>
<event>
 7    1  0.6278987E-006  0.8507918E+02  0.7818608E-02  0.1338455E+00
          2   -1    0    0  502    0  0.00000000000E+00  0.00000000000E+00  0.86150414357E+03  0.86150414357E+03  0.00000000000E+00 0. -1.
          1   -1    0    0  501    0 -0.00000000000E+00 -0.00000000000E+00 -0.65546219937E+03  0.65546219937E+03  0.00000000000E+00 0. -1.
         25    2    1    2    0    0 -0.11060428941E+03 -0.96985991943E+02 -0.19024935953E+03  0.27103115227E+03  0.12499390077E+03 0.  0.
          2    1    1    2  501    0  0.34558795443E+02  0.60050545755E+02 -0.41979880823E+03  0.42547786991E+03  0.00000000000E+00 0. -1.
          1    1    1    2  502    0  0.76045493970E+02  0.36935446188E+02  0.81609011197E+03  0.82045732076E+03  0.00000000000E+00 0. -1.
         22    1    3    3    0    0 -0.11197990098E+03 -0.59484066347E+02 -0.19562145641E+03  0.23312144170E+03  0.00000000000E+00 0.  1.
         22    1    3    3    0    0  0.13756115687E+01 -0.37501925596E+02  0.53720968812E+01  0.37909710570E+02  0.00000000000E+00 0.  1.
</event>
<event>
 7    1  0.6278987E-006  0.6242780E+02  0.7818608E-02  0.1410735E+00
          2   -1    0    0  502    0  0.00000000000E+00  0.00000000000E+00  0.45132959837E+03  0.45132959837E+03  0.00000000000E+00 0. -1.
          1   -1    0    0  501    0 -0.00000000000E+00 -0.00000000000E+00 -0.10035154898E+04  0.10035154898E+04  0.00000000000E+00 0. -1.
         25    2    1    2    0    0 -0.29882141042E+02 -0.18710011390E+02 -0.11737444126E+03  0.17506227618E+03  0.12500813655E+03 0.  0.
          2    1    1    2  501    0  0.27336184705E+02 -0.44351503259E+02 -0.85414194864E+03  0.85572939137E+03  0.00000000000E+00 0. -1.
          1    1    1    2  502    0  0.25459563373E+01  0.63061514650E+02  0.41933049850E+03  0.42405342057E+03  0.00000000000E+00 0. -1.
         22    1    3    3    0    0  0.37618628456E+02  0.16229354035E+02 -0.81059714054E+02  0.90825273916E+02  0.00000000000E+00 0.  1.
         22    1    3    3    0    0 -0.67500769499E+02 -0.34939365425E+02 -0.36314727203E+02  0.84237002268E+02  0.00000000000E+00 0.  1.
</event>
<event>
 7    1  0.6278987E-006  0.1355506E+03  0.7818608E-02  0.1361992E+00
          2   -1    0    0  502    0  0.00000000000E+00  0.00000000000E+00  0.21683589740E+04  0.21683589740E+04  0.00000000000E+00 0. -1.
          1   -1    0    0  501    0 -0.00000000000E+00 -0.00000000000E+00 -0.29925419525E+03  0.29925419525E+03  0.00000000000E+00 0. -1.
         25    2    1    2    0    0  0.40840633393E+02  0.15786277789E+03  0.56428287917E+03  0.60052349812E+03  0.12499876036E+03 0.  0.
          2    1    1    2  501    0 -0.52424784501E+02 -0.12422414160E+03 -0.26475403399E+03  0.29711057521E+03  0.00000000000E+00 0. -1.
          1    1    1    2  502    0  0.11584151107E+02 -0.33638636295E+02  0.15695759335E+04  0.15699790959E+04  0.00000000000E+00 0. -1.
         22    1    3    3    0    0  0.49344533265E+01  0.54889233044E+02  0.48736538026E+02  0.73569197851E+02  0.00000000000E+00 0.  1.
         22    1    3    3    0    0  0.35906180067E+02  0.10297354485E+03  0.51554634114E+03  0.52695430027E+03  0.00000000000E+00 0.  1.
</event>
<event>
 7    1  0.6278987E-006  0.1422508E+03  0.7818608E-02  0.1276600E+00
          2   -1    0    0  502    0  0.00000000000E+00  0.00000000000E+00  0.87786629729E+03  0.87786629729E+03  0.00000000000E+00 0. -1.
          1   -1    0    0  501    0 -0.00000000000E+00 -0.00000000000E+00 -0.14243623722E+03  0.14243623722E+03  0.00000000000E+00 0. -1.
         25    2    1    2    0    0 -0.15050534122E+03 -0.15258521867E+01  0.35477991514E+03  0.40515173862E+03  0.12499982862E+03 0.  0.
          2    1    1    2  501    0  0.23113816776E+02  0.69055531635E+02 -0.94101562427E+02  0.11898747424E+03  0.00000000000E+00 0. -1.
          1    1    1    2  502    0  0.12739152445E+03 -0.67529679448E+02  0.47475170736E+03  0.49616332165E+03  0.00000000000E+00 0. -1.
         22    1    3    3    0    0 -0.25831426175E+02 -0.43251311166E+02  0.41037864927E+02  0.64977264128E+02  0.00000000000E+00 0.  1.
         22    1    3    3    0    0 -0.12467391505E+03  0.41725458979E+02  0.31374205022E+03  0.34017447449E+03  0.00000000000E+00 0.  1.
</event>
<event>
 7    1  0.6278987E-006  0.9280536E+02  0.7818608E-02  0.1309868E+00
          2   -1    0    0  502    0  0.00000000000E+00  0.00000000000E+00  0.61130274735E+03  0.61130274735E+03  0.00000000000E+00 0. -1.
          1   -1    0    0  501    0 -0.00000000000E+00 -0.00000000000E+00 -0.10505302798E+03  0.10505302798E+03  0.00000000000E+00 0. -1.
         25    2    1    2    0    0  0.56429060031E+02 -0.70797441764E+02  0.14293461206E+03  0.21036161054E+03  0.12500074915E+03 0.  0.
          2    1    1    2  501    0 -0.99251561871E+02  0.10246006299E+01 -0.30439271469E+02  0.10381941816E+03  0.00000000000E+00 0. -1.
          1    1    1    2  502    0  0.42822501839E+02  0.69772841134E+02  0.39375437878E+03  0.40217474663E+03  0.00000000000E+00 0. -1.
         22    1    3    3    0    0  0.46990058605E+02  0.27345470854E+02  0.37728479896E+02  0.66176117892E+02  0.00000000000E+00 0. -1.
         22    1    3    3    0    0  0.94390014263E+01 -0.98142912618E+02  0.10520613216E+03  0.14418549265E+03  0.00000000000E+00 0. -1.
</event>
<event>
 7    1  0.6278987E-006  0.5717044E+02  0.7818608E-02  0.1550935E+00
          2   -1    0    0  502    0  0.00000000000E+00  0.00000000000E+00  0.15560639127E+03  0.15560639127E+03  0.00000000000E+00 0. -1.
          1   -1    0    0  501    0 -0.00000000000E+00 -0.00000000000E+00 -0.21548906773E+03  0.21548906773E+03  0.00000000000E+00 0. -1.
         25    2    1    2    0    0  0.16021321572E+02  0.33452055851E+02 -0.10924275959E+03  0.17009265670E+03  0.12498723356E+03 0.  0.
          2    1    1    2  501    0  0.10626779283E+02  0.18238118060E+02 -0.67364073626E+02  0.70593737709E+02  0.00000000000E+00 0. -1.
          1    1    1    2  502    0 -0.26648100856E+02 -0.51690173911E+02  0.11672415675E+03  0.13040906459E+03  0.00000000000E+00 0. -1.
         22    1    3    3    0    0 -0.30331237915E+02  0.21645332161E+02  0.12489533197E+02  0.39300036098E+02  0.00000000000E+00 0. -1.
         22    1    3    3    0    0  0.46352559487E+02  0.11806723690E+02 -0.12173229279E+03  0.13079262060E+03  0.00000000000E+00 0. -1.
</event>
<event>
 7    1  0.6278987E-006  0.6035520E+02  0.7818608E-02  0.1498986E+00
          2   -1    0    0  502    0  0.00000000000E+00  0.00000000000E+00  0.18210683853E+03  0.18210683853E+03  0.00000000000E+00 0. -1.
          1   -1    0    0  501    0 -0.00000000000E+00 -0.00000000000E+00 -0.38454906312E+03  0.38454906312E+03  0.00000000000E+00 0. -1.
         25    2    1    2    0    0  0.74148011387E+02 -0.13351794052E+02 -0.18414105847E+03  0.23496705706E+03  0.12500156196E+03 0.  0.
          2    1    1    2  501    0 -0.15017280216E+02  0.23911039290E+02 -0.16801703339E+03  0.17037306129E+03  0.00000000000E+00 0. -1.
          1    1    1    2  502    0 -0.59130731171E+02 -0.10559245239E+02  0.14971586727E+03  0.16131578330E+03  0.00000000000E+00 0. -1.
         22    1    3    3    0    0  0.73682586812E+02  0.43757759547E+02 -0.85934884168E+02  0.12136172970E+03  0.00000000000E+00 0. -1.
         22    1    3    3    0    0  0.46542457485E+00 -0.57109553598E+02 -0.98206174304E+02  0.11360532736E+03  0.00000000000E+00 0. -1.
</event>
<event>
 7    1  0.6278987E-006  0.6706359E+02  0.7818608E-02  0.1471299E+00
          2   -1    0    0  502    0  0.00000000000E+00  0.00000000000E+00  0.97579748529E+03  0.97579748529E+03  0.00000000000E+00 0. -1.
          1   -1    0    0  501    0 -0.00000000000E+00 -0.00000000000E+00 -0.64687870166E+03  0.64687870166E+03  0.00000000000E+00 0. -1.
         25    2    1    2    0    0 -0.80164188928E+02  0.31081927007E+02  0.47797114337E+03  0.50147182131E+03  0.12500076120E+03 0.  0.
          2    1    1    2  501    0  0.51599409712E+02 -0.42755084117E+02 -0.63286790734E+03  0.63640575457E+03  0.00000000000E+00 0. -1.
          1    1    1    2  502    0  0.28564779216E+02  0.11673157110E+02  0.48381554760E+03  0.48479861108E+03  0.00000000000E+00 0. -1.
         22    1    3    3    0    0 -0.47441844507E+02  0.75997526652E+02  0.36130287020E+03  0.37224470001E+03  0.00000000000E+00 0.  1.
         22    1    3    3    0    0 -0.32722344421E+02 -0.44915599645E+02  0.11666827316E+03  0.12922712130E+03  0.00000000000E+00 0.  1.
</event>
<event>
 7    1  0.6278987E-006  0.1002406E+03  0.7818608E-02  0.1436794E+00
          2   -1    0    0  502    0  0.00000000000E+00  0.00000000000E+00  0.16826788115E+03  0.16826788115E+03  0.00000000000E+00 0. -1.
          1   -1    0    0  501    0 -0.00000000000E+00 -0.00000000000E+00 -0.12098514820E+04  0.12098514820E+04  0.00000000000E+00 0. -1.
         25    2    1    2    0    0 -0.62267934995E+02 -0.68226487077E+02 -0.66945392193E+02  0.16923428055E+03  0.12500562752E+03 0.  0.
          2    1    1    2  501    0  0.14620998580E+02 -0.22200309926E+02 -0.10692653349E+04  0.10695957105E+04  0.00000000000E+00 0. -1.
          1    1    1    2  502    0  0.47646936415E+02  0.90426797002E+02  0.94627126263E+02  0.13928937214E+03  0.00000000000E+00 0. -1.
         22    1    3    3    0    0 -0.60696991630E+02 -0.62453302659E+02 -0.10174302021E+03  0.13392603170E+03  0.00000000000E+00 0. -1.
         22    1    3    3    0    0 -0.15709433651E+01 -0.57731844174E+01  0.34797628016E+02  0.35308248851E+02  0.00000000000E+00 0. -1.
</event>
<event>
 7    1  0.6278987E-006  0.5850009E+02  0.7818608E-02  0.1493345E+00
          2   -1    0    0  502    0  0.00000000000E+00  0.00000000000E+00  0.15133942606E+03  0.15133942606E+03  0.00000000000E+00 0. -1.
          1   -1    0    0  501    0 -0.00000000000E+00 -0.00000000000E+00 -0.16001517090E+04  0.16001517090E+04  0.00000000000E+00 0. -1.
         25    2    1    2    0    0  0.15442756720E+02  0.34624238169E+02 -0.28657716164E+03  0.31494261337E+03  0.12500025415E+03 0.  0.
          2    1    1    2  501    0 -0.18029867576E+02  0.24337722127E+02 -0.12928572734E+04  0.12932120206E+04  0.00000000000E+00 0. -1.
          1    1    1    2  502    0  0.25871108560E+01 -0.58961960296E+02  0.13062215214E+03  0.14333650105E+03  0.00000000000E+00 0. -1.
         22    1    3    3    0    0 -0.12371093961E+02  0.71612522856E+02 -0.10593433322E+03  0.12846587232E+03  0.00000000000E+00 0.  1.
         22    1    3    3    0    0  0.27813850681E+02 -0.36988284687E+02 -0.18064282842E+03  0.18647674105E+03  0.00000000000E+00 0.  1.
</event>
<event>
 7    1  0.6278987E-006  0.1055186E+03  0.7818608E-02  0.1270515E+00
          2   -1    0    0  502    0  0.00000000000E+00  0.00000000000E+00  0.65301678054E+03  0.65301678054E+03  0.00000000000E+00 0. -1.
          1   -1    0    0  501    0 -0.00000000000E+00 -0.00000000000E+00 -0.45692199151E+03  0.45692199151E+03  0.00000000000E+00 0. -1.
         25    2    1    2    0    0  0.51965816839E+02  0.87033302232E+02 -0.15059877278E+03  0.22041079716E+03  0.12500274927E+03 0.  0.
          2    1    1    2  501    0  0.49614031847E+02 -0.10973471036E+03 -0.25335388502E+03  0.28051996341E+03  0.00000000000E+00 0. -1.
          1    1    1    2  502    0 -0.10157984869E+03  0.22701408128E+02  0.60004744684E+03  0.60900801148E+03  0.00000000000E+00 0. -1.
         22    1    3    3    0    0  0.13721671844E+02  0.71726834279E+02 -0.16197403273E+03  0.17767557601E+03  0.00000000000E+00 0. -1.
         22    1    3    3    0    0  0.38244144996E+02  0.15306467953E+02  0.11375259948E+02  0.42735221148E+02  0.00000000000E+00 0. -1.
</event>
<event>
 7    1  0.6278987E-006  0.1277401E+03  0.7818608E-02  0.1310479E+00
          2   -1    0    0  502    0  0.00000000000E+00  0.00000000000E+00  0.11791017231E+04  0.11791017231E+04  0.00000000000E+00 0. -1.
          1   -1    0    0  501    0 -0.00000000000E+00 -0.00000000000E+00 -0.33500079461E+04  0.33500079461E+04  0.00000000000E+00 0. -1.
         25    2    1    2    0    0  0.46748053860E+02  0.10507945994E+03  0.88518753094E+02  0.19154055052E+03  0.12500055761E+03 0.  0.
          2    1    1    2  501    0  0.54198525451E+02 -0.23685797654E+02 -0.32941848186E+04  0.32947157869E+04  0.00000000000E+00 0. -1.
          1    1    1    2  502    0 -0.10094657931E+03 -0.81393662288E+02  0.10347598424E+04  0.10428533318E+04  0.00000000000E+00 0. -1.
         22    1    3    3    0    0  0.22731551600E+02  0.64507066953E+02  0.11767376067E+03  0.13610657249E+03  0.00000000000E+00 0. -1.
         22    1    3    3    0    0  0.24016502260E+02  0.40572392988E+02 -0.29155007574E+02  0.55433978030E+02  0.00000000000E+00 0. -1.
</event>
<event>
 7    1  0.6278987E-006  0.1500087E+03  0.7818608E-02  0.1258232E+00
          2   -1    0    0  502    0  0.00000000000E+00  0.00000000000E+00  0.48676622879E+02  0.48676622879E+02  0.00000000000E+00 0. -1.
          1   -1    0    0  501    0 -0.00000000000E+00 -0.00000000000E+00 -0.19505222904E+04  0.19505222904E+04  0.00000000000E+00 0. -1.
         25    2    1    2    0    0  0.14304784342E+03  0.15730204406E+03 -0.61415679964E+03  0.66182953207E+03  0.12499254543E+03 0.  0.
          2    1    1    2  501    0 -0.44648408503E+02 -0.69420065934E+02 -0.11244817787E+04  0.11275069385E+04  0.00000000000E+00 0. -1.
          1    1    1    2  502    0 -0.98399434914E+02 -0.87881978122E+02 -0.16320708928E+03  0.20986244271E+03  0.00000000000E+00 0. -1.
         22    1    3    3    0    0  0.12797715186E+03  0.17850698009E+03 -0.56544766161E+03  0.60660856519E+03  0.00000000000E+00 0. -1.
         22    1    3    3    0    0  0.15070691557E+02 -0.21204936036E+02 -0.48709138024E+02  0.55220966882E+02  0.00000000000E+00 0. -1.
</event>
<event>
 7    1  0.6278987E-006  0.8744529E+02  0.7818608E-02  0.1425279E+00
          2   -1    0    0  502    0  0.00000000000E+00  0.00000000000E+00  0.20304910778E+04  0.20304910778E+04  0.00000000000E+00 0. -1.
          1   -1    0    0  501    0 -0.00000000000E+00 -0.00000000000E+00 -0.13190502896E+03  0.13190502896E+03  0.00000000000E+00 0. -1.
         25    2    1    2    0    0 -0.15740652829E+02  0.11341453941E+03  0.39302308104E+03  0.42802072288E+03  0.12499588426E+03 0.  0.
          2    1    1    2  501    0 -0.10196418790E+02 -0.31644959582E+02 -0.11082912025E+03  0.11570853175E+03  0.00000000000E+00 0. -1.
          1    1    1    2  502    0  0.25937071620E+02 -0.81769579832E+02  0.16163920880E+04  0.16186668521E+04  0.00000000000E+00 0. -1.
         22    1    3    3    0    0  0.15516773428E+02  0.40253836150E+02  0.21739314464E+02  0.48308791910E+02  0.00000000000E+00 0.  1.
         22    1    3    3    0    0 -0.31257426258E+02  0.73160703264E+02  0.37128376657E+03  0.37971193097E+03  0.00000000000E+00 0.  1.
</event>
<event>
 7    1  0.6278987E-006  0.1442057E+03  0.7818608E-02  0.1233607E+00
          2   -1    0    0  502    0  0.00000000000E+00  0.00000000000E+00  0.28003532984E+03  0.28003532984E+03  0.00000000000E+00 0. -1.
          1   -1    0    0  501    0 -0.00000000000E+00 -0.00000000000E+00 -0.13763680837E+04  0.13763680837E+04  0.00000000000E+00 0. -1.
         25    2    1    2    0    0 -0.17679519801E+03  0.13666048011E+03 -0.32394482729E+02  0.25808315297E+03  0.12499952989E+03 0.  0.
          2    1    1    2  501    0  0.13787874957E+03 -0.33786648269E+02 -0.12084241148E+04  0.12167337130E+04  0.00000000000E+00 0. -1.
          1    1    1    2  502    0  0.38916448441E+02 -0.10287383184E+03  0.14448584365E+03  0.18158654755E+03  0.00000000000E+00 0. -1.
         22    1    3    3    0    0 -0.15750890541E+03  0.88523885152E+02 -0.70273272765E+02  0.19386558847E+03  0.00000000000E+00 0.  1.
         22    1    3    3    0    0 -0.19286292595E+02  0.48136594953E+02  0.37878790035E+02  0.64217564500E+02  0.00000000000E+00 0.  1.
</event>
<event>
 7    1  0.6278987E-006  0.1498479E+03  0.7818608E-02  0.1295674E+00
          2   -1    0    0  502    0  0.00000000000E+00  0.00000000000E+00  0.40738794824E+03  0.40738794824E+03  0.00000000000E+00 0. -1.
          1   -1    0    0  501    0 -0.00000000000E+00 -0.00000000000E+00 -0.11162480500E+04  0.11162480500E+04  0.00000000000E+00 0. -1.
         25    2    1    2    0    0 -0.89942042809E+02 -0.15705877467E+03 -0.73508228180E+03  0.76728658221E+03  0.12500283383E+03 0.  0.
          2    1    1    2  501    0  0.45335525977E+02  0.12036950651E+03 -0.35147017294E+03  0.37426649660E+03  0.00000000000E+00 0. -1.
          1    1    1    2  502    0  0.44606516831E+02  0.36689268167E+02  0.37769235303E+03  0.38208291937E+03  0.00000000000E+00 0. -1.
         22    1    3    3    0    0 -0.11616038321E+03 -0.10459260200E+03 -0.59987943076E+03  0.61990981479E+03  0.00000000000E+00 0. -1.
         22    1    3    3    0    0  0.26218340401E+02 -0.52466172672E+02 -0.13520285104E+03  0.14737676743E+03  0.00000000000E+00 0. -1.
</event>
<event>
 7    1  0.6278987E-006  0.1499392E+03  0.7818608E-02  0.1229160E+00
          2   -1    0    0  502    0  0.00000000000E+00  0.00000000000E+00  0.86864456133E+03  0.86864456133E+03  0.00000000000E+00 0. -1.
          1   -1    0    0  501    0 -0.00000000000E+00 -0.00000000000E+00 -0.41282031566E+03  0.41282031566E+03  0.00000000000E+00 0. -1.
         25    2    1    2    0    0  0.52007406874E+02  0.86720702728E+01  0.11698533668E+02  0.13617285566E+03  0.12500486293E+03 0.  0.
          2    1    1    2  501    0  0.11063894881E+03  0.47507698693E+01 -0.33314732799E+03  0.35107077485E+03  0.00000000000E+00 0. -1.
          1    1    1    2  502    0 -0.16264635568E+03 -0.13422840142E+02  0.77727303999E+03  0.79422124648E+03  0.00000000000E+00 0. -1.
         22    1    3    3    0    0  0.21122786122E+02  0.17678303642E+02 -0.55339304904E+02  0.61815315096E+02  0.00000000000E+00 0. -1.
         22    1    3    3    0    0  0.30884620753E+02 -0.90062333693E+01  0.67037838572E+02  0.74357540565E+02  0.00000000000E+00 0. -1.
</event>
<event>
 7    1  0.6278987E-006  0.8593356E+02  0.7818608E-02  0.1419206E+00
          2   -1    0    0  502    0  0.00000000000E+00  0.00000000000E+00  0.98377048797E+02  0.98377048797E+02  0.00000000000E+00 0. -1.
          1   -1    0    0  501    0 -0.00000000000E+00 -0.00000000000E+00 -0.63200300664E+03  0.63200300664E+03  0.00000000000E+00 0. -1.
         25    2    1    2    0    0 -0.39557212342E+02  0.80035455270E+02 -0.13265370765E+03  0.20296018335E+03  0.12500153089E+03 0.  0.
          2    1    1    2  501    0  0.65633466441E+02 -0.56028551310E+02 -0.45483068251E+03  0.46294481337E+03  0.00000000000E+00 0. -1.
          1    1    1    2  502    0 -0.26076254099E+02 -0.24006903961E+02  0.53858432311E+02  0.64475058717E+02  0.00000000000E+00 0. -1.
         22    1    3    3    0    0  0.17519401272E+02  0.21593371888E+02  0.16907795533E+02  0.32543458332E+02  0.00000000000E+00 0.  1.
         22    1    3    3    0    0 -0.57076613614E+02  0.58442083382E+02 -0.14956150318E+03  0.17041672502E+03  0.00000000000E+00 0.  1.
</event>
<event>
 7    1  0.6278987E-006  0.8327906E+02  0.7818608E-02  0.1368441E+00
          2   -1    0    0  502    0  0.00000000000E+00  0.00000000000E+00  0.41128950533E+04  0.41128950533E+04  0.00000000000E+00 0. -1.
          1   -1    0    0  501    0 -0.00000000000E+00 -0.00000000000E+00 -0.15346159252E+02  0.15346159252E+02  0.00000000000E+00 0. -1.
         25    2    1    2    0    0 -0.19184738884E+02  0.99697245630E+02  0.21023365640E+04  0.21084951087E+04  0.12500000159E+03 0.  0.
          2    1    1    2  501    0 -0.30830030392E+02 -0.77114080474E+02  0.13349095648E+03  0.15721611763E+03  0.00000000000E+00 0. -1.
          1    1    1    2  502    0  0.50014769276E+02 -0.22583165156E+02  0.18617213736E+04  0.18625299862E+04  0.00000000000E+00 0. -1.
         22    1    3    3    0    0 -0.23492755625E+02  0.33563530580E+02  0.17178563010E+04  0.17183447533E+04  0.00000000000E+00 0. -1.
         22    1    3    3    0    0  0.43080167404E+01  0.66133715049E+02  0.38448026295E+03  0.39015035547E+03  0.00000000000E+00 0. -1.
</event>
<event>
 7    1  0.6278987E-006  0.6328076E+02  0.7818608E-02  0.1498343E+00
          2   -1    0    0  502    0  0.00000000000E+00  0.00000000000E+00  0.64776566378E+03  0.64776566378E+03  0.00000000000E+00 0. -1.
          1   -1    0    0  501    0 -0.00000000000E+00 -0.00000000000E+00 -0.77263144736E+03  0.77263144736E+03  0.00000000000E+00 0. -1.
         25    2    1    2    0    0 -0.36702835124E+02  0.30282477586E+02 -0.73034413892E+02  0.15239032760E+03  0.12499863911E+03 0.  0.
          2    1    1    2  501    0  0.72635540898E+01  0.26056474326E+02 -0.65797917203E+03  0.65853495723E+03  0.00000000000E+00 0. -1.
          1    1    1    2  502    0  0.29439281034E+02 -0.56338951912E+02  0.60614780234E+03  0.60947182630E+03  0.00000000000E+00 0. -1.
         22    1    3    3    0    0 -0.31746694191E+02  0.53430585953E+02 -0.99227735562E+02  0.11708468564E+03  0.00000000000E+00 0. -1.
         22    1    3    3    0    0 -0.49561409328E+01 -0.23148108367E+02  0.26193321669E+02  0.35305641957E+02  0.00000000000E+00 0. -1.
</event>
<event>
 7    1  0.6278987E-006  0.7810096E+02  0.7818608E-02  0.1349175E+00
          2   -1    0    0  502    0  0.00000000000E+00  0.00000000000E+00  0.50567015617E+03  0.50567015617E+03  0.00000000000E+00 0. -1.
          1   -1    0    0  501    0 -0.00000000000E+00 -0.00000000000E+00 -0.15536150802E+04  0.15536150802E+04  0.00000000000E+00 0. -1.
         25    2    1    2    0    0  0.74667402573E+02  0.98890035960E+02 -0.40549679720E+02  0.18062068582E+03  0.12500038161E+03 0.  0.
          2    1    1    2  501    0 -0.93919967386E+01 -0.77090634544E+02 -0.14392585665E+04  0.14413522806E+04  0.00000000000E+00 0. -1.
          1    1    1    2  502    0 -0.65275405834E+02 -0.21799401416E+02  0.43186332212E+03  0.43731227001E+03  0.00000000000E+00 0. -1.
         22    1    3    3    0    0  0.10242135167E+03  0.10428816036E+03 -0.24814334973E+02  0.14826295859E+03  0.00000000000E+00 0. -1.
         22    1    3    3    0    0 -0.27753949096E+02 -0.53981243988E+01 -0.15735344746E+02  0.32357727234E+02  0.00000000000E+00 0. -1.
</event>
<event>
 7    1  0.6278987E-006  0.9527522E+02  0.7818608E-02  0.1296194E+00
          2   -1    0    0  502    0  0.00000000000E+00  0.00000000000E+00  0.21711090665E+04  0.21711090665E+04  0.00000000000E+00 0. -1.
          1   -1    0    0  501    0 -0.00000000000E+00 -0.00000000000E+00 -0.22799415459E+03  0.22799415459E+03  0.00000000000E+00 0. -1.
         25    2    1    2    0    0 -0.44715338489E+02  0.28017331745E+02  0.12930917199E+04  0.13001950804E+04  0.12504646645E+03 0.  0.
          2    1    1    2  501    0  0.77717024251E+02  0.56145872569E+02 -0.21173000673E+03  0.23242609711E+03  0.00000000000E+00 0. -1.
          1    1    1    2  502    0 -0.33001685763E+02 -0.84163204314E+02  0.86175319882E+03  0.86648204361E+03  0.00000000000E+00 0. -1.
         22    1    3    3    0    0 -0.61480276531E+02  0.67597236256E+02  0.78878206488E+03  0.79405689760E+03  0.00000000000E+00 0.  1.
         22    1    3    3    0    0  0.16764938042E+02 -0.39579904511E+02  0.50430965499E+03  0.50613818282E+03  0.00000000000E+00 0.  1.
</event>
<event>
 7    1  0.6278987E-006  0.8472328E+02  0.7818608E-02  0.1404155E+00
          2   -1    0    0  502    0  0.00000000000E+00  0.00000000000E+00  0.11551439054E+04  0.11551439054E+04  0.00000000000E+00 0. -1.
          1   -1    0    0  501    0 -0.00000000000E+00 -0.00000000000E+00 -0.67449471988E+03  0.67449471988E+03  0.00000000000E+00 0. -1.
         25    2    1    2    0    0 -0.15416989251E+02 -0.58538670683E+02  0.46886081715E+03  0.48899855720E+03  0.12499865426E+03 0.  0.
          2    1    1    2  501    0 -0.35271566744E+02 -0.19738940539E+02 -0.66058998966E+03  0.66182538757E+03  0.00000000000E+00 0. -1.
          1    1    1    2  502    0  0.50688555995E+02  0.78277611221E+02  0.67237835802E+03  0.67881468050E+03  0.00000000000E+00 0. -1.
         22    1    3    3    0    0  0.98471744792E+01 -0.53939900764E+02  0.68166792881E+02  0.87482520491E+02  0.00000000000E+00 0.  1.
         22    1    3    3    0    0 -0.25264163730E+02 -0.45987699184E+01  0.40069402427E+03  0.40151603671E+03  0.00000000000E+00 0.  1.
</event>
<event>
 7    1  0.6278987E-006  0.4656683E+02  0.7818608E-02  0.1474741E+00
          2   -1    0    0  502    0  0.00000000000E+00  0.00000000000E+00  0.16067729393E+04  0.16067729393E+04  0.00000000000E+00 0. -1.
          1   -1    0    0  501    0 -0.00000000000E+00 -0.00000000000E+00 -0.11739159669E+03  0.11739159669E+03  0.00000000000E+00 0. -1.
         25    2    1    2    0    0  0.12915169366E+02  0.65861899764E+02  0.90981549204E+02  0.16854355748E+03  0.12499878813E+03 0.  0.
          2    1    1    2  501    0 -0.35940071518E+02 -0.29117520882E+02 -0.71458896876E+02  0.85122809551E+02  0.00000000000E+00 0. -1.
          1    1    1    2  502    0  0.23024902152E+02 -0.36744378882E+02  0.14698586903E+04  0.14704981689E+04  0.00000000000E+00 0. -1.
         22    1    3    3    0    0  0.44310661294E+01  0.74599177720E+02 -0.20102159280E+01  0.74757692792E+02  0.00000000000E+00 0. -1.
         22    1    3    3    0    0  0.84841032365E+01 -0.87372779559E+01  0.92991765132E+02  0.93785864692E+02  0.00000000000E+00 0. -1.
</event>
<event>
 7    1  0.6278987E-006  0.9403331E+02  0.7818608E-02  0.1399014E+00
          2   -1    0    0  502    0  0.00000000000E+00  0.00000000000E+00  0.18049888904E+03  0.18049888904E+03  0.00000000000E+00 0. -1.
          1   -1    0    0  501    0 -0.00000000000E+00 -0.00000000000E+00 -0.10123686380E+04  0.10123686380E+04  0.00000000000E+00 0. -1.
         25    2    1    2    0    0 -0.84210767447E+02  0.25328732723E+02  0.40247215779E+02  0.15804524939E+03  0.12500185767E+03 0.  0.
          2    1    1    2  501    0  0.68331851593E+01  0.37306176695E+02 -0.92247824965E+03  0.92325758286E+03  0.00000000000E+00 0. -1.
          1    1    1    2  502    0  0.77377582287E+02 -0.62634909418E+02  0.50361284865E+02  0.11156469483E+03  0.00000000000E+00 0. -1.
         22    1    3    3    0    0 -0.10125601143E+03  0.33685629012E+02 -0.71863575841E+01  0.10695393956E+03  0.00000000000E+00 0. -1.
         22    1    3    3    0    0  0.17045243983E+02 -0.83568962893E+01  0.47433573363E+02  0.51091309829E+02  0.00000000000E+00 0. -1.
</event>
<event>
 7    1  0.6278987E-006  0.3464819E+02  0.7818608E-02  0.1577445E+00
          2   -1    0    0  502    0  0.00000000000E+00  0.00000000000E+00  0.76200607453E+03  0.76200607453E+03  0.00000000000E+00 0. -1.
          1   -1    0    0  501    0 -0.00000000000E+00 -0.00000000000E+00 -0.68433651748E+02  0.68433651748E+02  0.00000000000E+00 0. -1.
         25    2    1    2    0    0 -0.33398889581E+02 -0.46079076668E+02  0.41415707543E+03  0.43633654636E+03  0.12499892569E+03 0.  0.
          2    1    1    2  501    0  0.47778992390E+01  0.29078994302E+02 -0.52670004895E+02  0.60353505668E+02  0.00000000000E+00 0. -1.
          1    1    1    2  502    0  0.28620990342E+02  0.17000082366E+02  0.33208535225E+03  0.33374967426E+03  0.00000000000E+00 0. -1.
         22    1    3    3    0    0  0.35337754110E+02  0.20449975654E+02  0.14722039861E+03  0.15277697516E+03  0.00000000000E+00 0. -1.
         22    1    3    3    0    0 -0.68736643691E+02 -0.66529052322E+02  0.26693667682E+03  0.28355957120E+03  0.00000000000E+00 0. -1.
</event>
<event>
 7    1  0.6278987E-006  0.3910116E+02  0.7818608E-02  0.1614181E+00
          2   -1    0    0  502    0  0.00000000000E+00  0.00000000000E+00  0.63358949845E+03  0.63358949845E+03  0.00000000000E+00 0. -1.
          1   -1    0    0  501    0 -0.00000000000E+00 -0.00000000000E+00 -0.14017015810E+03  0.14017015810E+03  0.00000000000E+00 0. -1.
         25    2    1    2    0    0  0.33534435905E+02 -0.44342736788E+02  0.13815888051E+03  0.19443198278E+03  0.12500033187E+03 0.  0.
          2    1    1    2  501    0 -0.30795013080E+02  0.23613879973E+02 -0.10843045010E+03  0.11516557935E+03  0.00000000000E+00 0. -1.
          1    1    1    2  502    0 -0.27394228253E+01  0.20728856815E+02  0.46369090994E+03  0.46416209443E+03  0.00000000000E+00 0. -1.
         22    1    3    3    0    0  0.60704066561E+02 -0.58455861917E+02  0.14038179439E+03  0.16373490675E+03  0.00000000000E+00 0. -1.
         22    1    3    3    0    0 -0.27169630655E+02  0.14113125129E+02 -0.22229138853E+01  0.30697076033E+02  0.00000000000E+00 0. -1.
</event>
<event>
 7    1  0.6278987E-006  0.5629531E+02  0.7818608E-02  0.1490268E+00
          2   -1    0    0  502    0  0.00000000000E+00  0.00000000000E+00  0.20642240463E+04  0.20642240463E+04  0.00000000000E+00 0. -1.
          1   -1    0    0  501    0 -0.00000000000E+00 -0.00000000000E+00 -0.28726220505E+02  0.28726220505E+02  0.00000000000E+00 0. -1.
         25    2    1    2    0    0 -0.34310761955E+02  0.75541364004E+02  0.51356685318E+03  0.53503111614E+03  0.12499462582E+03 0.  0.
          2    1    1    2  501    0  0.25159836383E+00 -0.32154314337E+02 -0.27205646749E+01  0.32270182900E+02  0.00000000000E+00 0. -1.
          1    1    1    2  502    0  0.34059163592E+02 -0.43387049667E+02  0.15246515373E+04  0.15256489678E+04  0.00000000000E+00 0. -1.
         22    1    3    3    0    0 -0.49918433932E+02  0.10497232172E+03  0.41597971375E+03  0.43191452931E+03  0.00000000000E+00 0. -1.
         22    1    3    3    0    0  0.15607671976E+02 -0.29430957719E+02  0.97587139432E+02  0.10311658683E+03  0.00000000000E+00 0. -1.
</event>
<event>
 7    1  0.6278987E-006  0.9840615E+02  0.7818608E-02  0.1344542E+00
          2   -1    0    0  502    0  0.00000000000E+00  0.00000000000E+00  0.16916585632E+03  0.16916585632E+03  0.00000000000E+00 0. -1.
          1   -1    0    0  501    0 -0.00000000000E+00 -0.00000000000E+00 -0.62124416870E+03  0.62124416870E+03  0.00000000000E+00 0. -1.
         25    2    1    2    0    0 -0.13305723816E+03 -0.18883588498E+02 -0.41172258038E+03  0.45077834937E+03  0.12499927409E+03 0.  0.
          2    1    1    2  501    0  0.82070838696E+02 -0.62208037779E+01 -0.17505241036E+03  0.19343646847E+03  0.00000000000E+00 0. -1.
          1    1    1    2  502    0  0.50986399462E+02  0.25104392276E+02  0.13469667836E+03  0.14619520718E+03  0.00000000000E+00 0. -1.
         22    1    3    3    0    0 -0.14380542374E+03  0.35896053125E+01 -0.39600596423E+03  0.42132363911E+03  0.00000000000E+00 0.  1.
         22    1    3    3    0    0  0.10748185583E+02 -0.22473193810E+02 -0.15716616147E+02  0.29454710260E+02  0.00000000000E+00 0.  1.
</event>
<event>
 7    1  0.6278987E-006  0.5515070E+02  0.7818608E-02  0.1469098E+00
          2   -1    0    0  502    0  0.00000000000E+00  0.00000000000E+00  0.23734821620E+04  0.23734821620E+04  0.00000000000E+00 0. -1.
          1   -1    0    0  501    0 -0.00000000000E+00 -0.00000000000E+00 -0.12387194662E+02  0.12387194662E+02  0.00000000000E+00 0. -1.
         25    2    1    2    0    0  0.68024640908E+02 -0.58223117865E+02  0.82497467374E+03  0.83918107550E+03  0.12499752774E+03 0.  0.
          2    1    1    2  501    0 -0.23055868586E+02  0.30356564573E+02  0.70770403137E+02  0.80383730002E+02  0.00000000000E+00 0. -1.
          1    1    1    2  502    0 -0.44968772322E+02  0.27866553292E+02  0.14653498905E+04  0.14663045512E+04  0.00000000000E+00 0. -1.
         22    1    3    3    0    0  0.52274944036E+02 -0.93677063293E+02  0.46970887147E+03  0.48180336850E+03  0.00000000000E+00 0. -1.
         22    1    3    3    0    0  0.15749696872E+02  0.35453945428E+02  0.35526580227E+03  0.35737770700E+03  0.00000000000E+00 0. -1.
</event>
<event>
 7    1  0.6278987E-006  0.1152582E+03  0.7818608E-02  0.1282133E+00
          2   -1    0    0  502    0  0.00000000000E+00  0.00000000000E+00  0.57584999546E+03  0.57584999546E+03  0.00000000000E+00 0. -1.
          1   -1    0    0  501    0 -0.00000000000E+00 -0.00000000000E+00 -0.16965765705E+03  0.16965765705E+03  0.00000000000E+00 0. -1.
         25    2    1    2    0    0  0.99351692076E+02  0.14172514432E+03  0.13024674071E+03  0.25009224662E+03  0.12500057241E+03 0.  0.
          2    1    1    2  501    0 -0.61567737332E+01 -0.85038427139E+02 -0.83768103812E+02  0.11952629489E+03  0.00000000000E+00 0. -1.
          1    1    1    2  502    0 -0.93194918342E+02 -0.56686717178E+02  0.35971370152E+03  0.37588911101E+03  0.00000000000E+00 0. -1.
         22    1    3    3    0    0  0.10897033953E+03  0.57138048625E+02  0.49085285628E+02  0.13247134317E+03  0.00000000000E+00 0. -1.
         22    1    3    3    0    0 -0.96186474513E+01  0.84587095692E+02  0.81161455078E+02  0.11762090344E+03  0.00000000000E+00 0. -1.
</event>
<event>
 7    1  0.6278987E-006  0.7382318E+02  0.7818608E-02  0.1381492E+00
          2   -1    0    0  502    0  0.00000000000E+00  0.00000000000E+00  0.12968509502E+03  0.12968509502E+03  0.00000000000E+00 0. -1.
          1   -1    0    0  501    0 -0.00000000000E+00 -0.00000000000E+00 -0.21589677535E+04  0.21589677535E+04  0.00000000000E+00 0. -1.
         25    2    1    2    0    0 -0.68701496655E+02 -0.86848590291E+02 -0.97885873215E+03  0.99300184307E+03  0.12500267818E+03 0.  0.
          2    1    1    2  501    0  0.21488972363E+01  0.55569264276E+02 -0.11612861351E+04  0.11626168967E+04  0.00000000000E+00 0. -1.
          1    1    1    2  502    0  0.66552599419E+02  0.31279326015E+02  0.11086220884E+03  0.13303410869E+03  0.00000000000E+00 0. -1.
         22    1    3    3    0    0 -0.66165715006E+01  0.19771332933E+02 -0.42746648318E+03  0.42797462410E+03  0.00000000000E+00 0. -1.
         22    1    3    3    0    0 -0.62084925154E+02 -0.10661992322E+03 -0.55139224897E+03  0.56502721897E+03  0.00000000000E+00 0. -1.
</event>
<event>
 7    1  0.6278987E-006  0.8790244E+02  0.7818608E-02  0.1375919E+00
          2   -1    0    0  502    0  0.00000000000E+00  0.00000000000E+00  0.43390518598E+04  0.43390518598E+04  0.00000000000E+00 0. -1.
          1   -1    0    0  501    0 -0.00000000000E+00 -0.00000000000E+00 -0.71667422701E+03  0.71667422701E+03  0.00000000000E+00 0. -1.
         25    2    1    2    0    0 -0.40090689291E+01 -0.41269055511E+02  0.12377796740E+04  0.12447663062E+04  0.12500171236E+03 0.  0.
          2    1    1    2  501    0 -0.13234677626E+02  0.87005990403E+02 -0.71027217109E+03  0.71570367896E+03  0.00000000000E+00 0. -1.
          1    1    1    2  502    0  0.17243746556E+02 -0.45736934892E+02  0.30948701298E+04  0.30952561016E+04  0.00000000000E+00 0. -1.
         22    1    3    3    0    0  0.26795959569E+02 -0.35627792968E+02  0.14875392342E+03  0.15529035003E+03  0.00000000000E+00 0.  1.
         22    1    3    3    0    0 -0.30805028498E+02 -0.56412625430E+01  0.10890257506E+04  0.10894759562E+04  0.00000000000E+00 0.  1.
</event>
<event>
 7    1  0.6278987E-006  0.5364398E+02  0.7818608E-02  0.1429061E+00
          2   -1    0    0  502    0  0.00000000000E+00  0.00000000000E+00  0.17013532212E+03  0.17013532212E+03  0.00000000000E+00 0. -1.
          1   -1    0    0  501    0 -0.00000000000E+00 -0.00000000000E+00 -0.25143115298E+03  0.25143115298E+03  0.00000000000E+00 0. -1.
         25    2    1    2    0    0 -0.93879466195E+01  0.16680190575E+00 -0.22428873797E+02  0.12734419982E+03  0.12500131793E+03 0.  0.
          2    1    1    2  501    0 -0.17971110275E+02 -0.50544192498E+02 -0.16505193398E+03  0.17355061829E+03  0.00000000000E+00 0. -1.
          1    1    1    2  502    0  0.27359056894E+02  0.50377390592E+02  0.10618497691E+03  0.12067165698E+03  0.00000000000E+00 0. -1.
         22    1    3    3    0    0 -0.23534263611E+02  0.45194673701E+02 -0.51064588723E+02  0.72138840551E+02  0.00000000000E+00 0. -1.
         22    1    3    3    0    0  0.14146316992E+02 -0.45027871795E+02  0.28635714926E+02  0.55205359270E+02  0.00000000000E+00 0. -1.
</event>
<event>
 7    1  0.6278987E-006  0.4758193E+02  0.7818608E-02  0.1543538E+00
          2   -1    0    0  502    0  0.00000000000E+00  0.00000000000E+00  0.12689645125E+04  0.12689645125E+04  0.00000000000E+00 0. -1.
          1   -1    0    0  501    0 -0.00000000000E+00 -0.00000000000E+00 -0.30461345633E+02  0.30461345633E+02  0.00000000000E+00 0. -1.
         25    2    1    2    0    0  0.32716665031E+02  0.12911605819E+02  0.37698875927E+03  0.39872498062E+03  0.12499598320E+03 0.  0.
          2    1    1    2  501    0 -0.29239841535E+02 -0.39283815771E+02  0.11542946621E+02  0.50313279869E+02  0.00000000000E+00 0. -1.
          1    1    1    2  502    0 -0.34768234959E+01  0.26372209952E+02  0.84997146095E+03  0.85038759762E+03  0.00000000000E+00 0. -1.
         22    1    3    3    0    0  0.75638728718E+02  0.24501343775E+02  0.17994150164E+03  0.19672436845E+03  0.00000000000E+00 0.  1.
         22    1    3    3    0    0 -0.42922063688E+02 -0.11589737956E+02  0.19704725763E+03  0.20200061217E+03  0.00000000000E+00 0.  1.
</event>
<event>
 7    1  0.6278987E-006  0.7023915E+02  0.7818608E-02  0.1368747E+00
          2   -1    0    0  502    0  0.00000000000E+00  0.00000000000E+00  0.64448124052E+02  0.64448124052E+02  0.00000000000E+00 0. -1.
          1   -1    0    0  501    0 -0.00000000000E+00 -0.00000000000E+00 -0.45203737541E+03  0.45203737541E+03  0.00000000000E+00 0. -1.
         25    2    1    2    0    0  0.56078834906E+02 -0.23121400946E+02 -0.18117539777E+03  0.22831548319E+03  0.12499600074E+03 0.  0.
          2    1    1    2  501    0  0.86813218139E+01  0.64316629011E+02 -0.20101029461E+03  0.21122767966E+03  0.00000000000E+00 0. -1.
          1    1    1    2  502    0 -0.64760156719E+02 -0.41195228064E+02 -0.54035589802E+01  0.76942336612E+02  0.00000000000E+00 0. -1.
         22    1    3    3    0    0 -0.20772707426E+02 -0.27840360110E+02 -0.37924569852E+01  0.34942434873E+02  0.00000000000E+00 0.  1.
         22    1    3    3    0    0  0.76851542332E+02  0.47189591635E+01 -0.17738294078E+03  0.19337304831E+03  0.00000000000E+00 0.  1.
</event>
<event>
 7    1  0.6278987E-006  0.8792061E+02  0.7818608E-02  0.1464604E+00
          2   -1    0    0  502    0  0.00000000000E+00  0.00000000000E+00  0.23469524541E+04  0.23469524541E+04  0.00000000000E+00 0. -1.
          1   -1    0    0  501    0 -0.00000000000E+00 -0.00000000000E+00 -0.64401271090E+02  0.64401271090E+02  0.00000000000E+00 0. -1.
         25    2    1    2    0    0 -0.94592698294E+02  0.21622887600E+02  0.43973151695E+03  0.46734044556E+03  0.12501182832E+03 0.  0.
          2    1    1    2  501    0  0.16719897844E+02  0.18176823526E+02 -0.46510059790E+02  0.52660588290E+02  0.00000000000E+00 0. -1.
          1    1    1    2  502    0  0.77872800451E+02 -0.39799711126E+02  0.18893297259E+04  0.18913526913E+04  0.00000000000E+00 0. -1.
         22    1    3    3    0    0  0.11599355564E+02  0.31943138206E+02  0.35007776108E+02  0.48789891534E+02  0.00000000000E+00 0.  1.
         22    1    3    3    0    0 -0.10619205386E+03 -0.10320250606E+02  0.40472374084E+03  0.41855055402E+03  0.00000000000E+00 0.  1.
</event>
<event>
 7    1  0.6278987E-006  0.1547530E+03  0.7818608E-02  0.1273274E+00
          2   -1    0    0  502    0  0.00000000000E+00  0.00000000000E+00  0.22166636986E+04  0.22166636986E+04  0.00000000000E+00 0. -1.
          1   -1    0    0  501    0 -0.00000000000E+00 -0.00000000000E+00 -0.56842762171E+03  0.56842762171E+03  0.00000000000E+00 0. -1.
         25    2    1    2    0    0 -0.31672221490E+02 -0.21917715433E+03  0.69267646918E+03  0.73788066583E+03  0.12500172583E+03 0.  0.
          2    1    1    2  501    0  0.33354726105E+02  0.15008952083E+03 -0.53418120857E+03  0.55586775910E+03  0.00000000000E+00 0. -1.
          1    1    1    2  502    0 -0.16825046155E+01  0.69087633492E+02  0.14897408163E+04  0.14913428954E+04  0.00000000000E+00 0. -1.
         22    1    3    3    0    0 -0.11969917667E+02 -0.12083246905E+03  0.19138623252E+03  0.22665492385E+03  0.00000000000E+00 0.  1.
         22    1    3    3    0    0 -0.19702303823E+02 -0.98344685272E+02  0.50129023665E+03  0.51122574198E+03  0.00000000000E+00 0.  1.
</event>
<event>
 7    1  0.6278987E-006  0.5108558E+02  0.7818608E-02  0.1469422E+00
          2   -1    0    0  502    0  0.00000000000E+00  0.00000000000E+00  0.12310405918E+04  0.12310405918E+04  0.00000000000E+00 0. -1.
          1   -1    0    0  501    0 -0.00000000000E+00 -0.00000000000E+00 -0.30814908384E+04  0.30814908384E+04  0.00000000000E+00 0. -1.
         25    2    1    2    0    0 -0.94274398497E+01  0.98143062277E+01 -0.31708349990E+02  0.12967849822E+03  0.12500358480E+03 0.  0.
          2    1    1    2  501    0 -0.41055726177E+02 -0.35232357185E+00 -0.30000989413E+04  0.30003798683E+04  0.00000000000E+00 0. -1.
          1    1    1    2  502    0  0.50483166026E+02 -0.94619826558E+01  0.11813570447E+04  0.11824730636E+04  0.00000000000E+00 0. -1.
         22    1    3    3    0    0 -0.51884700674E+02  0.45635862529E+02 -0.90656098347E+01  0.69691028077E+02  0.00000000000E+00 0. -1.
         22    1    3    3    0    0  0.42457260824E+02 -0.35821556302E+02 -0.22642740155E+02  0.59987470144E+02  0.00000000000E+00 0. -1.
</event>
<event>
 7    1  0.6278987E-006  0.1913819E+03  0.7818608E-02  0.1214625E+00
          2   -1    0    0  502    0  0.00000000000E+00  0.00000000000E+00  0.82641130449E+03  0.82641130449E+03  0.00000000000E+00 0. -1.
          1   -1    0    0  501    0 -0.00000000000E+00 -0.00000000000E+00 -0.22173976003E+04  0.22173976003E+04  0.00000000000E+00 0. -1.
         25    2    1    2    0    0  0.82186458650E+02 -0.11632278120E+03  0.13207681041E+03  0.23099025069E+03  0.12500643446E+03 0.  0.
          2    1    1    2  501    0 -0.17607350605E+03  0.79049719442E+02 -0.21596549517E+04  0.21682620340E+04  0.00000000000E+00 0. -1.
          1    1    1    2  502    0  0.93887047402E+02  0.37273061757E+02  0.63659184548E+03  0.64455662011E+03  0.00000000000E+00 0. -1.
         22    1    3    3    0    0 -0.18077280138E+02  0.14533358371E+02  0.26553189487E+02  0.35257317463E+02  0.00000000000E+00 0. -1.
         22    1    3    3    0    0  0.10026373879E+03 -0.13085613957E+03  0.10552362092E+03  0.19573293323E+03  0.00000000000E+00 0. -1.
</event>
<event>
 7    1  0.6278987E-006  0.1034993E+03  0.7818608E-02  0.1374136E+00
          2   -1    0    0  502    0  0.00000000000E+00  0.00000000000E+00  0.17710546124E+03  0.17710546124E+03  0.00000000000E+00 0. -1.
          1   -1    0    0  501    0 -0.00000000000E+00 -0.00000000000E+00 -0.15623593528E+04  0.15623593528E+04  0.00000000000E+00 0. -1.
         25    2    1    2    0    0  0.75000806296E+02 -0.48455249511E+02 -0.49864583664E+03  0.52177096441E+03  0.12499694698E+03 0.  0.
          2    1    1    2  501    0 -0.62208964741E+02  0.88592329833E+02 -0.10466333265E+04  0.10522166489E+04  0.00000000000E+00 0. -1.
          1    1    1    2  502    0 -0.12791841555E+02 -0.40137080322E+02  0.16002527154E+03  0.16547720072E+03  0.00000000000E+00 0. -1.
         22    1    3    3    0    0 -0.23861100013E+02 -0.48921050557E+02 -0.16121908716E+03  0.17015938219E+03  0.00000000000E+00 0.  1.
         22    1    3    3    0    0  0.98861906309E+02  0.46580104612E+00 -0.33742674947E+03  0.35161158222E+03  0.00000000000E+00 0.  1.
</event>
<event>
 7    1  0.6278987E-006  0.7559004E+02  0.7818608E-02  0.1500681E+00
          2   -1    0    0  502    0  0.00000000000E+00  0.00000000000E+00  0.24441520390E+04  0.24441520390E+04  0.00000000000E+00 0. -1.
          1   -1    0    0  501    0 -0.00000000000E+00 -0.00000000000E+00 -0.23066183986E+02  0.23066183986E+02  0.00000000000E+00 0. -1.
         25    2    1    2    0    0 -0.34158515099E+02 -0.50358241897E+02  0.12280244649E+04  0.12358687070E+04  0.12499847194E+03 0.  0.
          2    1    1    2  501    0 -0.14286012974E+01 -0.22238097883E+02 -0.10809167834E+02  0.24767155840E+02  0.00000000000E+00 0. -1.
          1    1    1    2  502    0  0.35587116396E+02  0.72596339781E+02  0.12038705580E+04  0.12065823602E+04  0.00000000000E+00 0. -1.
         22    1    3    3    0    0 -0.40758080452E+02  0.32470634156E+02  0.34069208966E+03  0.34465441121E+03  0.00000000000E+00 0.  1.
         22    1    3    3    0    0  0.65995653533E+01 -0.82828876053E+02  0.88733237521E+03  0.89121429581E+03  0.00000000000E+00 0.  1.
</event>
<event>
 7    1  0.6278987E-006  0.7317554E+02  0.7818608E-02  0.1447691E+00
          2   -1    0    0  502    0  0.00000000000E+00  0.00000000000E+00  0.51354443365E+03  0.51354443365E+03  0.00000000000E+00 0. -1.
          1   -1    0    0  501    0 -0.00000000000E+00 -0.00000000000E+00 -0.14911162936E+04  0.14911162936E+04  0.00000000000E+00 0. -1.
         25    2    1    2    0    0  0.48545987078E+02 -0.96503598794E+00  0.23401413379E+03  0.26971165606E+03  0.12499647374E+03 0.  0.
          2    1    1    2  501    0  0.33402893312E+02 -0.33977907990E+01 -0.14666366567E+04  0.14670209205E+04  0.00000000000E+00 0. -1.
          1    1    1    2  502    0 -0.81948880390E+02  0.43628267870E+01  0.25505066298E+03  0.26792815071E+03  0.00000000000E+00 0. -1.
         22    1    3    3    0    0 -0.17845696714E+02  0.28083255412E+02  0.10728642777E+02  0.34960576390E+02  0.00000000000E+00 0.  1.
         22    1    3    3    0    0  0.66391683792E+02 -0.29048291400E+02  0.22328549102E+03  0.23475107967E+03  0.00000000000E+00 0.  1.
</event>
<event>
 7    1  0.6278987E-006  0.9836508E+02  0.7818608E-02  0.1394963E+00
          2   -1    0    0  502    0  0.00000000000E+00  0.00000000000E+00  0.38114674452E+03  0.38114674452E+03  0.00000000000E+00 0. -1.
          1   -1    0    0  501    0 -0.00000000000E+00 -0.00000000000E+00 -0.39353844509E+03  0.39353844509E+03  0.00000000000E+00 0. -1.
         25    2    1    2    0    0 -0.84824945149E+02 -0.68993884185E+02  0.13017446473E+03  0.21101096698E+03  0.12499923817E+03 0.  0.
          2    1    1    2  501    0  0.50581792792E+02  0.84141030272E+02 -0.34454243183E+03  0.35825649760E+03  0.00000000000E+00 0. -1.
          1    1    1    2  502    0  0.34243152357E+02 -0.15147146087E+02  0.20197626654E+03  0.20541772504E+03  0.00000000000E+00 0. -1.
         22    1    3    3    0    0 -0.61844405555E+02 -0.10445896684E+03  0.79872920966E+02  0.14531376313E+03  0.00000000000E+00 0. -1.
         22    1    3    3    0    0 -0.22980539595E+02  0.35465082659E+02  0.50301543763E+02  0.65697203845E+02  0.00000000000E+00 0. -1.
</event>
<event>
 7    1  0.6278987E-006  0.2674017E+03  0.7818608E-02  0.1220525E+00
          2   -1    0    0  502    0  0.00000000000E+00  0.00000000000E+00  0.47806384169E+03  0.47806384169E+03  0.00000000000E+00 0. -1.
          1   -1    0    0  501    0 -0.00000000000E+00 -0.00000000000E+00 -0.82979641103E+03  0.82979641103E+03  0.00000000000E+00 0. -1.
         25    2    1    2    0    0 -0.78201740385E+02 -0.31514343201E+03  0.61808791509E+02  0.35337910017E+03  0.12500226714E+03 0.  0.
          2    1    1    2  501    0  0.82143971623E+02  0.24732012406E+03 -0.65431660739E+03  0.70430469155E+03  0.00000000000E+00 0. -1.
          1    1    1    2  502    0 -0.39422312377E+01  0.67823307951E+02  0.24077524655E+03  0.25017646100E+03  0.00000000000E+00 0. -1.
         22    1    3    3    0    0  0.31004423500E+02 -0.34541262753E+02  0.24485459440E+01  0.46479764268E+02  0.00000000000E+00 0.  1.
         22    1    3    3    0    0 -0.10920616389E+03 -0.28060216926E+03  0.59360245565E+02  0.30689933590E+03  0.00000000000E+00 0.  1.
</event>
<event>
 7    1  0.6278987E-006  0.1238482E+03  0.7818608E-02  0.1366831E+00
          2   -1    0    0  502    0  0.00000000000E+00  0.00000000000E+00  0.20181382605E+04  0.20181382605E+04  0.00000000000E+00 0. -1.
          1   -1    0    0  501    0 -0.00000000000E+00 -0.00000000000E+00 -0.38818099822E+03  0.38818099822E+03  0.00000000000E+00 0. -1.
         25    2    1    2    0    0 -0.44977337569E+02  0.15001040854E+03 -0.14036330593E+03  0.24464390897E+03  0.12499080357E+03 0.  0.
          2    1    1    2  501    0 -0.50345325477E+01 -0.37057097144E+02 -0.19193041254E+03  0.19553991466E+03  0.00000000000E+00 0. -1.
          1    1    1    2  502    0  0.50011870117E+02 -0.11295331140E+03  0.19622509808E+04  0.19661354351E+04  0.00000000000E+00 0. -1.
         22    1    3    3    0    0 -0.34412136958E+02  0.16359765314E+03 -0.15026771730E+03  0.22478606306E+03  0.00000000000E+00 0.  1.
         22    1    3    3    0    0 -0.10565200612E+02 -0.13587244594E+02  0.99044113683E+01  0.19857845910E+02  0.00000000000E+00 0.  1.
</event>
<event>
 7    1  0.6278987E-006  0.1426852E+03  0.7818608E-02  0.1389991E+00
          2   -1    0    0  502    0  0.00000000000E+00  0.00000000000E+00  0.20591214912E+04  0.20591214912E+04  0.00000000000E+00 0. -1.
          1   -1    0    0  501    0 -0.00000000000E+00 -0.00000000000E+00 -0.11610912880E+04  0.11610912880E+04  0.00000000000E+00 0. -1.
         25    2    1    2    0    0 -0.16428853882E+03 -0.13951212392E+02  0.60937807453E+03  0.64354225244E+03  0.12497852873E+03 0.  0.
          2    1    1    2  501    0  0.14252211697E+03 -0.17891441341E+01 -0.11394428131E+04  0.11483229855E+04  0.00000000000E+00 0. -1.
          1    1    1    2  502    0  0.21766421857E+02  0.15740356526E+02  0.14280949417E+04  0.14283475412E+04  0.00000000000E+00 0. -1.
         22    1    3    3    0    0 -0.13305805051E+03  0.26306016397E+02  0.54400828542E+03  0.56066163227E+03  0.00000000000E+00 0. -1.
         22    1    3    3    0    0 -0.31230488317E+02 -0.40257228790E+02  0.65369789113E+02  0.82880620166E+02  0.00000000000E+00 0. -1.
</event>
<event>
 7    1  0.6278987E-006  0.5848521E+02  0.7818608E-02  0.1417482E+00
          2   -1    0    0  502    0  0.00000000000E+00  0.00000000000E+00  0.31651972781E+03  0.31651972781E+03  0.00000000000E+00 0. -1.
          1   -1    0    0  501    0 -0.00000000000E+00 -0.00000000000E+00 -0.37572770810E+03  0.37572770810E+03  0.00000000000E+00 0. -1.
         25    2    1    2    0    0 -0.17624206100E+02 -0.52458316484E+02 -0.42447967995E+02  0.14313947917E+03  0.12499837160E+03 0.  0.
          2    1    1    2  501    0 -0.39254311398E+02  0.35275754457E+02 -0.27709625079E+03  0.28207731568E+03  0.00000000000E+00 0. -1.
          1    1    1    2  502    0  0.56878517498E+02  0.17182562027E+02  0.26033623850E+03  0.26703064106E+03  0.00000000000E+00 0. -1.
         22    1    3    3    0    0 -0.53378781727E+02 -0.11611119539E+01  0.17827865823E+02  0.56289211395E+02  0.00000000000E+00 0. -1.
         22    1    3    3    0    0  0.35754575627E+02 -0.51297204530E+02 -0.60275833818E+02  0.86850267779E+02  0.00000000000E+00 0. -1.
</event>
<event>
 7    1  0.6278987E-006  0.1807510E+03  0.7818608E-02  0.1321968E+00
          2   -1    0    0  502    0  0.00000000000E+00  0.00000000000E+00  0.12141679657E+03  0.12141679657E+03  0.00000000000E+00 0. -1.
          1   -1    0    0  501    0 -0.00000000000E+00 -0.00000000000E+00 -0.23777947910E+04  0.23777947910E+04  0.00000000000E+00 0. -1.
         25    2    1    2    0    0  0.21031218155E+02  0.15287838140E+03 -0.22296347912E+03  0.29858318844E+03  0.12500038304E+03 0.  0.
          2    1    1    2  501    0  0.25399237676E+01  0.37615091347E+02 -0.20064421701E+04  0.20067963345E+04  0.00000000000E+00 0. -1.
          1    1    1    2  502    0 -0.23571141923E+02 -0.19049347275E+03 -0.26972345286E+02  0.19383206469E+03  0.00000000000E+00 0. -1.
         22    1    3    3    0    0 -0.12730337737E+02  0.11364862972E+03 -0.21852003863E+03  0.24663552019E+03  0.00000000000E+00 0.  1.
         22    1    3    3    0    0  0.33761555893E+02  0.39229751684E+02 -0.44434404948E+01  0.51947668253E+02  0.00000000000E+00 0.  1.
</event>
<event>
 7    1  0.6278987E-006  0.1337393E+03  0.7818608E-02  0.1382464E+00
          2   -1    0    0  502    0  0.00000000000E+00  0.00000000000E+00  0.50728931402E+03  0.50728931402E+03  0.00000000000E+00 0. -1.
          1   -1    0    0  501    0 -0.00000000000E+00 -0.00000000000E+00 -0.27663706755E+04  0.27663706755E+04  0.00000000000E+00 0. -1.
         25    2    1    2    0    0 -0.11575030640E+03  0.19336059589E+02  0.43553042523E+02  0.17690322034E+03  0.12500346083E+03 0.  0.
          2    1    1    2  501    0  0.13392563495E+03  0.51010148743E+01 -0.26974454371E+04  0.27007728490E+04  0.00000000000E+00 0. -1.
          1    1    1    2  502    0 -0.18175328543E+02 -0.24437074463E+02  0.39481103308E+03  0.39598392015E+03  0.00000000000E+00 0. -1.
         22    1    3    3    0    0 -0.55613372435E+02  0.70139507624E+02  0.60871420030E+01  0.89718732833E+02  0.00000000000E+00 0. -1.
         22    1    3    3    0    0 -0.60136933967E+02 -0.50803448036E+02  0.37465900520E+02  0.87184487502E+02  0.00000000000E+00 0. -1.
</event>
<event>
 7    1  0.6278987E-006  0.5208863E+02  0.7818608E-02  0.1553491E+00
          2   -1    0    0  502    0  0.00000000000E+00  0.00000000000E+00  0.88721988041E+03  0.88721988041E+03  0.00000000000E+00 0. -1.
          1   -1    0    0  501    0 -0.00000000000E+00 -0.00000000000E+00 -0.11593701678E+03  0.11593701678E+03  0.00000000000E+00 0. -1.
         25    2    1    2    0    0 -0.17130305780E+02 -0.25707171274E+02  0.89509825402E+02  0.15681420137E+03  0.12499751549E+03 0.  0.
          2    1    1    2  501    0  0.27506029063E+02  0.45999852653E+02 -0.73367108663E+02  0.90858685400E+02  0.00000000000E+00 0. -1.
          1    1    1    2  502    0 -0.10375723283E+02 -0.20292681379E+02  0.75514014689E+03  0.75548401041E+03  0.00000000000E+00 0. -1.
         22    1    3    3    0    0 -0.59886148965E+01 -0.10917075522E+02 -0.31773081151E+02  0.34125866028E+02  0.00000000000E+00 0. -1.
         22    1    3    3    0    0 -0.11141690884E+02 -0.14790095752E+02  0.12128290655E+03  0.12268833535E+03  0.00000000000E+00 0. -1.
</event>
<event>
 7    1  0.6278987E-006  0.4197636E+02  0.7818608E-02  0.1569223E+00
          2   -1    0    0  502    0  0.00000000000E+00  0.00000000000E+00  0.12350522610E+04  0.12350522610E+04  0.00000000000E+00 0. -1.
          1   -1    0    0  501    0 -0.00000000000E+00 -0.00000000000E+00 -0.33299676680E+02  0.33299676680E+02  0.00000000000E+00 0. -1.
         25    2    1    2    0    0 -0.47150465429E+02  0.36165201984E+02  0.41969859504E+03  0.44193073818E+03  0.12499911379E+03 0.  0.
          2    1    1    2  501    0  0.39674197849E+02 -0.11678791072E+02 -0.25157267450E+01  0.41433863166E+02  0.00000000000E+00 0. -1.
          1    1    1    2  502    0  0.74762675802E+01 -0.24486410911E+02  0.78456971601E+03  0.78498733632E+03  0.00000000000E+00 0. -1.
         22    1    3    3    0    0 -0.55097137900E+02  0.35287176375E+02  0.42646616098E+03  0.43145598371E+03  0.00000000000E+00 0. -1.
         22    1    3    3    0    0  0.79466724708E+01  0.87802560841E+00 -0.67675659429E+01  0.10474754466E+02  0.00000000000E+00 0. -1.
</event>
<event>
 7    1  0.6278987E-006  0.7534215E+02  0.7818608E-02  0.1365599E+00
          2   -1    0    0  502    0  0.00000000000E+00  0.00000000000E+00  0.19858250846E+03  0.19858250846E+03  0.00000000000E+00 0. -1.
          1   -1    0    0  501    0 -0.00000000000E+00 -0.00000000000E+00 -0.11756555501E+04  0.11756555501E+04  0.00000000000E+00 0. -1.
         25    2    1    2    0    0  0.12354331304E+03  0.42992040591E+02 -0.54163801096E+01  0.18100343158E+03  0.12498655655E+03 0.  0.
          2    1    1    2  501    0 -0.59811549512E+02 -0.16733710594E+02 -0.10707365840E+04  0.10725363727E+04  0.00000000000E+00 0. -1.
          1    1    1    2  502    0 -0.63731763523E+02 -0.26258329997E+02  0.99079922388E+02  0.12069825432E+03  0.00000000000E+00 0. -1.
         22    1    3    3    0    0  0.14510206813E+03  0.55663875544E+02 -0.93278023936E+01  0.15569227699E+03  0.00000000000E+00 0. -1.
         22    1    3    3    0    0 -0.21558755095E+02 -0.12671834952E+02  0.39114222840E+01  0.25311154588E+02  0.00000000000E+00 0. -1.
</event>
<event>
 7    1  0.6278987E-006  0.2727833E+03  0.7818608E-02  0.1230346E+00
          2   -1    0    0  502    0  0.00000000000E+00  0.00000000000E+00  0.15592405631E+04  0.15592405631E+04  0.00000000000E+00 0. -1.
          1   -1    0    0  501    0 -0.00000000000E+00 -0.00000000000E+00 -0.51217339418E+03  0.51217339418E+03  0.00000000000E+00 0. -1.
         25    2    1    2    0    0 -0.21823903114E+03 -0.52784369895E+01 -0.19350113240E+03  0.31736865672E+03  0.12499615761E+03 0.  0.
          2    1    1    2  501    0 -0.56923271773E+02  0.19371839837E+02 -0.24032821196E+03  0.24773610256E+03  0.00000000000E+00 0. -1.
          1    1    1    2  502    0  0.27516230291E+03 -0.14093402847E+02  0.14808965133E+04  0.15063091980E+04  0.00000000000E+00 0. -1.
         22    1    3    3    0    0 -0.13622335678E+03 -0.52125286169E+02 -0.16156668476E+03  0.21766405770E+03  0.00000000000E+00 0.  1.
         22    1    3    3    0    0 -0.82015674361E+02  0.46846849180E+02 -0.31934447636E+02  0.99704599015E+02  0.00000000000E+00 0.  1.
</event>
<event>
 7    1  0.6278987E-006  0.1028835E+03  0.7818608E-02  0.1433562E+00
          2   -1    0    0  502    0  0.00000000000E+00  0.00000000000E+00  0.22260100953E+04  0.22260100953E+04  0.00000000000E+00 0. -1.
          1   -1    0    0  501    0 -0.00000000000E+00 -0.00000000000E+00 -0.10938280921E+04  0.10938280921E+04  0.00000000000E+00 0. -1.
         25    2    1    2    0    0 -0.59740676088E+02  0.11401178754E+03  0.41260543507E+02  0.18410707292E+03  0.12500138308E+03 0.  0.
          2    1    1    2  501    0  0.15135232610E+02 -0.21797778832E+02 -0.10209910224E+04  0.10213358342E+04  0.00000000000E+00 0. -1.
          1    1    1    2  502    0  0.44605443477E+02 -0.92214008704E+02  0.21119124821E+04  0.21143952803E+04  0.00000000000E+00 0. -1.
         22    1    3    3    0    0 -0.44671140899E+02  0.12391614586E+03 -0.76841393184E+01  0.13194608001E+03  0.00000000000E+00 0. -1.
         22    1    3    3    0    0 -0.15069535188E+02 -0.99043583205E+01  0.48944682825E+02  0.52160992910E+02  0.00000000000E+00 0. -1.
</event>
<event>
 7    1  0.6278987E-006  0.5061012E+02  0.7818608E-02  0.1490846E+00
          2   -1    0    0  502    0  0.00000000000E+00  0.00000000000E+00  0.67131341350E+03  0.67131341350E+03  0.00000000000E+00 0. -1.
          1   -1    0    0  501    0 -0.00000000000E+00 -0.00000000000E+00 -0.53175680072E+03  0.53175680072E+03  0.00000000000E+00 0. -1.
         25    2    1    2    0    0 -0.22834457541E+01 -0.17430514927E+02  0.24206174743E+03  0.27299533590E+03  0.12499410736E+03 0.  0.
          2    1    1    2  501    0 -0.15274546569E+02  0.48426646639E+02 -0.51427054279E+03  0.51677136440E+03  0.00000000000E+00 0. -1.
          1    1    1    2  502    0  0.17557992323E+02 -0.30996131711E+02  0.41176540815E+03  0.41330351392E+03  0.00000000000E+00 0. -1.
         22    1    3    3    0    0 -0.40411157324E+02  0.36452408813E+02  0.15113711363E+03  0.16063706565E+03  0.00000000000E+00 0. -1.
         22    1    3    3    0    0  0.38127711570E+02 -0.53882923740E+02  0.90924633807E+02  0.11235827025E+03  0.00000000000E+00 0. -1.
</event>
<event>
 7    1  0.6278987E-006  0.8017628E+02  0.7818608E-02  0.1438605E+00
          2   -1    0    0  502    0  0.00000000000E+00  0.00000000000E+00  0.19500288000E+03  0.19500288000E+03  0.00000000000E+00 0. -1.
          1   -1    0    0  501    0 -0.00000000000E+00 -0.00000000000E+00 -0.60625847514E+03  0.60625847514E+03  0.00000000000E+00 0. -1.
         25    2    1    2    0    0 -0.73773128842E+02  0.19112805312E+02 -0.24763495855E+03  0.28767219824E+03  0.12499778829E+03 0.  0.
          2    1    1    2  501    0 -0.56766995864E+01 -0.32291439134E+02 -0.32847888907E+03  0.33011110634E+03  0.00000000000E+00 0. -1.
          1    1    1    2  502    0  0.79449828428E+02  0.13178633822E+02  0.16485825248E+03  0.18347805056E+03  0.00000000000E+00 0. -1.
         22    1    3    3    0    0 -0.43192970442E+02 -0.48274081471E+02 -0.16213078610E+03  0.17459212880E+03  0.00000000000E+00 0. -1.
         22    1    3    3    0    0 -0.30580158400E+02  0.67386886783E+02 -0.85504172446E+02  0.11308006944E+03  0.00000000000E+00 0. -1.
</event>
<event>
 7    1  0.6278987E-006  0.6566817E+02  0.7818608E-02  0.1441104E+00
          2   -1    0    0  502    0  0.00000000000E+00  0.00000000000E+00  0.41330738136E+03  0.41330738136E+03  0.00000000000E+00 0. -1.
          1   -1    0    0  501    0 -0.00000000000E+00 -0.00000000000E+00 -0.67824815126E+03  0.67824815126E+03  0.00000000000E+00 0. -1.
         25    2    1    2    0    0  0.20199178432E+02  0.21818243363E+02  0.19992044126E+02  0.13003079943E+03  0.12499713765E+03 0.  0.
          2    1    1    2  501    0 -0.28199838608E+02 -0.60284464568E+02 -0.62030188724E+03  0.62386206719E+03  0.00000000000E+00 0. -1.
          1    1    1    2  502    0  0.80006601755E+01  0.38466221205E+02  0.33536907321E+03  0.33766266599E+03  0.00000000000E+00 0. -1.
         22    1    3    3    0    0  0.42927438670E+01  0.41900558526E+02 -0.44115480197E+02  0.60993934516E+02  0.00000000000E+00 0. -1.
         22    1    3    3    0    0  0.15906434565E+02 -0.20082315163E+02  0.64107524323E+02  0.69036864918E+02  0.00000000000E+00 0. -1.
</event>
<event>
 7    1  0.6278987E-006  0.6132896E+02  0.7818608E-02  0.1411310E+00
          2   -1    0    0  502    0  0.00000000000E+00  0.00000000000E+00  0.12517133552E+03  0.12517133552E+03  0.00000000000E+00 0. -1.
          1   -1    0    0  501    0 -0.00000000000E+00 -0.00000000000E+00 -0.40853111278E+04  0.40853111278E+04  0.00000000000E+00 0. -1.
         25    2    1    2    0    0  0.10326693482E+03 -0.25457456817E+02 -0.24666762616E+04  0.24721304306E+04  0.12499977730E+03 0.  0.
          2    1    1    2  501    0 -0.51137977225E+02  0.17093186190E+02 -0.16097441999E+04  0.16106469690E+04  0.00000000000E+00 0. -1.
          1    1    1    2  502    0 -0.52128957595E+02  0.83642706271E+01  0.11628066926E+03  0.12770506367E+03  0.00000000000E+00 0. -1.
         22    1    3    3    0    0  0.28353347572E+02 -0.12002819514E+02 -0.19129383772E+04  0.19131861422E+04  0.00000000000E+00 0.  1.
         22    1    3    3    0    0  0.74913587249E+02 -0.13454637303E+02 -0.55373788444E+03  0.55894428835E+03  0.00000000000E+00 0.  1.
</event>
<event>
 7    1  0.6278987E-006  0.1499659E+03  0.7818608E-02  0.1345478E+00
          2   -1    0    0  502    0  0.00000000000E+00  0.00000000000E+00  0.20875252615E+04  0.20875252615E+04  0.00000000000E+00 0. -1.
          1   -1    0    0  501    0 -0.00000000000E+00 -0.00000000000E+00 -0.90409255996E+02  0.90409255996E+02  0.00000000000E+00 0. -1.
         25    2    1    2    0    0  0.39079412496E+02 -0.17627210577E+03  0.44953487496E+03  0.50030526945E+03  0.12499881234E+03 0.  0.
          2    1    1    2  501    0 -0.22980989905E+02  0.14296488351E+03  0.16089968985E+02  0.14569135498E+03  0.00000000000E+00 0. -1.
          1    1    1    2  502    0 -0.16098422591E+02  0.33307222256E+02  0.15314911616E+04  0.15319378931E+04  0.00000000000E+00 0. -1.
         22    1    3    3    0    0  0.16159434114E+02 -0.43390236736E+01 -0.17606158545E+01  0.16824214856E+02  0.00000000000E+00 0. -1.
         22    1    3    3    0    0  0.22919978382E+02 -0.17193308209E+03  0.45129549081E+03  0.48348105460E+03  0.00000000000E+00 0. -1.
</event>
<event>
 7    1  0.6278987E-006  0.1239443E+03  0.7818608E-02  0.1392427E+00
          2   -1    0    0  502    0  0.00000000000E+00  0.00000000000E+00  0.39185251189E+04  0.39185251189E+04  0.00000000000E+00 0. -1.
          1   -1    0    0  501    0 -0.00000000000E+00 -0.00000000000E+00 -0.14746211018E+02  0.14746211018E+02  0.00000000000E+00 0. -1.
         25    2    1    2    0    0  0.55685529152E+02 -0.10633340758E+03  0.12217052105E+04  0.12339349805E+04  0.12499697210E+03 0.  0.
          2    1    1    2  501    0 -0.30192083203E+02  0.12275499543E+03  0.45994622496E+03  0.47700197132E+03  0.00000000000E+00 0. -1.
          1    1    1    2  502    0 -0.25493445949E+02 -0.16421587843E+02  0.22221274724E+04  0.22223343780E+04  0.00000000000E+00 0. -1.
         22    1    3    3    0    0 -0.25841451281E+02 -0.83870646190E+02  0.55685238354E+03  0.56372568058E+03  0.00000000000E+00 0. -1.
         22    1    3    3    0    0  0.81526980433E+02 -0.22462761395E+02  0.66485282699E+03  0.67020929995E+03  0.00000000000E+00 0. -1.
</event>
<event>
 7    1  0.6278987E-006  0.2488573E+03  0.7818608E-02  0.1224052E+00
          2   -1    0    0  502    0  0.00000000000E+00  0.00000000000E+00  0.19152638711E+04  0.19152638711E+04  0.00000000000E+00 0. -1.
          1   -1    0    0  501    0 -0.00000000000E+00 -0.00000000000E+00 -0.17487024778E+04  0.17487024778E+04  0.00000000000E+00 0. -1.
         25    2    1    2    0    0 -0.24550883645E+03 -0.22388041883E+02  0.18684967446E+03  0.33363769789E+03  0.12500199765E+03 0.  0.
          2    1    1    2  501    0  0.23191383943E+03  0.91419010578E+02 -0.16652792093E+04  0.16838338129E+04  0.00000000000E+00 0. -1.
          1    1    1    2  502    0  0.13594997012E+02 -0.69030968696E+02  0.16449909281E+04  0.16464948382E+04  0.00000000000E+00 0. -1.
         22    1    3    3    0    0 -0.21765267871E+03 -0.28986707795E+02  0.20445974513E+03  0.30002784064E+03  0.00000000000E+00 0.  1.
         22    1    3    3    0    0 -0.27856157732E+02  0.65986659129E+01 -0.17610070671E+02  0.33609857251E+02  0.00000000000E+00 0.  1.
</event>
<event>
 7    1  0.6278987E-006  0.1900139E+03  0.7818608E-02  0.1200178E+00
          2   -1    0    0  502    0  0.00000000000E+00  0.00000000000E+00  0.16533824004E+03  0.16533824004E+03  0.00000000000E+00 0. -1.
          1   -1    0    0  501    0 -0.00000000000E+00 -0.00000000000E+00 -0.33290500209E+04  0.33290500209E+04  0.00000000000E+00 0. -1.
         25    2    1    2    0    0  0.10419462216E+03 -0.82142697991E+02 -0.26412896744E+02  0.18418749314E+03  0.12499379742E+03 0.  0.
          2    1    1    2  501    0 -0.48334417075E+02  0.18698113504E+03 -0.31785792530E+04  0.31844409601E+04  0.00000000000E+00 0. -1.
          1    1    1    2  502    0 -0.55860205089E+02 -0.10483843705E+03  0.41280368831E+02  0.12575980776E+03  0.00000000000E+00 0. -1.
         22    1    3    3    0    0  0.10585024845E+02 -0.33831605450E+02 -0.63320630170E+02  0.72568054152E+02  0.00000000000E+00 0. -1.
         22    1    3    3    0    0  0.93609597319E+02 -0.48311092541E+02  0.36907733426E+02  0.11161943899E+03  0.00000000000E+00 0. -1.
</event>
<event>
 7    1  0.6278987E-006  0.8365556E+02  0.7818608E-02  0.1320276E+00
          2   -1    0    0  502    0  0.00000000000E+00  0.00000000000E+00  0.61202948997E+03  0.61202948997E+03  0.00000000000E+00 0. -1.
          1   -1    0    0  501    0 -0.00000000000E+00 -0.00000000000E+00 -0.43037805476E+03  0.43037805476E+03  0.00000000000E+00 0. -1.
         25    2    1    2    0    0  0.98606713387E+01  0.17086086215E+02 -0.46958335712E+02  0.13497955789E+03  0.12500091430E+03 0.  0.
          2    1    1    2  501    0  0.74610205033E+02 -0.35666563510E+02 -0.33099989741E+03  0.34117402969E+03  0.00000000000E+00 0. -1.
          1    1    1    2  502    0 -0.84470876372E+02  0.18580477295E+02  0.55960966834E+03  0.56625395715E+03  0.00000000000E+00 0. -1.
         22    1    3    3    0    0  0.61412630734E+02  0.84649390337E+01 -0.54032058403E+02  0.82235209866E+02  0.00000000000E+00 0. -1.
         22    1    3    3    0    0 -0.51551959395E+02  0.86211471810E+01  0.70737226911E+01  0.52744348028E+02  0.00000000000E+00 0. -1.
</event>
<event>
 7    1  0.6278987E-006  0.4907304E+02  0.7818608E-02  0.1459774E+00
          2   -1    0    0  502    0  0.00000000000E+00  0.00000000000E+00  0.12548003046E+04  0.12548003046E+04  0.00000000000E+00 0. -1.
          1   -1    0    0  501    0 -0.00000000000E+00 -0.00000000000E+00 -0.20956431677E+02  0.20956431677E+02  0.00000000000E+00 0. -1.
         25    2    1    2    0    0 -0.66406240594E+02  0.21733965029E+02  0.55293782510E+03  0.57118510232E+03  0.12502011302E+03 0.  0.
          2    1    1    2  501    0  0.25086171480E+02 -0.41543883204E+02  0.42459361011E+02  0.64482614468E+02  0.00000000000E+00 0. -1.
          1    1    1    2  502    0  0.41320069114E+02  0.19809918175E+02  0.63844668682E+03  0.64008901949E+03  0.00000000000E+00 0. -1.
         22    1    3    3    0    0 -0.87756329118E+02 -0.17056025162E+02  0.45505848548E+03  0.46375673203E+03  0.00000000000E+00 0. -1.
         22    1    3    3    0    0  0.21350088524E+02  0.38789990190E+02  0.97879339619E+02  0.10742837029E+03  0.00000000000E+00 0. -1.
</event>
<event>
 7    1  0.6278987E-006  0.2117277E+03  0.7818608E-02  0.1347963E+00
          2   -1    0    0  502    0  0.00000000000E+00  0.00000000000E+00  0.61469948277E+03  0.61469948277E+03  0.00000000000E+00 0. -1.
          1   -1    0    0  501    0 -0.00000000000E+00 -0.00000000000E+00 -0.58441696625E+03  0.58441696625E+03  0.00000000000E+00 0. -1.
         25    2    1    2    0    0 -0.21614672350E+02  0.21860049072E+03 -0.31501361901E+03  0.40387184857E+03  0.12500208521E+03 0.  0.
          2    1    1    2  501    0  0.24602602940E+02 -0.72551174352E+01 -0.20456039404E+03  0.20616226525E+03  0.00000000000E+00 0. -1.
          1    1    1    2  502    0 -0.29879305904E+01 -0.21134537328E+03  0.54985652957E+03  0.58908233520E+03  0.00000000000E+00 0. -1.
         22    1    3    3    0    0 -0.43799981263E+02  0.15239184635E+03 -0.28845940637E+03  0.32916643559E+03  0.00000000000E+00 0. -1.
         22    1    3    3    0    0  0.22185308913E+02  0.66208644368E+02 -0.26554212635E+02  0.74705412985E+02  0.00000000000E+00 0. -1.
</event>
<event>
 7    1  0.6278987E-006  0.9004867E+02  0.7818608E-02  0.1304609E+00
          2   -1    0    0  502    0  0.00000000000E+00  0.00000000000E+00  0.30061693863E+04  0.30061693863E+04  0.00000000000E+00 0. -1.
          1   -1    0    0  501    0 -0.00000000000E+00 -0.00000000000E+00 -0.16772664234E+02  0.16772664234E+02  0.00000000000E+00 0. -1.
         25    2    1    2    0    0 -0.51074643038E+02  0.16081344595E+01  0.10774794162E+04  0.10859086905E+04  0.12499834625E+03 0.  0.
          2    1    1    2  501    0  0.56319823014E+02  0.86751114491E+02  0.22322144410E+03  0.24601929078E+03  0.00000000000E+00 0. -1.
          1    1    1    2  502    0 -0.52451799759E+01 -0.88359248950E+02  0.16886958618E+04  0.16910140693E+04  0.00000000000E+00 0. -1.
         22    1    3    3    0    0 -0.15514462057E+01  0.15738480433E+02  0.13817349491E+02  0.21000616625E+02  0.00000000000E+00 0.  1.
         22    1    3    3    0    0 -0.49523196832E+02 -0.14130345974E+02  0.10636620667E+04  0.10649080739E+04  0.00000000000E+00 0.  1.
</event>
<event>
 7    1  0.6278987E-006  0.1131856E+03  0.7818608E-02  0.1287982E+00
          2   -1    0    0  502    0  0.00000000000E+00  0.00000000000E+00  0.59049502677E+03  0.59049502677E+03  0.00000000000E+00 0. -1.
          1   -1    0    0  501    0 -0.00000000000E+00 -0.00000000000E+00 -0.51741394047E+03  0.51741394047E+03  0.00000000000E+00 0. -1.
         25    2    1    2    0    0  0.94038353819E+02  0.93159257239E+02 -0.15016604972E+03  0.23599930397E+03  0.12499587909E+03 0.  0.
          2    1    1    2  501    0 -0.79839930754E+02  0.19383442271E+02 -0.31309908187E+03  0.32369919284E+03  0.00000000000E+00 0. -1.
          1    1    1    2  502    0 -0.14198423065E+02 -0.11254269951E+03  0.53634621789E+03  0.54821047042E+03  0.00000000000E+00 0. -1.
         22    1    3    3    0    0  0.51778265802E+02  0.15600249260E+02  0.81729167107E+01  0.54691435838E+02  0.00000000000E+00 0. -1.
         22    1    3    3    0    0  0.42260088017E+02  0.77559007979E+02 -0.15833896643E+03  0.18130786813E+03  0.00000000000E+00 0. -1.
</event>
<event>
 7    1  0.6278987E-006  0.6415236E+02  0.7818608E-02  0.1500288E+00
          2   -1    0    0  502    0  0.00000000000E+00  0.00000000000E+00  0.16122162504E+03  0.16122162504E+03  0.00000000000E+00 0. -1.
          1   -1    0    0  501    0 -0.00000000000E+00 -0.00000000000E+00 -0.16664737464E+04  0.16664737464E+04  0.00000000000E+00 0. -1.
         25    2    1    2    0    0 -0.21512179411E+02  0.48478417600E+02 -0.14001897151E+04  0.14067584195E+04  0.12500032676E+03 0.  0.
          2    1    1    2  501    0  0.21100924809E+02  0.15745137164E+02 -0.25576665017E+03  0.25711813960E+03  0.00000000000E+00 0. -1.
          1    1    1    2  502    0  0.41125460163E+00 -0.64223554765E+02  0.15070424396E+03  0.16381881231E+03  0.00000000000E+00 0. -1.
         22    1    3    3    0    0  0.24922238817E+02 -0.76270042441E-02 -0.10439842347E+04  0.10442816671E+04  0.00000000000E+00 0.  1.
         22    1    3    3    0    0 -0.46434418228E+02  0.48486044605E+02 -0.35620548043E+03  0.36247675237E+03  0.00000000000E+00 0.  1.
</event>
<event>
 7    1  0.6278987E-006  0.3197732E+02  0.7818608E-02  0.1609188E+00
          2   -1    0    0  502    0  0.00000000000E+00  0.00000000000E+00  0.94408228334E+01  0.94408228334E+01  0.00000000000E+00 0. -1.
          1   -1    0    0  501    0 -0.00000000000E+00 -0.00000000000E+00 -0.30672875371E+04  0.30672875371E+04  0.00000000000E+00 0. -1.
         25    2    1    2    0    0 -0.52174844289E+02 -0.22098863509E+02 -0.10901127827E+04  0.10987174418E+04  0.12499425502E+03 0.  0.
          2    1    1    2  501    0  0.22339796799E+02  0.13945066552E+02 -0.19254106660E+04  0.19255907572E+04  0.00000000000E+00 0. -1.
          1    1    1    2  502    0  0.29835047489E+02  0.81537969574E+01 -0.42323265503E+02  0.52420160877E+02  0.00000000000E+00 0. -1.
         22    1    3    3    0    0 -0.25624005774E+02 -0.60559828597E+02 -0.91861860448E+03  0.92096917592E+03  0.00000000000E+00 0.  1.
         22    1    3    3    0    0 -0.26550838514E+02  0.38460965088E+02 -0.17149417825E+03  0.17774826591E+03  0.00000000000E+00 0.  1.
</event>
<event>
 7    1  0.7212234E-006  0.1038486E+03  0.7818608E-02  0.1399097E+00
          2   -1    0    0  502    0  0.00000000000E+00  0.00000000000E+00  0.20106491330E+04  0.20106491330E+04  0.00000000000E+00 0. -1.
          1   -1    0    0  501    0 -0.00000000000E+00 -0.00000000000E+00 -0.98818809119E+03  0.98818809119E+03  0.00000000000E+00 0. -1.
         25    2    1    2    0    0 -0.54603554152E+02 -0.10970635217E+03 -0.28605540199E+03  0.33536554808E+03  0.12500130398E+03 0.  0.
          2    1    1    2  501    0  0.33344494095E+02  0.81227002567E+01 -0.67568591413E+03  0.67655693633E+03  0.00000000000E+00 0. -1.
          1    1    1    2  502    0  0.21259060057E+02  0.10158365192E+03  0.19842023580E+04  0.19869147398E+04  0.00000000000E+00 0. -1.
         22    1    3    3    0    0 -0.78147285496E+02 -0.12445048666E+03 -0.23282259177E+03  0.27532032453E+03  0.00000000000E+00 0.  1.
         22    1    3    3    0    0  0.23543731344E+02  0.14744134485E+02 -0.53232810213E+02  0.60045223544E+02  0.00000000000E+00 0.  1.
</event>
<event>
 7    1  0.6278987E-006  0.1369441E+03  0.7818608E-02  0.1352613E+00
          2   -1    0    0  502    0  0.00000000000E+00  0.00000000000E+00  0.19175922351E+03  0.19175922351E+03  0.00000000000E+00 0. -1.
          1   -1    0    0  501    0 -0.00000000000E+00 -0.00000000000E+00 -0.52678244586E+03  0.52678244586E+03  0.00000000000E+00 0. -1.
         25    2    1    2    0    0  0.82677091813E+02  0.68108100213E+02  0.46991726200E+02  0.17119383802E+03  0.12499957208E+03 0.  0.
          2    1    1    2  501    0 -0.12068947816E+03 -0.70909570192E+02 -0.44898024383E+03  0.47029498895E+03  0.00000000000E+00 0. -1.
          1    1    1    2  502    0  0.38012386348E+02  0.28014699792E+01  0.66965295282E+02  0.77052842401E+02  0.00000000000E+00 0. -1.
         22    1    3    3    0    0  0.39035550115E+02  0.98869202633E+02  0.11134865866E+02  0.10687786787E+03  0.00000000000E+00 0. -1.
         22    1    3    3    0    0  0.43641541697E+02 -0.30761102421E+02  0.35856860334E+02  0.64315970154E+02  0.00000000000E+00 0. -1.
</event>
<event>
 7    1  0.6278987E-006  0.1768140E+03  0.7818608E-02  0.1217475E+00
          2   -1    0    0  502    0  0.00000000000E+00  0.00000000000E+00  0.20093989310E+04  0.20093989310E+04  0.00000000000E+00 0. -1.
          1   -1    0    0  501    0 -0.00000000000E+00 -0.00000000000E+00 -0.91156727447E+03  0.91156727447E+03  0.00000000000E+00 0. -1.
         25    2    1    2    0    0  0.97976390636E+02  0.18670983099E+03 -0.43299912437E+03  0.49756991477E+03  0.12501057665E+03 0.  0.
          2    1    1    2  501    0  0.65525342612E+01 -0.16855897121E+03 -0.42885643775E+03  0.46083935019E+03  0.00000000000E+00 0. -1.
          1    1    1    2  502    0 -0.10452892490E+03 -0.18150859781E+02  0.19596872187E+04  0.19625569406E+04  0.00000000000E+00 0. -1.
         22    1    3    3    0    0  0.24141219233E+02  0.14458454686E+03 -0.34679409573E+03  0.37650183863E+03  0.00000000000E+00 0.  1.
         22    1    3    3    0    0  0.73835171403E+02  0.42125284126E+02 -0.86205028639E+02  0.12106807614E+03  0.00000000000E+00 0.  1.
</event>
<event>
 7    1  0.6278987E-006  0.1475766E+03  0.7818608E-02  0.1360765E+00
          2   -1    0    0  502    0  0.00000000000E+00  0.00000000000E+00  0.62963601777E+03  0.62963601777E+03  0.00000000000E+00 0. -1.
          1   -1    0    0  501    0 -0.00000000000E+00 -0.00000000000E+00 -0.95672901576E+02  0.95672901576E+02  0.00000000000E+00 0. -1.
         25    2    1    2    0    0 -0.81142824863E+02 -0.12397482208E+03  0.35876746309E+03  0.40778839993E+03  0.12499348784E+03 0.  0.
          2    1    1    2  501    0 -0.25841173795E+02  0.20550022932E+02 -0.42506617742E+02  0.53822692775E+02  0.00000000000E+00 0. -1.
          1    1    1    2  502    0  0.10698399866E+03  0.10342479915E+03  0.21770227085E+03  0.26369782665E+03  0.00000000000E+00 0. -1.
         22    1    3    3    0    0 -0.32906475433E+02 -0.21688767948E+02  0.24217167504E+03  0.24535761446E+03  0.00000000000E+00 0.  1.
         22    1    3    3    0    0 -0.48236349430E+02 -0.10228605413E+03  0.11659578806E+03  0.16243078547E+03  0.00000000000E+00 0.  1.
</event>
<event>
 7    1  0.6278987E-006  0.6717833E+02  0.7818608E-02  0.1528388E+00
          2   -1    0    0  502    0  0.00000000000E+00  0.00000000000E+00  0.20446829938E+03  0.20446829938E+03  0.00000000000E+00 0. -1.
          1   -1    0    0  501    0 -0.00000000000E+00 -0.00000000000E+00 -0.52486281232E+03  0.52486281232E+03  0.00000000000E+00 0. -1.
         25    2    1    2    0    0 -0.57155969839E+02 -0.67822985515E+01 -0.15914917819E+03  0.21039856682E+03  0.12500516604E+03 0.  0.
          2    1    1    2  501    0 -0.48003675994E+01 -0.20243345624E+02 -0.33336623046E+03  0.33401479037E+03  0.00000000000E+00 0. -1.
          1    1    1    2  502    0  0.61956337438E+02  0.27025644175E+02  0.17212089572E+03  0.18491775452E+03  0.00000000000E+00 0. -1.
         22    1    3    3    0    0 -0.49920673421E+01 -0.55824314659E+02 -0.11030405885E+03  0.12372655432E+03  0.00000000000E+00 0. -1.
         22    1    3    3    0    0 -0.52163902497E+02  0.49042016108E+02 -0.48845119337E+02  0.86672012499E+02  0.00000000000E+00 0. -1.
</event>
<event>
 7    1  0.6278987E-006  0.1494918E+03  0.7818608E-02  0.1226234E+00
          2   -1    0    0  502    0  0.00000000000E+00  0.00000000000E+00  0.10040953627E+04  0.10040953627E+04  0.00000000000E+00 0. -1.
          1   -1    0    0  501    0 -0.00000000000E+00 -0.00000000000E+00 -0.14536193268E+04  0.14536193268E+04  0.00000000000E+00 0. -1.
         25    2    1    2    0    0 -0.20081447362E+03  0.39941305995E+02 -0.84008378036E+02  0.25417409286E+03  0.12500120464E+03 0.  0.
          2    1    1    2  501    0  0.13752533048E+03  0.55468068676E+02 -0.12766537136E+04  0.12852371873E+04  0.00000000000E+00 0. -1.
          1    1    1    2  502    0  0.63289143133E+02 -0.95409374671E+02  0.91113812747E+03  0.91830340942E+03  0.00000000000E+00 0. -1.
         22    1    3    3    0    0 -0.53262948803E+02  0.52580838680E+02  0.14601249128E+02  0.76255378746E+02  0.00000000000E+00 0.  1.
         22    1    3    3    0    0 -0.14755152481E+03 -0.12639532685E+02 -0.98609627164E+02  0.17791871411E+03  0.00000000000E+00 0.  1.
</event>
<event>
 7    1  0.6278987E-006  0.1347597E+03  0.7818608E-02  0.1255287E+00
          2   -1    0    0  502    0  0.00000000000E+00  0.00000000000E+00  0.10046883675E+03  0.10046883675E+03  0.00000000000E+00 0. -1.
          1   -1    0    0  501    0 -0.00000000000E+00 -0.00000000000E+00 -0.33497001510E+04  0.33497001510E+04  0.00000000000E+00 0. -1.
         25    2    1    2    0    0 -0.18827222744E+03  0.55398915463E+02 -0.60673777556E+03  0.64982292071E+03  0.12499451398E+03 0.  0.
          2    1    1    2  501    0  0.12999972934E+03  0.19110686913E+02 -0.26908882513E+04  0.26940944172E+04  0.00000000000E+00 0. -1.
          1    1    1    2  502    0  0.58272498105E+02 -0.74509602376E+02  0.48394712593E+02  0.10625164982E+03  0.00000000000E+00 0. -1.
         22    1    3    3    0    0 -0.19128334638E+03  0.31829690664E+02 -0.58920347245E+03  0.62029281775E+03  0.00000000000E+00 0. -1.
         22    1    3    3    0    0  0.30111189386E+01  0.23569224799E+02 -0.17534303109E+02  0.29530102953E+02  0.00000000000E+00 0. -1.
</event>
<event>
 7    1  0.6278987E-006  0.7747661E+02  0.7818608E-02  0.1390917E+00
          2   -1    0    0  502    0  0.00000000000E+00  0.00000000000E+00  0.65639033202E+02  0.65639033202E+02  0.00000000000E+00 0. -1.
          1   -1    0    0  501    0 -0.00000000000E+00 -0.00000000000E+00 -0.98821585947E+03  0.98821585947E+03  0.00000000000E+00 0. -1.
         25    2    1    2    0    0 -0.39192668345E+02 -0.31526119004E+02 -0.57287673842E+03  0.58851086043E+03  0.12500925561E+03 0.  0.
          2    1    1    2  501    0  0.72500923955E+02  0.67604297509E+02 -0.38963788457E+03  0.40205025321E+03  0.00000000000E+00 0. -1.
          1    1    1    2  502    0 -0.33308255611E+02 -0.36078178506E+02  0.39937796727E+02  0.63293779027E+02  0.00000000000E+00 0. -1.
         22    1    3    3    0    0  0.20599355065E+02  0.22679830487E+02 -0.44629443890E+02  0.54134050301E+02  0.00000000000E+00 0.  1.
         22    1    3    3    0    0 -0.59792023410E+02 -0.54205949490E+02 -0.52824729453E+03  0.53437681013E+03  0.00000000000E+00 0.  1.
</event>
<event>
 7    1  0.6278987E-006  0.2148888E+03  0.7818608E-02  0.1246611E+00
          2   -1    0    0  502    0  0.00000000000E+00  0.00000000000E+00  0.16231800713E+04  0.16231800713E+04  0.00000000000E+00 0. -1.
          1   -1    0    0  501    0 -0.00000000000E+00 -0.00000000000E+00 -0.21796937688E+03  0.21796937688E+03  0.00000000000E+00 0. -1.
         25    2    1    2    0    0 -0.35240409223E+02 -0.18377555924E+03  0.36426734313E+03  0.42817142893E+03  0.12499893066E+03 0.  0.
          2    1    1    2  501    0  0.98494781665E+02  0.19728284053E+03 -0.11945308086E+03  0.25078034156E+03  0.00000000000E+00 0. -1.
          1    1    1    2  502    0 -0.63254372442E+02 -0.13507281288E+02  0.11603964321E+04  0.11621976777E+04  0.00000000000E+00 0. -1.
         22    1    3    3    0    0 -0.59447253841E+02 -0.62375436899E+02  0.77763524409E+02  0.11606824219E+03  0.00000000000E+00 0.  1.
         22    1    3    3    0    0  0.24206844618E+02 -0.12140012234E+03  0.28650381872E+03  0.31210318674E+03  0.00000000000E+00 0.  1.
</event>
<event>
 7    1  0.6278987E-006  0.6450517E+02  0.7818608E-02  0.1477848E+00
          2   -1    0    0  502    0  0.00000000000E+00  0.00000000000E+00  0.22252260822E+04  0.22252260822E+04  0.00000000000E+00 0. -1.
          1   -1    0    0  501    0 -0.00000000000E+00 -0.00000000000E+00 -0.71451544413E+03  0.71451544413E+03  0.00000000000E+00 0. -1.
         25    2    1    2    0    0 -0.16543588878E+02 -0.31640588147E+02  0.71860217140E+03  0.73026637695E+03  0.12500033362E+03 0.  0.
          2    1    1    2  501    0  0.17113011907E+02  0.62256099763E+02 -0.70705610262E+03  0.70999789393E+03  0.00000000000E+00 0. -1.
          1    1    1    2  502    0 -0.56942302900E+00 -0.30615511616E+02  0.14991645693E+04  0.14994772555E+04  0.00000000000E+00 0. -1.
         22    1    3    3    0    0 -0.66324773651E+02 -0.42284177631E+02  0.40654248924E+03  0.41408178279E+03  0.00000000000E+00 0. -1.
         22    1    3    3    0    0  0.49781184773E+02  0.10643589484E+02  0.31205968216E+03  0.31618459416E+03  0.00000000000E+00 0. -1.
</event>
<event>
 7    1  0.6278987E-006  0.2218773E+03  0.7818608E-02  0.1313947E+00
          2   -1    0    0  502    0  0.00000000000E+00  0.00000000000E+00  0.19462194105E+04  0.19462194105E+04  0.00000000000E+00 0. -1.
          1   -1    0    0  501    0 -0.00000000000E+00 -0.00000000000E+00 -0.22583018604E+03  0.22583018604E+03  0.00000000000E+00 0. -1.
         25    2    1    2    0    0  0.11374699231E+03  0.15643344185E+03  0.22666887088E+03  0.32313209882E+03  0.12500310504E+03 0.  0.
          2    1    1    2  501    0  0.18636870903E+02  0.27235782713E+02 -0.16832126796E+03  0.17152600405E+03  0.00000000000E+00 0. -1.
          1    1    1    2  502    0 -0.13238386321E+03 -0.18366922457E+03  0.16620416216E+04  0.16773914937E+04  0.00000000000E+00 0. -1.
         22    1    3    3    0    0  0.78983934421E+01 -0.88028244549E+01  0.72836020030E+02  0.73789973242E+02  0.00000000000E+00 0. -1.
         22    1    3    3    0    0  0.10584859887E+03  0.16523626631E+03  0.15383285085E+03  0.24934212558E+03  0.00000000000E+00 0. -1.
</event>
<event>
 7    1  0.6278987E-006  0.1325017E+03  0.7818608E-02  0.1416979E+00
          2   -1    0    0  502    0  0.00000000000E+00  0.00000000000E+00  0.72139494207E+03  0.72139494207E+03  0.00000000000E+00 0. -1.
          1   -1    0    0  501    0 -0.00000000000E+00 -0.00000000000E+00 -0.30623609398E+03  0.30623609398E+03  0.00000000000E+00 0. -1.
         25    2    1    2    0    0 -0.12738192330E+03  0.26472317779E+01  0.29017366646E+02  0.18083042962E+03  0.12499789795E+03 0.  0.
          2    1    1    2  501    0  0.13124883317E+03 -0.25710721588E+02 -0.21066634882E+03  0.24953478302E+03  0.00000000000E+00 0. -1.
          1    1    1    2  502    0 -0.38669098711E+01  0.23063489810E+02  0.59680783026E+03  0.59726582341E+03  0.00000000000E+00 0. -1.
         22    1    3    3    0    0 -0.24254720506E+02  0.50353007436E+02 -0.16729438422E+02  0.58340302833E+02  0.00000000000E+00 0. -1.
         22    1    3    3    0    0 -0.10312720279E+03 -0.47705775659E+02  0.45746805068E+02  0.12249012679E+03  0.00000000000E+00 0. -1.
</event>
<event>
 7    1  0.6278987E-006  0.3786051E+02  0.7818608E-02  0.1566813E+00
          2   -1    0    0  502    0  0.00000000000E+00  0.00000000000E+00  0.92081608261E+03  0.92081608261E+03  0.00000000000E+00 0. -1.
          1   -1    0    0  501    0 -0.00000000000E+00 -0.00000000000E+00 -0.24517677248E+04  0.24517677248E+04  0.00000000000E+00 0. -1.
         25    2    1    2    0    0 -0.26533130200E+02  0.16723304343E+02 -0.19917021534E+03  0.23722491275E+03  0.12499283436E+03 0.  0.
          2    1    1    2  501    0  0.36584993234E+02  0.10284674394E+02 -0.22331782229E+04  0.22335015584E+04  0.00000000000E+00 0. -1.
          1    1    1    2  502    0 -0.10051863035E+02 -0.27007978737E+02  0.90139679609E+03  0.90185733620E+03  0.00000000000E+00 0. -1.
         22    1    3    3    0    0  0.36658330726E+02 -0.27970276628E+02 -0.10924425629E+03  0.11857688274E+03  0.00000000000E+00 0. -1.
         22    1    3    3    0    0 -0.63191460926E+02  0.44693580971E+02 -0.89925959050E+02  0.11864803001E+03  0.00000000000E+00 0. -1.
</event>
<event>
 7    1  0.6278987E-006  0.7623524E+02  0.7818608E-02  0.1394343E+00
          2   -1    0    0  502    0  0.00000000000E+00  0.00000000000E+00  0.10637941659E+03  0.10637941659E+03  0.00000000000E+00 0. -1.
          1   -1    0    0  501    0 -0.00000000000E+00 -0.00000000000E+00 -0.39589488930E+03  0.39589488930E+03  0.00000000000E+00 0. -1.
         25    2    1    2    0    0  0.16043573102E+01 -0.40742338917E+02 -0.14410546369E+03  0.19507382669E+03  0.12499960422E+03 0.  0.
          2    1    1    2  501    0  0.58307162345E+01  0.88722130649E+02 -0.20903917510E+03  0.22716291609E+03  0.00000000000E+00 0. -1.
          1    1    1    2  502    0 -0.74350735447E+01 -0.47979791732E+02  0.63629166078E+02  0.80037563113E+02  0.00000000000E+00 0. -1.
         22    1    3    3    0    0 -0.37158029095E+02 -0.25113569695E+02  0.18824201233E+00  0.44849146526E+02  0.00000000000E+00 0.  1.
         22    1    3    3    0    0  0.38762386405E+02 -0.15628769222E+02 -0.14429370570E+03  0.15022468017E+03  0.00000000000E+00 0.  1.
</event>
<event>
 7    1  0.6278987E-006  0.1091846E+03  0.7818608E-02  0.1395348E+00
          2   -1    0    0  502    0  0.00000000000E+00  0.00000000000E+00  0.14143177797E+04  0.14143177797E+04  0.00000000000E+00 0. -1.
          1   -1    0    0  501    0 -0.00000000000E+00 -0.00000000000E+00 -0.85572784038E+03  0.85572784038E+03  0.00000000000E+00 0. -1.
         25    2    1    2    0    0 -0.53735397043E+02  0.84074668250E+02 -0.69480208495E+02  0.17438082490E+03  0.12500051994E+03 0.  0.
          2    1    1    2  501    0  0.28656890358E+02 -0.10648066834E+03 -0.72944529013E+03  0.73773286587E+03  0.00000000000E+00 0. -1.
          1    1    1    2  502    0  0.25078506686E+02  0.22406000089E+02  0.13575154379E+04  0.13579319293E+04  0.00000000000E+00 0. -1.
         22    1    3    3    0    0 -0.30320986323E+02 -0.28941145794E+02 -0.51051030568E+01  0.42225752909E+02  0.00000000000E+00 0.  1.
         22    1    3    3    0    0 -0.23414410720E+02  0.11301581404E+03 -0.64375105438E+02  0.13215507199E+03  0.00000000000E+00 0.  1.
</event>
<event>
 7    1  0.6278987E-006  0.7010359E+02  0.7818608E-02  0.1490733E+00
          2   -1    0    0  502    0  0.00000000000E+00  0.00000000000E+00  0.74209480851E+03  0.74209480851E+03  0.00000000000E+00 0. -1.
          1   -1    0    0  501    0 -0.00000000000E+00 -0.00000000000E+00 -0.58850038017E+03  0.58850038017E+03  0.00000000000E+00 0. -1.
         25    2    1    2    0    0 -0.70736953345E+02  0.16639925118E+02 -0.26015851574E+02  0.14690975360E+03  0.12500018997E+03 0.  0.
          2    1    1    2  501    0  0.69592954712E+02  0.90728069864E+01 -0.49933979540E+03  0.50424768363E+03  0.00000000000E+00 0. -1.
          1    1    1    2  502    0  0.11439986333E+01 -0.25712732105E+02  0.67895007532E+03  0.67943775145E+03  0.00000000000E+00 0. -1.
         22    1    3    3    0    0 -0.82134799623E+02  0.56590291358E+02 -0.38384219440E+01  0.99816430853E+02  0.00000000000E+00 0.  1.
         22    1    3    3    0    0  0.11397846279E+02 -0.39950366240E+02 -0.22177429630E+02  0.47093322749E+02  0.00000000000E+00 0.  1.
</event>
<event>
 7    1  0.6278987E-006  0.1239137E+03  0.7818608E-02  0.1378411E+00
          2   -1    0    0  502    0  0.00000000000E+00  0.00000000000E+00  0.17299615083E+04  0.17299615083E+04  0.00000000000E+00 0. -1.
          1   -1    0    0  501    0 -0.00000000000E+00 -0.00000000000E+00 -0.11698040944E+04  0.11698040944E+04  0.00000000000E+00 0. -1.
         25    2    1    2    0    0  0.70331293045E+02 -0.13530506471E+03  0.10145858768E+04  0.10335667261E+04  0.12498689724E+03 0.  0.
          2    1    1    2  501    0 -0.71153563128E+02  0.10134101310E+03 -0.11565981919E+04  0.11632077235E+04  0.00000000000E+00 0. -1.
          1    1    1    2  502    0  0.82227008368E+00  0.33964051608E+02  0.70216972899E+03  0.70299115303E+03  0.00000000000E+00 0. -1.
         22    1    3    3    0    0  0.15323880221E+02 -0.12939649043E+03  0.85005278559E+03  0.85998140173E+03  0.00000000000E+00 0. -1.
         22    1    3    3    0    0  0.55007412824E+02 -0.59085742808E+01  0.16453309125E+03  0.17358532436E+03  0.00000000000E+00 0. -1.
</event>
<event>
 7    1  0.6278987E-006  0.6273120E+02  0.7818608E-02  0.1527802E+00
          2   -1    0    0  502    0  0.00000000000E+00  0.00000000000E+00  0.59128500048E+03  0.59128500048E+03  0.00000000000E+00 0. -1.
          1   -1    0    0  501    0 -0.00000000000E+00 -0.00000000000E+00 -0.53253283929E+03  0.53253283929E+03  0.00000000000E+00 0. -1.
         25    2    1    2    0    0  0.29927179593E+01 -0.45121547138E+02  0.28882920947E+03  0.31795194304E+03  0.12500486176E+03 0.  0.
          2    1    1    2  501    0  0.38757316482E+01 -0.22027756065E+02 -0.51376833346E+03  0.51425494047E+03  0.00000000000E+00 0. -1.
          1    1    1    2  502    0 -0.68684496075E+01  0.67149303203E+02  0.28369128518E+03  0.29161095626E+03  0.00000000000E+00 0. -1.
         22    1    3    3    0    0 -0.15549280093E+02  0.40715760381E+02  0.74221394967E+02  0.86071881156E+02  0.00000000000E+00 0.  1.
         22    1    3    3    0    0  0.18541998052E+02 -0.85837307519E+02  0.21460781450E+03  0.23188006189E+03  0.00000000000E+00 0.  1.
</event>
<event>
 7    1  0.6278987E-006  0.7139012E+02  0.7818608E-02  0.1376501E+00
          2   -1    0    0  502    0  0.00000000000E+00  0.00000000000E+00  0.55184663664E+03  0.55184663664E+03  0.00000000000E+00 0. -1.
          1   -1    0    0  501    0 -0.00000000000E+00 -0.00000000000E+00 -0.32087223727E+03  0.32087223727E+03  0.00000000000E+00 0. -1.
         25    2    1    2    0    0 -0.11402966121E+03  0.26142520801E+02 -0.16775592076E+03  0.23969184322E+03  0.12499574282E+03 0.  0.
          2    1    1    2  501    0  0.57507198596E+02  0.16757419249E+02 -0.10684852278E+03  0.12249283983E+03  0.00000000000E+00 0. -1.
          1    1    1    2  502    0  0.56522462617E+02 -0.42899940049E+02  0.50557884291E+03  0.51053419086E+03  0.00000000000E+00 0. -1.
         22    1    3    3    0    0 -0.71563785038E+02 -0.29930073684E+02 -0.26639992419E+02  0.82017521517E+02  0.00000000000E+00 0.  1.
         22    1    3    3    0    0 -0.42465876176E+02  0.56072594485E+02 -0.14111592834E+03  0.15767432170E+03  0.00000000000E+00 0.  1.
</event>
<event>
 7    1  0.6278987E-006  0.1505918E+03  0.7818608E-02  0.1286294E+00
          2   -1    0    0  502    0  0.00000000000E+00  0.00000000000E+00  0.84316836454E+03  0.84316836454E+03  0.00000000000E+00 0. -1.
          1   -1    0    0  501    0 -0.00000000000E+00 -0.00000000000E+00 -0.38849591500E+03  0.38849591500E+03  0.00000000000E+00 0. -1.
         25    2    1    2    0    0 -0.32557705433E+02  0.14933112292E+03 -0.76096550036E+02  0.21160177446E+03  0.12499935028E+03 0.  0.
          2    1    1    2  501    0  0.89956512158E+02 -0.12400065213E+03 -0.21922600029E+03  0.26744789214E+03  0.00000000000E+00 0. -1.
          1    1    1    2  502    0 -0.57398806725E+02 -0.25330470791E+02  0.74999499987E+03  0.75261461293E+03  0.00000000000E+00 0. -1.
         22    1    3    3    0    0 -0.51709791805E+02  0.88864194231E+02  0.11497259778E+02  0.10345498812E+03  0.00000000000E+00 0.  1.
         22    1    3    3    0    0  0.19152086371E+02  0.60466928689E+02 -0.87593809815E+02  0.10814678634E+03  0.00000000000E+00 0.  1.
</event>
<event>
 7    1  0.6278987E-006  0.7100074E+02  0.7818608E-02  0.1461358E+00
          2   -1    0    0  502    0  0.00000000000E+00  0.00000000000E+00  0.32909432890E+03  0.32909432890E+03  0.00000000000E+00 0. -1.
          1   -1    0    0  501    0 -0.00000000000E+00 -0.00000000000E+00 -0.25534729631E+03  0.25534729631E+03  0.00000000000E+00 0. -1.
         25    2    1    2    0    0  0.96401909821E+02 -0.17179498334E+02 -0.36446306981E+02  0.16291717918E+03  0.12500084239E+03 0.  0.
          2    1    1    2  501    0 -0.26590328472E+02  0.16529664612E+02 -0.14943168765E+03  0.15267647053E+03  0.00000000000E+00 0. -1.
          1    1    1    2  502    0 -0.69811581349E+02  0.64983372234E+00  0.25962502722E+03  0.26884797550E+03  0.00000000000E+00 0. -1.
         22    1    3    3    0    0  0.82653309800E+02 -0.48999688812E+01  0.34438314135E+02  0.89674839261E+02  0.00000000000E+00 0.  1.
         22    1    3    3    0    0  0.13748600021E+02 -0.12279529453E+02 -0.70884621116E+02  0.73242339919E+02  0.00000000000E+00 0.  1.
</event>
<event>
 7    1  0.6278987E-006  0.1068447E+03  0.7818608E-02  0.1321638E+00
          2   -1    0    0  502    0  0.00000000000E+00  0.00000000000E+00  0.14657059717E+04  0.14657059717E+04  0.00000000000E+00 0. -1.
          1   -1    0    0  501    0 -0.00000000000E+00 -0.00000000000E+00 -0.66922934198E+02  0.66922934198E+02  0.00000000000E+00 0. -1.
         25    2    1    2    0    0 -0.11335336662E+03  0.38575728880E+02  0.18720163010E+03  0.25496200115E+03  0.12499639649E+03 0.  0.
          2    1    1    2  501    0  0.67306249043E+02 -0.82976125972E+02  0.56585712784E+02  0.12090124703E+03  0.00000000000E+00 0. -1.
          1    1    1    2  502    0  0.46047117574E+02  0.44400397092E+02  0.11549956946E+04  0.11567656577E+04  0.00000000000E+00 0. -1.
         22    1    3    3    0    0  0.17617149816E+02  0.10609211850E+02  0.82341409179E+02  0.84870648692E+02  0.00000000000E+00 0.  1.
         22    1    3    3    0    0 -0.13097051643E+03  0.27966517030E+02  0.10486022092E+03  0.17009135246E+03  0.00000000000E+00 0.  1.
</event>
<event>
 7    1  0.6278987E-006  0.2566056E+02  0.7818608E-02  0.1675843E+00
          2   -1    0    0  502    0  0.00000000000E+00  0.00000000000E+00  0.17163902605E+04  0.17163902605E+04  0.00000000000E+00 0. -1.
          1   -1    0    0  501    0 -0.00000000000E+00 -0.00000000000E+00 -0.92556567396E+03  0.92556567396E+03  0.00000000000E+00 0. -1.
         25    2    1    2    0    0  0.21043349804E+01  0.23528021883E+02  0.15876513352E+03  0.20344531376E+03  0.12500252809E+03 0.  0.
          2    1    1    2  501    0  0.19332876902E+02 -0.16891187730E+02 -0.90296113109E+03  0.90332600794E+03  0.00000000000E+00 0. -1.
          1    1    1    2  502    0 -0.21437211882E+02 -0.66368341532E+01  0.15350205841E+04  0.15351846127E+04  0.00000000000E+00 0. -1.
         22    1    3    3    0    0  0.50074289216E+01  0.44547794416E+02  0.16028018002E+01  0.44856987252E+02  0.00000000000E+00 0.  1.
         22    1    3    3    0    0 -0.29030939413E+01 -0.21019772533E+02  0.15716233172E+03  0.15858832651E+03  0.00000000000E+00 0.  1.
</event>
<event>
 7    1  0.6278987E-006  0.9134394E+02  0.7818608E-02  0.1389687E+00
          2   -1    0    0  502    0  0.00000000000E+00  0.00000000000E+00  0.25870658527E+03  0.25870658527E+03  0.00000000000E+00 0. -1.
          1   -1    0    0  501    0 -0.00000000000E+00 -0.00000000000E+00 -0.10152909221E+04  0.10152909221E+04  0.00000000000E+00 0. -1.
         25    2    1    2    0    0 -0.75089662817E+02 -0.38842577333E+02  0.47516076528E+02  0.15820972851E+03  0.12500134955E+03 0.  0.
          2    1    1    2  501    0  0.91685320851E+02  0.19314848876E+00 -0.95486960880E+03  0.95926128098E+03  0.00000000000E+00 0. -1.
          1    1    1    2  502    0 -0.16595658034E+02  0.38649428844E+02  0.15076919550E+03  0.15652649784E+03  0.00000000000E+00 0. -1.
         22    1    3    3    0    0 -0.11752975106E+02 -0.39679999655E+02  0.77707459862E+02  0.88040241450E+02  0.00000000000E+00 0. -1.
         22    1    3    3    0    0 -0.63336687711E+02  0.83742232150E+00 -0.30191383334E+02  0.70169487058E+02  0.00000000000E+00 0. -1.
</event>
<event>
 7    1  0.6278987E-006  0.1261444E+03  0.7818608E-02  0.1284088E+00
          2   -1    0    0  502    0  0.00000000000E+00  0.00000000000E+00  0.15302391306E+04  0.15302391306E+04  0.00000000000E+00 0. -1.
          1   -1    0    0  501    0 -0.00000000000E+00 -0.00000000000E+00 -0.14671764003E+03  0.14671764003E+03  0.00000000000E+00 0. -1.
         25    2    1    2    0    0  0.18614030404E+03 -0.68956616196E+02  0.53245273099E+03  0.58184299504E+03  0.12502852648E+03 0.  0.
          2    1    1    2  501    0 -0.11554996246E+03  0.39539846922E+02 -0.89518701012E+02  0.15142255826E+03  0.00000000000E+00 0. -1.
          1    1    1    2  502    0 -0.70590341579E+02  0.29416769275E+02  0.94058746057E+03  0.94369121730E+03  0.00000000000E+00 0. -1.
         22    1    3    3    0    0  0.19665647553E+03 -0.50369240046E+02  0.40958545916E+03  0.45713354511E+03  0.00000000000E+00 0. -1.
         22    1    3    3    0    0 -0.10516171491E+02 -0.18587376150E+02  0.12286727183E+03  0.12470944993E+03  0.00000000000E+00 0. -1.
</event>
<event>
 7    1  0.6278987E-006  0.6847319E+02  0.7818608E-02  0.1484230E+00
          2   -1    0    0  502    0  0.00000000000E+00  0.00000000000E+00  0.15490805901E+03  0.15490805901E+03  0.00000000000E+00 0. -1.
          1   -1    0    0  501    0 -0.00000000000E+00 -0.00000000000E+00 -0.13383673354E+04  0.13383673354E+04  0.00000000000E+00 0. -1.
         25    2    1    2    0    0 -0.82307492463E+01  0.56706456347E+02 -0.41684026660E+03  0.43893521026E+03  0.12499977409E+03 0.  0.
          2    1    1    2  501    0 -0.27499568327E+02  0.20584137336E+01 -0.90203712275E+03  0.90245854982E+03  0.00000000000E+00 0. -1.
          1    1    1    2  502    0  0.35730317573E+02 -0.58764870081E+02  0.13541811292E+03  0.15188163436E+03  0.00000000000E+00 0. -1.
         22    1    3    3    0    0 -0.38068267718E+02  0.56762306818E+02 -0.10258929439E+03  0.12327090413E+03  0.00000000000E+00 0. -1.
         22    1    3    3    0    0  0.29837518471E+02 -0.55850471131E-01 -0.31425097221E+03  0.31566430613E+03  0.00000000000E+00 0. -1.
</event>
<event>
 7    1  0.6278987E-006  0.1438601E+03  0.7818608E-02  0.1257026E+00
          2   -1    0    0  502    0  0.00000000000E+00  0.00000000000E+00  0.12833149823E+04  0.12833149823E+04  0.00000000000E+00 0. -1.
          1   -1    0    0  501    0 -0.00000000000E+00 -0.00000000000E+00 -0.17292759135E+03  0.17292759135E+03  0.00000000000E+00 0. -1.
         25    2    1    2    0    0  0.57882987788E+02  0.32439014887E+02  0.29146214360E+03  0.32400308503E+03  0.12500035199E+03 0.  0.
          2    1    1    2  501    0 -0.13420792959E+03 -0.74394594802E+02 -0.11656651867E+03  0.19270204300E+03  0.00000000000E+00 0. -1.
          1    1    1    2  502    0  0.76324941802E+02  0.41955579914E+02  0.93549176602E+03  0.93953744562E+03  0.00000000000E+00 0. -1.
         22    1    3    3    0    0  0.22987238990E+02  0.44635070226E+02  0.27070099140E+02  0.57039397945E+02  0.00000000000E+00 0.  1.
         22    1    3    3    0    0  0.34895748798E+02 -0.12196055338E+02  0.26439204446E+03  0.26696368709E+03  0.00000000000E+00 0.  1.
</event>
<event>
 7    1  0.6278987E-006  0.1149223E+03  0.7818608E-02  0.1436127E+00
          2   -1    0    0  502    0  0.00000000000E+00  0.00000000000E+00  0.16386881819E+03  0.16386881819E+03  0.00000000000E+00 0. -1.
          1   -1    0    0  501    0 -0.00000000000E+00 -0.00000000000E+00 -0.18884073125E+04  0.18884073125E+04  0.00000000000E+00 0. -1.
         25    2    1    2    0    0  0.97961244232E+02 -0.10631237136E+02 -0.12812272494E+04  0.12910760883E+04  0.12499908999E+03 0.  0.
          2    1    1    2  501    0  0.17129967566E+02  0.15798280339E+02 -0.58111510696E+03  0.58158214295E+03  0.00000000000E+00 0. -1.
          1    1    1    2  502    0 -0.11509121180E+03 -0.51670432027E+01  0.13780386213E+03  0.17961789941E+03  0.00000000000E+00 0. -1.
         22    1    3    3    0    0 -0.31498427585E+01  0.31784257811E+02 -0.10503038938E+03  0.10977952107E+03  0.00000000000E+00 0. -1.
         22    1    3    3    0    0  0.10111108699E+03 -0.42415494947E+02 -0.11761968601E+04  0.11812965672E+04  0.00000000000E+00 0. -1.
</event>
<event>
 7    1  0.6278987E-006  0.1152014E+03  0.7818608E-02  0.1397465E+00
          2   -1    0    0  502    0  0.00000000000E+00  0.00000000000E+00  0.20533526890E+04  0.20533526890E+04  0.00000000000E+00 0. -1.
          1   -1    0    0  501    0 -0.00000000000E+00 -0.00000000000E+00 -0.95928175793E+02  0.95928175793E+02  0.00000000000E+00 0. -1.
         25    2    1    2    0    0  0.82369552146E+02 -0.10094158322E+03  0.27652451071E+03  0.33024778796E+03  0.12499540026E+03 0.  0.
          2    1    1    2  501    0  0.76345299792E+01  0.30396810171E+02 -0.63539890171E+02  0.70848922077E+02  0.00000000000E+00 0. -1.
          1    1    1    2  502    0 -0.90004082125E+02  0.70544773048E+02  0.17444398926E+04  0.17481841547E+04  0.00000000000E+00 0. -1.
         22    1    3    3    0    0  0.29000361570E+02 -0.32015205983E+02  0.31510101657E+01  0.43311929655E+02  0.00000000000E+00 0. -1.
         22    1    3    3    0    0  0.53369190576E+02 -0.68926377236E+02  0.27337350054E+03  0.28693585831E+03  0.00000000000E+00 0. -1.
</event>
<event>
 7    1  0.6278987E-006  0.9290746E+02  0.7818608E-02  0.1451757E+00
          2   -1    0    0  502    0  0.00000000000E+00  0.00000000000E+00  0.52423848318E+03  0.52423848318E+03  0.00000000000E+00 0. -1.
          1   -1    0    0  501    0 -0.00000000000E+00 -0.00000000000E+00 -0.40560600636E+03  0.40560600636E+03  0.00000000000E+00 0. -1.
         25    2    1    2    0    0  0.63105044991E+02  0.34136192192E+02  0.60801823554E+02  0.15642934921E+03  0.12500301286E+03 0.  0.
          2    1    1    2  501    0 -0.75070203243E+02 -0.56840095728E+02 -0.35118793110E+03  0.36359220955E+03  0.00000000000E+00 0. -1.
          1    1    1    2  502    0  0.11965158253E+02  0.22703903536E+02  0.40901858435E+03  0.40982293078E+03  0.00000000000E+00 0. -1.
         22    1    3    3    0    0  0.48211645503E+02  0.64861871490E+02 -0.63796825290E+01  0.81068646741E+02  0.00000000000E+00 0. -1.
         22    1    3    3    0    0  0.14893399488E+02 -0.30725679298E+02  0.67181506083E+02  0.75360702466E+02  0.00000000000E+00 0. -1.
</event>
<event>
 7    1  0.6278987E-006  0.1129212E+03  0.7818608E-02  0.1321760E+00
          2   -1    0    0  502    0  0.00000000000E+00  0.00000000000E+00  0.93010394746E+03  0.93010394746E+03  0.00000000000E+00 0. -1.
          1   -1    0    0  501    0 -0.00000000000E+00 -0.00000000000E+00 -0.73108338741E+03  0.73108338741E+03  0.00000000000E+00 0. -1.
         25    2    1    2    0    0 -0.82395765622E+02 -0.27397153175E+02  0.19163619235E+03  0.24472199113E+03  0.12499902610E+03 0.  0.
          2    1    1    2  501    0  0.11121539605E+01 -0.60448227848E+02 -0.69819490503E+03  0.70080764162E+03  0.00000000000E+00 0. -1.
          1    1    1    2  502    0  0.81283611662E+02  0.87845381023E+02  0.70557927274E+03  0.71565770212E+03  0.00000000000E+00 0. -1.
         22    1    3    3    0    0 -0.21930100861E+02 -0.72039602102E+02  0.11432984928E+03  0.13690123459E+03  0.00000000000E+00 0. -1.
         22    1    3    3    0    0 -0.60465664761E+02  0.44642448927E+02  0.77306343068E+02  0.10782075654E+03  0.00000000000E+00 0. -1.
</event>
<event>
 7    1  0.6278987E-006  0.9657373E+02  0.7818608E-02  0.1431975E+00
          2   -1    0    0  502    0  0.00000000000E+00  0.00000000000E+00  0.24900180695E+04  0.24900180695E+04  0.00000000000E+00 0. -1.
          1   -1    0    0  501    0 -0.00000000000E+00 -0.00000000000E+00 -0.92001058701E+03  0.92001058701E+03  0.00000000000E+00 0. -1.
         25    2    1    2    0    0 -0.80144978791E+02  0.16236853435E+02 -0.93826425665E+01  0.14966720880E+03  0.12500154549E+03 0.  0.
          2    1    1    2  501    0 -0.16375771665E+02 -0.23462015687E+02 -0.83927391773E+03  0.83976147867E+03  0.00000000000E+00 0. -1.
          1    1    1    2  502    0  0.96520750456E+02  0.72251622524E+01  0.24186640428E+04  0.24205999691E+04  0.00000000000E+00 0. -1.
         22    1    3    3    0    0 -0.88167434837E+02 -0.18778926796E+02  0.31272027204E+02  0.95415325514E+02  0.00000000000E+00 0. -1.
         22    1    3    3    0    0  0.80224560465E+01  0.35015780230E+02 -0.40654669771E+02  0.54251883288E+02  0.00000000000E+00 0. -1.
</event>
<event>
 7    1  0.6278987E-006  0.4923696E+02  0.7818608E-02  0.1498750E+00
          2   -1    0    0  502    0  0.00000000000E+00  0.00000000000E+00  0.31186292620E+04  0.31186292620E+04  0.00000000000E+00 0. -1.
          1   -1    0    0  501    0 -0.00000000000E+00 -0.00000000000E+00 -0.42552439838E+03  0.42552439838E+03  0.00000000000E+00 0. -1.
         25    2    1    2    0    0  0.19866398737E+02  0.37707049702E+02  0.24642470562E+03  0.27958278028E+03  0.12499960037E+03 0.  0.
          2    1    1    2  501    0 -0.33215502789E+02  0.99298579743E+01 -0.40799591433E+03  0.40946616199E+03  0.00000000000E+00 0. -1.
          1    1    1    2  502    0  0.13349104052E+02 -0.47636907677E+02  0.28546760723E+04  0.28551047181E+04  0.00000000000E+00 0. -1.
         22    1    3    3    0    0  0.47298291984E+02 -0.21354239358E+02  0.17676067630E+03  0.18422124918E+03  0.00000000000E+00 0.  1.
         22    1    3    3    0    0 -0.27431893246E+02  0.59061289060E+02  0.69664029319E+02  0.95361531099E+02  0.00000000000E+00 0.  1.
</event>
<event>
 7    1  0.6278987E-006  0.9663123E+02  0.7818608E-02  0.1370253E+00
          2   -1    0    0  502    0  0.00000000000E+00  0.00000000000E+00  0.28119102115E+04  0.28119102115E+04  0.00000000000E+00 0. -1.
          1   -1    0    0  501    0 -0.00000000000E+00 -0.00000000000E+00 -0.12969936455E+04  0.12969936455E+04  0.00000000000E+00 0. -1.
         25    2    1    2    0    0  0.10555692378E+02  0.13009986410E+03  0.77399502833E+03  0.79481474137E+03  0.12499908770E+03 0.  0.
          2    1    1    2  501    0 -0.34558402150E+02 -0.90169425912E+02 -0.12845035999E+04  0.12881282182E+04  0.00000000000E+00 0. -1.
          1    1    1    2  502    0  0.24002709772E+02 -0.39930438192E+02  0.20254251376E+04  0.20259608974E+04  0.00000000000E+00 0. -1.
         22    1    3    3    0    0  0.42985171825E+02  0.23010188062E+02  0.96242197275E+02  0.10788769294E+03  0.00000000000E+00 0.  1.
         22    1    3    3    0    0 -0.32429479447E+02  0.10708967604E+03  0.67775283106E+03  0.68692704843E+03  0.00000000000E+00 0.  1.
</event>
<event>
 7    1  0.6278987E-006  0.1845373E+03  0.7818608E-02  0.1193195E+00
          2   -1    0    0  502    0  0.00000000000E+00  0.00000000000E+00  0.21821677303E+04  0.21821677303E+04  0.00000000000E+00 0. -1.
          1   -1    0    0  501    0 -0.00000000000E+00 -0.00000000000E+00 -0.12833137158E+04  0.12833137158E+04  0.00000000000E+00 0. -1.
         25    2    1    2    0    0  0.55293270128E+02 -0.48061455355E+02  0.96326003625E+02  0.17398408688E+03  0.12499805719E+03 0.  0.
          2    1    1    2  501    0 -0.18700867547E+03  0.39239789384E+02 -0.12350013154E+04  0.12496960650E+04  0.00000000000E+00 0. -1.
          1    1    1    2  502    0  0.13171540534E+03  0.88216659711E+01  0.20375293263E+04  0.20418012943E+04  0.00000000000E+00 0. -1.
         22    1    3    3    0    0  0.25376018144E+02  0.35621509721E+02  0.67735444759E+02  0.80628312201E+02  0.00000000000E+00 0.  1.
         22    1    3    3    0    0  0.29917251983E+02 -0.83682965076E+02  0.28590558866E+02  0.93355774681E+02  0.00000000000E+00 0.  1.
</event>
<event>
 7    1  0.6278987E-006  0.8485376E+02  0.7818608E-02  0.1397856E+00
          2   -1    0    0  502    0  0.00000000000E+00  0.00000000000E+00  0.24305061885E+03  0.24305061885E+03  0.00000000000E+00 0. -1.
          1   -1    0    0  501    0 -0.00000000000E+00 -0.00000000000E+00 -0.49580440222E+03  0.49580440222E+03  0.00000000000E+00 0. -1.
         25    2    1    2    0    0 -0.52203864534E+02  0.36908806298E+02  0.69209628450E+02  0.15653349574E+03  0.12500103665E+03 0.  0.
          2    1    1    2  501    0  0.85264267732E+02 -0.10333159270E+02 -0.44446320903E+03  0.45268566767E+03  0.00000000000E+00 0. -1.
          1    1    1    2  502    0 -0.33060403198E+02 -0.26575647029E+02  0.12249979721E+03  0.12963585766E+03  0.00000000000E+00 0. -1.
         22    1    3    3    0    0 -0.85570825648E+02 -0.27528695940E+01  0.58263998778E+02  0.10355982834E+03  0.00000000000E+00 0.  1.
         22    1    3    3    0    0  0.33366961114E+02  0.39661675893E+02  0.10945629672E+02  0.52973667397E+02  0.00000000000E+00 0.  1.
</event>
<event>
 7    1  0.6278987E-006  0.1251311E+03  0.7818608E-02  0.1401643E+00
          2   -1    0    0  502    0  0.00000000000E+00  0.00000000000E+00  0.40401709737E+03  0.40401709737E+03  0.00000000000E+00 0. -1.
          1   -1    0    0  501    0 -0.00000000000E+00 -0.00000000000E+00 -0.98563320959E+02  0.98563320959E+02  0.00000000000E+00 0. -1.
         25    2    1    2    0    0 -0.12414335238E+03 -0.59042310328E+02  0.23778537014E+03  0.30176994847E+03  0.12500261276E+03 0.  0.
          2    1    1    2  501    0  0.13785150283E+02  0.24272895876E+02 -0.35932529712E+02  0.45501104756E+02  0.00000000000E+00 0. -1.
          1    1    1    2  502    0  0.11035820210E+03  0.34769414452E+02  0.10360093598E+03  0.15530936510E+03  0.00000000000E+00 0. -1.
         22    1    3    3    0    0 -0.54308912066E+02  0.19246576007E+01  0.18971543010E+03  0.19734514601E+03  0.00000000000E+00 0. -1.
         22    1    3    3    0    0 -0.69834440317E+02 -0.60966967929E+02  0.48069940043E+02  0.10442480246E+03  0.00000000000E+00 0. -1.
</event>
<event>
 7    1  0.6278987E-006  0.7028111E+02  0.7818608E-02  0.1371537E+00
          2   -1    0    0  502    0  0.00000000000E+00  0.00000000000E+00  0.10694654845E+04  0.10694654845E+04  0.00000000000E+00 0. -1.
          1   -1    0    0  501    0 -0.00000000000E+00 -0.00000000000E+00 -0.13658873741E+03  0.13658873741E+03  0.00000000000E+00 0. -1.
         25    2    1    2    0    0 -0.65002233389E+02 -0.31567680970E+02  0.38432816446E+03  0.41055403670E+03  0.12499868088E+03 0.  0.
          2    1    1    2  501    0  0.48848888273E+02 -0.40384335087E+02 -0.11315700945E+03  0.12969817729E+03  0.00000000000E+00 0. -1.
          1    1    1    2  502    0  0.16153345116E+02  0.71952016057E+02  0.66170559210E+03  0.66580200795E+03  0.00000000000E+00 0. -1.
         22    1    3    3    0    0  0.16788108864E+02  0.32650610453E+02  0.14565778293E+03  0.15021349037E+03  0.00000000000E+00 0. -1.
         22    1    3    3    0    0 -0.81790342253E+02 -0.64218291423E+02  0.23867038153E+03  0.26034054633E+03  0.00000000000E+00 0. -1.
</event>
<event>
 7    1  0.6278987E-006  0.5964620E+02  0.7818608E-02  0.1423055E+00
          2   -1    0    0  502    0  0.00000000000E+00  0.00000000000E+00  0.10371246478E+03  0.10371246478E+03  0.00000000000E+00 0. -1.
          1   -1    0    0  501    0 -0.00000000000E+00 -0.00000000000E+00 -0.51894128993E+03  0.51894128993E+03  0.00000000000E+00 0. -1.
         25    2    1    2    0    0 -0.44098031339E+01 -0.25909128696E+02 -0.21164662627E+03  0.24720561660E+03  0.12500237261E+03 0.  0.
          2    1    1    2  501    0 -0.29994565157E+02  0.61607277039E+02 -0.27783784159E+03  0.28616253554E+03  0.00000000000E+00 0. -1.
          1    1    1    2  502    0  0.34404368291E+02 -0.35698148343E+02  0.74255642710E+02  0.89285602573E+02  0.00000000000E+00 0. -1.
         22    1    3    3    0    0 -0.19392232253E+02  0.37076547538E+02 -0.15700953065E+03  0.16248914353E+03  0.00000000000E+00 0.  1.
         22    1    3    3    0    0  0.14982429120E+02 -0.62985676234E+02 -0.54637095613E+02  0.84716473073E+02  0.00000000000E+00 0.  1.
</event>
<event>
 7    1  0.6278987E-006  0.1075804E+03  0.7818608E-02  0.1275116E+00
          2   -1    0    0  502    0  0.00000000000E+00  0.00000000000E+00  0.27365081779E+04  0.27365081779E+04  0.00000000000E+00 0. -1.
          1   -1    0    0  501    0 -0.00000000000E+00 -0.00000000000E+00 -0.14876056292E+04  0.14876056292E+04  0.00000000000E+00 0. -1.
         25    2    1    2    0    0  0.14600380975E+03 -0.88217144836E+02  0.52106631766E+02  0.21780789344E+03  0.12500320103E+03 0.  0.
          2    1    1    2  501    0 -0.97402218151E+02 -0.71950459329E+01 -0.14019535205E+04  0.14053514274E+04  0.00000000000E+00 0. -1.
          1    1    1    2  502    0 -0.48601591598E+02  0.95412190769E+02  0.25987494375E+04  0.26009544863E+04  0.00000000000E+00 0. -1.
         22    1    3    3    0    0  0.43387446755E+01  0.45119022483E+01 -0.29284314454E+02  0.29945835107E+02  0.00000000000E+00 0.  1.
         22    1    3    3    0    0  0.14166506507E+03 -0.92729047084E+02  0.81390946220E+02  0.18786205834E+03  0.00000000000E+00 0.  1.
</event>
<event>
 7    1  0.6278987E-006  0.4108293E+02  0.7818608E-02  0.1517901E+00
          2   -1    0    0  502    0  0.00000000000E+00  0.00000000000E+00  0.59865773668E+03  0.59865773668E+03  0.00000000000E+00 0. -1.
          1   -1    0    0  501    0 -0.00000000000E+00 -0.00000000000E+00 -0.29628747130E+03  0.29628747130E+03  0.00000000000E+00 0. -1.
         25    2    1    2    0    0  0.14486683462E+01  0.37055044952E+02  0.47550376215E+03  0.49305565530E+03  0.12499950565E+03 0.  0.
          2    1    1    2  501    0  0.35997170152E+02 -0.59159564616E+01 -0.28109470772E+03  0.28345198801E+03  0.00000000000E+00 0. -1.
          1    1    1    2  502    0 -0.37445838499E+02 -0.31139088490E+02  0.10796121095E+03  0.11843756466E+03  0.00000000000E+00 0. -1.
         22    1    3    3    0    0  0.14260557864E+02 -0.16232194776E+02  0.39544376567E+03  0.39603360901E+03  0.00000000000E+00 0.  1.
         22    1    3    3    0    0 -0.12811889518E+02  0.53287239727E+02  0.80059996481E+02  0.97022046295E+02  0.00000000000E+00 0.  1.
</event>
<event>
 7    1  0.6278987E-006  0.5752189E+02  0.7818608E-02  0.1521932E+00
          2   -1    0    0  502    0  0.00000000000E+00  0.00000000000E+00  0.13284683155E+03  0.13284683155E+03  0.00000000000E+00 0. -1.
          1   -1    0    0  501    0 -0.00000000000E+00 -0.00000000000E+00 -0.76094862559E+03  0.76094862559E+03  0.00000000000E+00 0. -1.
         25    2    1    2    0    0  0.69067927517E+02 -0.25658204092E+02 -0.53135715862E+03  0.55081265530E+03  0.12500171667E+03 0.  0.
          2    1    1    2  501    0 -0.11796314403E+02  0.22451188130E+02 -0.21238690727E+03  0.21389578599E+03  0.00000000000E+00 0. -1.
          1    1    1    2  502    0 -0.57271613114E+02  0.32070159613E+01  0.11564227186E+03  0.12908701585E+03  0.00000000000E+00 0. -1.
         22    1    3    3    0    0  0.13665637108E+02  0.42844620930E+02 -0.29807247550E+03  0.30144586882E+03  0.00000000000E+00 0. -1.
         22    1    3    3    0    0  0.55402290409E+02 -0.68502825022E+02 -0.23328468313E+03  0.24936678648E+03  0.00000000000E+00 0. -1.
</event>
<event>
 7    1  0.6278987E-006  0.8815047E+02  0.7818608E-02  0.1429067E+00
          2   -1    0    0  502    0  0.00000000000E+00  0.00000000000E+00  0.28208182078E+04  0.28208182078E+04  0.00000000000E+00 0. -1.
          1   -1    0    0  501    0 -0.00000000000E+00 -0.00000000000E+00 -0.14729975197E+02  0.14729975197E+02  0.00000000000E+00 0. -1.
         25    2    1    2    0    0 -0.70381109607E+02 -0.17302684026E+02  0.85473370167E+03  0.86686015563E+03  0.12499578071E+03 0.  0.
          2    1    1    2  501    0 -0.20883125979E+02  0.24304351905E+02  0.26289348215E+02  0.41447995148E+02  0.00000000000E+00 0. -1.
          1    1    1    2  502    0  0.91264235586E+02 -0.70016678794E+01  0.19250651827E+04  0.19272400322E+04  0.00000000000E+00 0. -1.
         22    1    3    3    0    0  0.13672267855E+02  0.31363228795E+02  0.95588949192E+02  0.10152748513E+03  0.00000000000E+00 0. -1.
         22    1    3    3    0    0 -0.84053377462E+02 -0.48665912820E+02  0.75914475248E+03  0.76533267051E+03  0.00000000000E+00 0. -1.
</event>
<event>
 7    1  0.6278987E-006  0.1449957E+03  0.7818608E-02  0.1234376E+00
          2   -1    0    0  502    0  0.00000000000E+00  0.00000000000E+00  0.22908066233E+04  0.22908066233E+04  0.00000000000E+00 0. -1.
          1   -1    0    0  501    0 -0.00000000000E+00 -0.00000000000E+00 -0.19949138792E+04  0.19949138792E+04  0.00000000000E+00 0. -1.
         25    2    1    2    0    0  0.19349404567E+03 -0.34045424245E+02 -0.64007879003E+02  0.24149726956E+03  0.12499954405E+03 0.  0.
          2    1    1    2  501    0 -0.60204729219E+02  0.90300703728E+02 -0.18381827426E+04  0.18413838876E+04  0.00000000000E+00 0. -1.
          1    1    1    2  502    0 -0.13328931645E+03 -0.56255279483E+02  0.21980833657E+04  0.22028393453E+04  0.00000000000E+00 0. -1.
         22    1    3    3    0    0  0.74352507194E+02  0.47659547160E+02 -0.27328021116E+02  0.92447544584E+02  0.00000000000E+00 0.  1.
         22    1    3    3    0    0  0.11914153847E+03 -0.81704971405E+02 -0.36679857888E+02  0.14904972498E+03  0.00000000000E+00 0.  1.
</event>
<event>
 7    1  0.6278987E-006  0.1953165E+03  0.7818608E-02  0.1233831E+00
          2   -1    0    0  502    0  0.00000000000E+00  0.00000000000E+00  0.79082124393E+03  0.79082124393E+03  0.00000000000E+00 0. -1.
          1   -1    0    0  501    0 -0.00000000000E+00 -0.00000000000E+00 -0.29981991155E+03  0.29981991155E+03  0.00000000000E+00 0. -1.
         25    2    1    2    0    0  0.13634226171E+03  0.14897093510E+03 -0.14387036820E+01  0.23749734542E+03  0.12498546869E+03 0.  0.
          2    1    1    2  501    0  0.42842954589E+02 -0.68765849380E+02 -0.15592024379E+03  0.17571392439E+03  0.00000000000E+00 0. -1.
          1    1    1    2  502    0 -0.17918521630E+03 -0.80205085721E+02  0.64836027985E+03  0.67742988568E+03  0.00000000000E+00 0. -1.
         22    1    3    3    0    0  0.15027147716E+03  0.15973725707E+03 -0.56940281103E+01  0.21938534614E+03  0.00000000000E+00 0. -1.
         22    1    3    3    0    0 -0.13929215455E+02 -0.10766321972E+02  0.42553244282E+01  0.18111999282E+02  0.00000000000E+00 0. -1.
</event>
<event>
 7    1  0.6278987E-006  0.6028324E+02  0.7818608E-02  0.1528999E+00
          2   -1    0    0  502    0  0.00000000000E+00  0.00000000000E+00  0.10418648757E+03  0.10418648757E+03  0.00000000000E+00 0. -1.
          1   -1    0    0  501    0 -0.00000000000E+00 -0.00000000000E+00 -0.11197616497E+04  0.11197616497E+04  0.00000000000E+00 0. -1.
         25    2    1    2    0    0  0.55677866804E+02  0.13686083765E+02 -0.20581717228E+03  0.24753603046E+03  0.12500417684E+03 0.  0.
          2    1    1    2  501    0  0.42775731450E+01 -0.22691282001E+02 -0.88188581040E+03  0.88218806073E+03  0.00000000000E+00 0. -1.
          1    1    1    2  502    0 -0.59955439949E+02  0.90051982360E+01  0.72127820513E+02  0.94224046118E+02  0.00000000000E+00 0. -1.
         22    1    3    3    0    0 -0.56858373429E+01 -0.35563018488E+02 -0.14120032367E+03  0.14572092655E+03  0.00000000000E+00 0.  1.
         22    1    3    3    0    0  0.61363704147E+02  0.49249102252E+02 -0.64616848617E+02  0.10181510391E+03  0.00000000000E+00 0.  1.
</event>
<event>
 7    1  0.6278987E-006  0.1546586E+03  0.7818608E-02  0.1307467E+00
          2   -1    0    0  502    0  0.00000000000E+00  0.00000000000E+00  0.22570962527E+04  0.22570962527E+04  0.00000000000E+00 0. -1.
          1   -1    0    0  501    0 -0.00000000000E+00 -0.00000000000E+00 -0.60377820142E+02  0.60377820142E+02  0.00000000000E+00 0. -1.
         25    2    1    2    0    0 -0.27202264600E+02 -0.18571336541E+03  0.11964181568E+04  0.12174853681E+04  0.12499919316E+03 0.  0.
          2    1    1    2  501    0 -0.65649596107E+01  0.49778400433E+02 -0.31139715913E+02  0.59081890216E+02  0.00000000000E+00 0. -1.
          1    1    1    2  502    0  0.33767224211E+02  0.13593496498E+03  0.10314399917E+04  0.10409068145E+04  0.00000000000E+00 0. -1.
         22    1    3    3    0    0  0.26420920274E+01 -0.14735707848E+03  0.10966580379E+04  0.11065170317E+04  0.00000000000E+00 0. -1.
         22    1    3    3    0    0 -0.29844356628E+02 -0.38356286931E+02  0.99760118901E+02  0.11096833644E+03  0.00000000000E+00 0. -1.
</event>
<event>
 7    1  0.6278987E-006  0.8941207E+02  0.7818608E-02  0.1413948E+00
          2   -1    0    0  502    0  0.00000000000E+00  0.00000000000E+00  0.82937531919E+03  0.82937531919E+03  0.00000000000E+00 0. -1.
          1   -1    0    0  501    0 -0.00000000000E+00 -0.00000000000E+00 -0.78611845773E+03  0.78611845773E+03  0.00000000000E+00 0. -1.
         25    2    1    2    0    0  0.63090487394E+02 -0.75727363891E+02 -0.12293086354E+03  0.20112584025E+03  0.12499825263E+03 0.  0.
          2    1    1    2  501    0 -0.34345463683E+02 -0.88937583056E+01 -0.62105557078E+03  0.62206810866E+03  0.00000000000E+00 0. -1.
          1    1    1    2  502    0 -0.28745023712E+02  0.84621122196E+02  0.78724329579E+03  0.79229982801E+03  0.00000000000E+00 0. -1.
         22    1    3    3    0    0  0.48247540803E+02 -0.10196143862E+01 -0.11479309988E+03  0.12452437749E+03  0.00000000000E+00 0.  1.
         22    1    3    3    0    0  0.14842946591E+02 -0.74707749505E+02 -0.81377636594E+01  0.76601462760E+02  0.00000000000E+00 0.  1.
</event>
<event>
 7    1  0.6278987E-006  0.3797029E+02  0.7818608E-02  0.1556633E+00
          2   -1    0    0  502    0  0.00000000000E+00  0.00000000000E+00  0.13545312216E+04  0.13545312216E+04  0.00000000000E+00 0. -1.
          1   -1    0    0  501    0 -0.00000000000E+00 -0.00000000000E+00 -0.15469077808E+03  0.15469077808E+03  0.00000000000E+00 0. -1.
         25    2    1    2    0    0  0.29636949121E+02 -0.16845714840E+02 -0.49468623680E+02  0.13868806779E+03  0.12500043423E+03 0.  0.
          2    1    1    2  501    0  0.60138865285E+01  0.30049388840E+02 -0.56444493409E+02  0.64227045993E+02  0.00000000000E+00 0. -1.
          1    1    1    2  502    0 -0.35650835649E+02 -0.13203674000E+02  0.13057535606E+04  0.13063068859E+04  0.00000000000E+00 0. -1.
         22    1    3    3    0    0 -0.16825778749E+02 -0.37279519827E+02  0.25466194194E+02  0.48180872510E+02  0.00000000000E+00 0.  1.
         22    1    3    3    0    0  0.46462727870E+02  0.20433804987E+02 -0.74934817875E+02  0.90507195279E+02  0.00000000000E+00 0.  1.
</event>
<event>
 7    1  0.6278987E-006  0.5908122E+02  0.7818608E-02  0.1427710E+00
          2   -1    0    0  502    0  0.00000000000E+00  0.00000000000E+00  0.75147570011E+03  0.75147570011E+03  0.00000000000E+00 0. -1.
          1   -1    0    0  501    0 -0.00000000000E+00 -0.00000000000E+00 -0.33066301999E+03  0.33066301999E+03  0.00000000000E+00 0. -1.
         25    2    1    2    0    0  0.74309185165E+02  0.73763536147E+02 -0.38057408086E+02  0.16744000834E+03  0.12499950328E+03 0.  0.
          2    1    1    2  501    0 -0.42399798914E+02 -0.37497416418E+02 -0.22353304584E+03  0.23058799138E+03  0.00000000000E+00 0. -1.
          1    1    1    2  502    0 -0.31909386250E+02 -0.36266119729E+02  0.68240313405E+03  0.68411072037E+03  0.00000000000E+00 0. -1.
         22    1    3    3    0    0  0.16677972291E+02 -0.35646732395E+02 -0.75744011565E+01  0.40077622722E+02  0.00000000000E+00 0. -1.
         22    1    3    3    0    0  0.57631212874E+02  0.10941026854E+03 -0.30483006929E+02  0.12736238562E+03  0.00000000000E+00 0. -1.
</event>
<event>
 7    1  0.6278987E-006  0.4626226E+02  0.7818608E-02  0.1479717E+00
          2   -1    0    0  502    0  0.00000000000E+00  0.00000000000E+00  0.71436882455E+03  0.71436882455E+03  0.00000000000E+00 0. -1.
          1   -1    0    0  501    0 -0.00000000000E+00 -0.00000000000E+00 -0.18059532103E+02  0.18059532103E+02  0.00000000000E+00 0. -1.
         25    2    1    2    0    0  0.17126246817E+02  0.40687994121E+02  0.40640011063E+03  0.42747512713E+03  0.12500045282E+03 0.  0.
          2    1    1    2  501    0  0.29706130991E+02 -0.35464666423E+02  0.11929621079E+03  0.12795226724E+03  0.00000000000E+00 0. -1.
          1    1    1    2  502    0 -0.46832377808E+02 -0.52233276984E+01  0.17061297103E+03  0.17700096228E+03  0.00000000000E+00 0. -1.
         22    1    3    3    0    0  0.33675128097E+02  0.79164127090E+02  0.21555938091E+03  0.23209226607E+03  0.00000000000E+00 0.  1.
         22    1    3    3    0    0 -0.16548881280E+02 -0.38476132969E+02  0.19084072971E+03  0.19538286106E+03  0.00000000000E+00 0.  1.
</event>
<event>
 7    1  0.6278987E-006  0.6788441E+02  0.7818608E-02  0.1435504E+00
          2   -1    0    0  502    0  0.00000000000E+00  0.00000000000E+00  0.20007191494E+04  0.20007191494E+04  0.00000000000E+00 0. -1.
          1   -1    0    0  501    0 -0.00000000000E+00 -0.00000000000E+00 -0.11280924227E+03  0.11280924227E+03  0.00000000000E+00 0. -1.
         25    2    1    2    0    0 -0.83548016488E+02 -0.63437124396E+01  0.49340679514E+02  0.15836925453E+03  0.12500321747E+03 0.  0.
          2    1    1    2  501    0  0.60999804991E+02 -0.26252442223E+02 -0.39104563945E+02  0.77067073728E+02  0.00000000000E+00 0. -1.
          1    1    1    2  502    0  0.22548211497E+02  0.32596154663E+02  0.18776737915E+04  0.18780920634E+04  0.00000000000E+00 0. -1.
         22    1    3    3    0    0 -0.25097548530E+01 -0.52462971222E+02 -0.74070256040E+00  0.52528191090E+02  0.00000000000E+00 0.  1.
         22    1    3    3    0    0 -0.81038261635E+02  0.46119258783E+02  0.50081382074E+02  0.10584106344E+03  0.00000000000E+00 0.  1.
</event>
<event>
 7    1  0.6278987E-006  0.9626529E+02  0.7818608E-02  0.1373401E+00
          2   -1    0    0  502    0  0.00000000000E+00  0.00000000000E+00  0.24240046860E+04  0.24240046860E+04  0.00000000000E+00 0. -1.
          1   -1    0    0  501    0 -0.00000000000E+00 -0.00000000000E+00 -0.43972165706E+02  0.43972165706E+02  0.00000000000E+00 0. -1.
         25    2    1    2    0    0  0.50302755737E+02 -0.21226510786E+02  0.75884407240E+03  0.77100746548E+03  0.12500901415E+03 0.  0.
          2    1    1    2  501    0 -0.89214269207E+02  0.44938126195E+02  0.28845285816E+02  0.10397437920E+03  0.00000000000E+00 0. -1.
          1    1    1    2  502    0  0.38911513470E+02 -0.23711615409E+02  0.15923431621E+04  0.15929950071E+04  0.00000000000E+00 0. -1.
         22    1    3    3    0    0  0.45451658566E+02 -0.31150904392E+02  0.11976359100E+03  0.13183152066E+03  0.00000000000E+00 0. -1.
         22    1    3    3    0    0  0.48510971709E+01  0.99243936056E+01  0.63908048140E+03  0.63917594482E+03  0.00000000000E+00 0. -1.
</event>
<event>
 7    1  0.6278987E-006  0.6143787E+02  0.7818608E-02  0.1485609E+00
          2   -1    0    0  502    0  0.00000000000E+00  0.00000000000E+00  0.13158968977E+02  0.13158968977E+02  0.00000000000E+00 0. -1.
          1   -1    0    0  501    0 -0.00000000000E+00 -0.00000000000E+00 -0.25334944269E+04  0.25334944269E+04  0.00000000000E+00 0. -1.
         25    2    1    2    0    0  0.10992766992E+02 -0.85184169433E+02 -0.12484421199E+04  0.12576208322E+04  0.12500098956E+03 0.  0.
          2    1    1    2  501    0 -0.17231370981E+02  0.55391796961E+02 -0.12504602867E+04  0.12518051366E+04  0.00000000000E+00 0. -1.
          1    1    1    2  502    0  0.62386039894E+01  0.29792372472E+02 -0.21433051407E+02  0.37227427119E+02  0.00000000000E+00 0. -1.
         22    1    3    3    0    0  0.12436737745E+02 -0.83728060670E+02 -0.12512687931E+04  0.12541286430E+04  0.00000000000E+00 0. -1.
         22    1    3    3    0    0 -0.14439707527E+01 -0.14561087635E+01  0.28266732284E+01  0.34921892569E+01  0.00000000000E+00 0. -1.
</event>
<event>
 7    1  0.6278987E-006  0.9603688E+02  0.7818608E-02  0.1460882E+00
          2   -1    0    0  502    0  0.00000000000E+00  0.00000000000E+00  0.45423061270E+03  0.45423061270E+03  0.00000000000E+00 0. -1.
          1   -1    0    0  501    0 -0.00000000000E+00 -0.00000000000E+00 -0.10613491217E+03  0.10613491217E+03  0.00000000000E+00 0. -1.
         25    2    1    2    0    0  0.80956597228E+02  0.20709526787E+02  0.22061930866E+03  0.26698735757E+03  0.12500605831E+03 0.  0.
          2    1    1    2  501    0  0.21533846815E+02 -0.87060514068E+01 -0.68261632953E+02  0.72105148382E+02  0.00000000000E+00 0. -1.
          1    1    1    2  502    0 -0.10249044404E+03 -0.12003475380E+02  0.19573802481E+03  0.22127301891E+03  0.00000000000E+00 0. -1.
         22    1    3    3    0    0  0.54958312788E+02  0.69614685679E+02  0.96483542443E+02  0.13105607414E+03  0.00000000000E+00 0. -1.
         22    1    3    3    0    0  0.25998284440E+02 -0.48905158893E+02  0.12413576622E+03  0.13593128343E+03  0.00000000000E+00 0. -1.
</event>
<event>
 7    1  0.6278987E-006  0.1149938E+03  0.7818608E-02  0.1295874E+00
          2   -1    0    0  502    0  0.00000000000E+00  0.00000000000E+00  0.15417751079E+04  0.15417751079E+04  0.00000000000E+00 0. -1.
          1   -1    0    0  501    0 -0.00000000000E+00 -0.00000000000E+00 -0.54281000945E+03  0.54281000945E+03  0.00000000000E+00 0. -1.
         25    2    1    2    0    0 -0.98852041546E+02  0.56543481288E+02 -0.11928198733E+02  0.16951731628E+03  0.12499978881E+03 0.  0.
          2    1    1    2  501    0  0.44545673330E+02 -0.10844989317E+03 -0.44350025215E+03  0.45873540303E+03  0.00000000000E+00 0. -1.
          1    1    1    2  502    0  0.54306368216E+02  0.51906411879E+02  0.14543935494E+04  0.14563323981E+04  0.00000000000E+00 0. -1.
         22    1    3    3    0    0  0.93301642121E+01  0.25604470874E+02  0.37717560392E+02  0.46532303348E+02  0.00000000000E+00 0.  1.
         22    1    3    3    0    0 -0.10818220576E+03  0.30939010414E+02 -0.49645759124E+02  0.12298501294E+03  0.00000000000E+00 0.  1.
</event>
<event>
 7    1  0.6278987E-006  0.7814525E+02  0.7818608E-02  0.1490428E+00
          2   -1    0    0  502    0  0.00000000000E+00  0.00000000000E+00  0.19631388223E+03  0.19631388223E+03  0.00000000000E+00 0. -1.
          1   -1    0    0  501    0 -0.00000000000E+00 -0.00000000000E+00 -0.22011434202E+03  0.22011434202E+03  0.00000000000E+00 0. -1.
         25    2    1    2    0    0 -0.71514150460E+02 -0.60130375010E+02 -0.49891006809E+02  0.16384206097E+03  0.12500069067E+03 0.  0.
          2    1    1    2  501    0  0.64648816478E+02  0.38033706028E+02 -0.99655641690E+02  0.12472882260E+03  0.00000000000E+00 0. -1.
          1    1    1    2  502    0  0.68653339817E+01  0.22096668982E+02  0.12574618871E+03  0.12785734068E+03  0.00000000000E+00 0. -1.
         22    1    3    3    0    0 -0.43698123416E+02 -0.42395420849E+02  0.36762006125E+02  0.71122027483E+02  0.00000000000E+00 0. -1.
         22    1    3    3    0    0 -0.27816027044E+02 -0.17734954161E+02 -0.86653012934E+02  0.92720033489E+02  0.00000000000E+00 0. -1.
</event>
<event>
 7    1  0.6278987E-006  0.6331331E+02  0.7818608E-02  0.1417397E+00
          2   -1    0    0  502    0  0.00000000000E+00  0.00000000000E+00  0.31120496301E+02  0.31120496301E+02  0.00000000000E+00 0. -1.
          1   -1    0    0  501    0 -0.00000000000E+00 -0.00000000000E+00 -0.11745920582E+04  0.11745920582E+04  0.00000000000E+00 0. -1.
         25    2    1    2    0    0  0.27962335171E+02 -0.19008498583E+02 -0.22431867741E+03  0.25901251071E+03  0.12500158583E+03 0.  0.
          2    1    1    2  501    0  0.16785519644E+02 -0.45804537072E+02 -0.81329577794E+03  0.81475752939E+03  0.00000000000E+00 0. -1.
          1    1    1    2  502    0 -0.44747854815E+02  0.64813035655E+02 -0.10585710658E+03  0.13194251443E+03  0.00000000000E+00 0. -1.
         22    1    3    3    0    0 -0.47446693098E+02  0.72770401216E+01 -0.10478791805E+03  0.11525906371E+03  0.00000000000E+00 0. -1.
         22    1    3    3    0    0  0.75409028269E+02 -0.26285538705E+02 -0.11953075936E+03  0.14375344699E+03  0.00000000000E+00 0. -1.
</event>
<event>
 7    1  0.6278987E-006  0.1637119E+03  0.7818608E-02  0.1341612E+00
          2   -1    0    0  502    0  0.00000000000E+00  0.00000000000E+00  0.68250035060E+03  0.68250035060E+03  0.00000000000E+00 0. -1.
          1   -1    0    0  501    0 -0.00000000000E+00 -0.00000000000E+00 -0.65285070927E+03  0.65285070927E+03  0.00000000000E+00 0. -1.
         25    2    1    2    0    0  0.51811588714E+02 -0.13824701476E+03  0.99930993021E+02  0.21773356744E+03  0.12500010083E+03 0.  0.
          2    1    1    2  501    0  0.34573615278E+02 -0.56681774498E+01 -0.57995688665E+03  0.58101415946E+03  0.00000000000E+00 0. -1.
          1    1    1    2  502    0 -0.86385203992E+02  0.14391519221E+03  0.50967553497E+03  0.53660333298E+03  0.00000000000E+00 0. -1.
         22    1    3    3    0    0 -0.20315346857E+02 -0.10052155075E+03  0.21674005355E+02  0.10481916805E+03  0.00000000000E+00 0. -1.
         22    1    3    3    0    0  0.72126935571E+02 -0.37725464014E+02  0.78256987666E+02  0.11291439938E+03  0.00000000000E+00 0. -1.
</event>
<event>
 7    1  0.6278987E-006  0.1485193E+03  0.7818608E-02  0.1291044E+00
          2   -1    0    0  502    0  0.00000000000E+00  0.00000000000E+00  0.11979224968E+04  0.11979224968E+04  0.00000000000E+00 0. -1.
          1   -1    0    0  501    0 -0.00000000000E+00 -0.00000000000E+00 -0.75621711142E+03  0.75621711142E+03  0.00000000000E+00 0. -1.
         25    2    1    2    0    0  0.10248007090E+03 -0.65029960581E+01  0.26608788894E+03  0.31140206462E+03  0.12499610924E+03 0.  0.
          2    1    1    2  501    0  0.60833015410E+02  0.10263281151E+01 -0.72493327042E+03  0.72748192807E+03  0.00000000000E+00 0. -1.
          1    1    1    2  502    0 -0.16331308631E+03  0.54766679430E+01  0.90055076685E+03  0.91525561551E+03  0.00000000000E+00 0. -1.
         22    1    3    3    0    0  0.11443302919E+03  0.33121234935E+02  0.21342348350E+03  0.24442077997E+03  0.00000000000E+00 0. -1.
         22    1    3    3    0    0 -0.11952958293E+02 -0.39624230993E+02  0.52664405437E+02  0.66981284653E+02  0.00000000000E+00 0. -1.
</event>
<event>
 7    1  0.6278987E-006  0.5836380E+02  0.7818608E-02  0.1461505E+00
          2   -1    0    0  502    0  0.00000000000E+00  0.00000000000E+00  0.32141153271E+02  0.32141153271E+02  0.00000000000E+00 0. -1.
          1   -1    0    0  501    0 -0.00000000000E+00 -0.00000000000E+00 -0.32352920927E+04  0.32352920927E+04  0.00000000000E+00 0. -1.
         25    2    1    2    0    0  0.59987260894E+02 -0.85383389542E+01 -0.38373377781E+03  0.40810460891E+03  0.12500553937E+03 0.  0.
          2    1    1    2  501    0 -0.80119002649E+01  0.37194748127E+02 -0.27948246778E+04  0.27950836516E+04  0.00000000000E+00 0. -1.
          1    1    1    2  502    0 -0.51975360629E+02 -0.28656409173E+02 -0.24592483851E+02  0.64244985494E+02  0.00000000000E+00 0. -1.
         22    1    3    3    0    0 -0.34100746606E+02  0.20750891626E+02 -0.12615412710E+03  0.13231902435E+03  0.00000000000E+00 0.  1.
         22    1    3    3    0    0  0.94088007500E+02 -0.29289230580E+02 -0.25757965072E+03  0.27578558455E+03  0.00000000000E+00 0.  1.
</event>
<event>
 7    1  0.6831677E-006  0.9379935E+02  0.7818608E-02  0.1337253E+00
          2   -1    0    0  502    0  0.00000000000E+00  0.00000000000E+00  0.78180238902E+03  0.78180238902E+03  0.00000000000E+00 0. -1.
          1   -1    0    0  501    0 -0.00000000000E+00 -0.00000000000E+00 -0.10623135791E+04  0.10623135791E+04  0.00000000000E+00 0. -1.
         25    2    1    2    0    0 -0.14254138982E+03  0.62813177822E+01 -0.15512350440E+03  0.24504231040E+03  0.12499971801E+03 0.  0.
          2    1    1    2  501    0  0.56373402133E+02  0.29236146034E+02 -0.85810551515E+03  0.86045208340E+03  0.00000000000E+00 0. -1.
          1    1    1    2  502    0  0.86167987692E+02 -0.35517463816E+02  0.73271782950E+03  0.73862157429E+03  0.00000000000E+00 0. -1.
         22    1    3    3    0    0  0.62106768761E+01 -0.68999411543E+01 -0.74996394467E+02  0.75568782432E+02  0.00000000000E+00 0. -1.
         22    1    3    3    0    0 -0.14875206670E+03  0.13181258937E+02 -0.80127109933E+02  0.16947352797E+03  0.00000000000E+00 0. -1.
</event>
<event>
 7    1  0.6278987E-006  0.5124951E+02  0.7818608E-02  0.1494225E+00
          2   -1    0    0  502    0  0.00000000000E+00  0.00000000000E+00  0.86730177475E+03  0.86730177475E+03  0.00000000000E+00 0. -1.
          1   -1    0    0  501    0 -0.00000000000E+00 -0.00000000000E+00 -0.68855437809E+03  0.68855437809E+03  0.00000000000E+00 0. -1.
         25    2    1    2    0    0  0.29323115239E+02  0.33479870690E+02 -0.60831762586E+02  0.14596767339E+03  0.12500124602E+03 0.  0.
          2    1    1    2  501    0  0.21616091828E+02 -0.26713197550E+02 -0.58384853723E+03  0.58485892725E+03  0.00000000000E+00 0. -1.
          1    1    1    2  502    0 -0.50939207067E+02 -0.67666731401E+01  0.82342769648E+03  0.82502955220E+03  0.00000000000E+00 0. -1.
         22    1    3    3    0    0 -0.11935938728E+02 -0.39663851105E+02 -0.43792748540E+02  0.60278458362E+02  0.00000000000E+00 0. -1.
         22    1    3    3    0    0  0.41259053967E+02  0.73143721795E+02 -0.17039014045E+02  0.85689215027E+02  0.00000000000E+00 0. -1.
</event>
<event>
 7    1  0.6278987E-006  0.3549894E+02  0.7818608E-02  0.1603991E+00
          2   -1    0    0  502    0  0.00000000000E+00  0.00000000000E+00  0.34302145422E+03  0.34302145422E+03  0.00000000000E+00 0. -1.
          1   -1    0    0  501    0 -0.00000000000E+00 -0.00000000000E+00 -0.10608885467E+03  0.10608885467E+03  0.00000000000E+00 0. -1.
         25    2    1    2    0    0 -0.13398667903E+02 -0.26379113231E+01  0.16129836082E+03  0.20451951678E+03  0.12499835463E+03 0.  0.
          2    1    1    2  501    0  0.28671007099E+02  0.21756336550E+02 -0.79642770657E+02  0.87397572884E+02  0.00000000000E+00 0. -1.
          1    1    1    2  502    0 -0.15272339196E+02 -0.19118425227E+02  0.15527700938E+03  0.15719321923E+03  0.00000000000E+00 0. -1.
         22    1    3    3    0    0  0.94796303030E+01 -0.57240719025E+02  0.42943830935E+02  0.72184042008E+02  0.00000000000E+00 0. -1.
         22    1    3    3    0    0 -0.22878298206E+02  0.54602807702E+02  0.11835452989E+03  0.13233547477E+03  0.00000000000E+00 0. -1.
</event>
<event>
 7    1  0.6278987E-006  0.1995321E+03  0.7818608E-02  0.1200014E+00
          2   -1    0    0  502    0  0.00000000000E+00  0.00000000000E+00  0.10147068241E+04  0.10147068241E+04  0.00000000000E+00 0. -1.
          1   -1    0    0  501    0 -0.00000000000E+00 -0.00000000000E+00 -0.15983980566E+04  0.15983980566E+04  0.00000000000E+00 0. -1.
         25    2    1    2    0    0 -0.16436235188E+03  0.14510928255E+02 -0.25415692164E+03  0.32779102318E+03  0.12500265719E+03 0.  0.
          2    1    1    2  501    0  0.17005605370E+03 -0.12769488601E+03 -0.12954416568E+04  0.13127810676E+04  0.00000000000E+00 0. -1.
          1    1    1    2  502    0 -0.56937018184E+01  0.11318395776E+03  0.96590734594E+03  0.97253278993E+03  0.00000000000E+00 0. -1.
         22    1    3    3    0    0 -0.14234878787E+03  0.12086800217E+02 -0.10575400001E+03  0.17774469518E+03  0.00000000000E+00 0.  1.
         22    1    3    3    0    0 -0.22013564012E+02  0.24241280381E+01 -0.14840292163E+03  0.15004632800E+03  0.00000000000E+00 0.  1.
</event>
<event>
 7    1  0.6278987E-006  0.1632155E+03  0.7818608E-02  0.1385229E+00
          2   -1    0    0  502    0  0.00000000000E+00  0.00000000000E+00  0.21712300523E+04  0.21712300523E+04  0.00000000000E+00 0. -1.
          1   -1    0    0  501    0 -0.00000000000E+00 -0.00000000000E+00 -0.24387549921E+03  0.24387549921E+03  0.00000000000E+00 0. -1.
         25    2    1    2    0    0 -0.12912225535E+03  0.11477137683E+03  0.66404145244E+03  0.69743898343E+03  0.12500023716E+03 0.  0.
          2    1    1    2  501    0  0.13501347023E+03 -0.91091375037E+02 -0.19787053428E+03  0.25627919168E+03  0.00000000000E+00 0. -1.
          1    1    1    2  502    0 -0.58912148801E+01 -0.23680001795E+02  0.14611836350E+04  0.14613873764E+04  0.00000000000E+00 0. -1.
         22    1    3    3    0    0 -0.81619520598E+01  0.86972039581E+02  0.23110129469E+03  0.24705983392E+03  0.00000000000E+00 0. -1.
         22    1    3    3    0    0 -0.12096030329E+03  0.27799337251E+02  0.43294015775E+03  0.45037914951E+03  0.00000000000E+00 0. -1.
</event>
<event>
 7    1  0.6278987E-006  0.1226102E+03  0.7818608E-02  0.1337472E+00
          2   -1    0    0  502    0  0.00000000000E+00  0.00000000000E+00  0.15855464948E+03  0.15855464948E+03  0.00000000000E+00 0. -1.
          1   -1    0    0  501    0 -0.00000000000E+00 -0.00000000000E+00 -0.11065066340E+04  0.11065066340E+04  0.00000000000E+00 0. -1.
         25    2    1    2    0    0  0.80099616637E+02  0.59999487222E+02  0.19048945211E+02  0.16122970213E+03  0.12496506505E+03 0.  0.
          2    1    1    2  501    0  0.35458892570E+02  0.33073887950E+02 -0.95361796045E+03  0.95484995136E+03  0.00000000000E+00 0. -1.
          1    1    1    2  502    0 -0.11555850921E+03 -0.93073375171E+02 -0.13382969301E+02  0.14898163002E+03  0.00000000000E+00 0. -1.
         22    1    3    3    0    0  0.51178210632E+02  0.69310684094E+00  0.63583381968E+02  0.81624359740E+02  0.00000000000E+00 0.  1.
         22    1    3    3    0    0  0.28921406005E+02  0.59306380381E+02 -0.44534436757E+02  0.79605342386E+02  0.00000000000E+00 0.  1.
</event>
<event>
 7    1  0.6278987E-006  0.1526224E+03  0.7818608E-02  0.1284737E+00
          2   -1    0    0  502    0  0.00000000000E+00  0.00000000000E+00  0.12572803873E+04  0.12572803873E+04  0.00000000000E+00 0. -1.
          1   -1    0    0  501    0 -0.00000000000E+00 -0.00000000000E+00 -0.66845856731E+03  0.66845856731E+03  0.00000000000E+00 0. -1.
         25    2    1    2    0    0 -0.15999942379E+03  0.82779871353E+02  0.24337348359E+03  0.32757997428E+03  0.12500265726E+03 0.  0.
          2    1    1    2  501    0  0.10388945594E+03 -0.11103066206E+03 -0.61608689260E+03  0.63457378311E+03  0.00000000000E+00 0. -1.
          1    1    1    2  502    0  0.56109967849E+02  0.28250790712E+02  0.96153522903E+03  0.96358519724E+03  0.00000000000E+00 0. -1.
         22    1    3    3    0    0 -0.79705916872E+02 -0.19571856261E+02  0.13625730313E+03  0.15906647478E+03  0.00000000000E+00 0.  1.
         22    1    3    3    0    0 -0.80293506920E+02  0.10235172761E+03  0.10711618045E+03  0.16851349950E+03  0.00000000000E+00 0.  1.
</event>
<event>
 7    1  0.6278987E-006  0.6506859E+02  0.7818608E-02  0.1381821E+00
          2   -1    0    0  502    0  0.00000000000E+00  0.00000000000E+00  0.26413914816E+04  0.26413914816E+04  0.00000000000E+00 0. -1.
          1   -1    0    0  501    0 -0.00000000000E+00 -0.00000000000E+00 -0.35491806858E+03  0.35491806858E+03  0.00000000000E+00 0. -1.
         25    2    1    2    0    0 -0.17520742795E+02 -0.75069902052E+01  0.83537795700E+03  0.84489309428E+03  0.12499871353E+03 0.  0.
          2    1    1    2  501    0  0.14777672659E+02 -0.63368305178E+02 -0.34643219083E+03  0.35248997794E+03  0.00000000000E+00 0. -1.
          1    1    1    2  502    0  0.27430701357E+01  0.70875295383E+02  0.17975276469E+04  0.17989264780E+04  0.00000000000E+00 0. -1.
         22    1    3    3    0    0 -0.13105218077E+02 -0.64427231022E+02  0.34553346224E+03  0.35173283664E+03  0.00000000000E+00 0.  1.
         22    1    3    3    0    0 -0.44155247186E+01  0.56920240817E+02  0.48984449476E+03  0.49316025764E+03  0.00000000000E+00 0.  1.
</event>
<event>
 7    1  0.6278987E-006  0.4103681E+02  0.7818608E-02  0.1563831E+00
          2   -1    0    0  502    0  0.00000000000E+00  0.00000000000E+00  0.24154701841E+04  0.24154701841E+04  0.00000000000E+00 0. -1.
          1   -1    0    0  501    0 -0.00000000000E+00 -0.00000000000E+00 -0.50265441978E+01  0.50265441978E+01  0.00000000000E+00 0. -1.
         25    2    1    2    0    0  0.33227778568E+02  0.11842342217E+02  0.10102047838E+04  0.10185187734E+04  0.12498984028E+03 0.  0.
          2    1    1    2  501    0  0.70134694735E+01 -0.26167513067E+02  0.54996445265E+03  0.55063129830E+03  0.00000000000E+00 0. -1.
          1    1    1    2  502    0 -0.40241248042E+02  0.14325170849E+02  0.85027440343E+03  0.85134665660E+03  0.00000000000E+00 0. -1.
         22    1    3    3    0    0  0.14054004360E+02  0.58095077302E+01  0.98965891576E+03  0.98977574984E+03  0.00000000000E+00 0.  1.
         22    1    3    3    0    0  0.19173774208E+02  0.60328344871E+01  0.20545868068E+02  0.28743023571E+02  0.00000000000E+00 0.  1.
</event>
<event>
 7    1  0.6278987E-006  0.7175552E+02  0.7818608E-02  0.1405689E+00
          2   -1    0    0  502    0  0.00000000000E+00  0.00000000000E+00  0.90602110632E+03  0.90602110632E+03  0.00000000000E+00 0. -1.
          1   -1    0    0  501    0 -0.00000000000E+00 -0.00000000000E+00 -0.46777377309E+03  0.46777377309E+03  0.00000000000E+00 0. -1.
         25    2    1    2    0    0 -0.10475592353E+03 -0.18879651451E+02  0.51866296852E+02  0.17217579915E+03  0.12499659319E+03 0.  0.
          2    1    1    2  501    0  0.43778584202E+02 -0.17513371187E+02 -0.40465961163E+03  0.40739745199E+03  0.00000000000E+00 0. -1.
          1    1    1    2  502    0  0.60977339332E+02  0.36393022638E+02  0.79104064800E+03  0.79422162826E+03  0.00000000000E+00 0. -1.
         22    1    3    3    0    0 -0.11852756374E+03  0.19799262791E+02  0.23967942474E+02  0.12253675546E+03  0.00000000000E+00 0.  1.
         22    1    3    3    0    0  0.13771640205E+02 -0.38678914242E+02  0.27898354379E+02  0.49639043684E+02  0.00000000000E+00 0.  1.
</event>
<event>
 7    1  0.6278987E-006  0.3398061E+02  0.7818608E-02  0.1645237E+00
          2   -1    0    0  502    0  0.00000000000E+00  0.00000000000E+00  0.16921061403E+04  0.16921061403E+04  0.00000000000E+00 0. -1.
          1   -1    0    0  501    0 -0.00000000000E+00 -0.00000000000E+00 -0.88842514255E+02  0.88842514255E+02  0.00000000000E+00 0. -1.
         25    2    1    2    0    0 -0.43359460819E+01  0.33869158592E+02  0.48770301335E+03  0.50462253202E+03  0.12499500096E+03 0.  0.
          2    1    1    2  501    0  0.22583907802E+02 -0.25445638183E+02 -0.76694256766E+02  0.83901861809E+02  0.00000000000E+00 0. -1.
          1    1    1    2  502    0 -0.18247961720E+02 -0.84235204085E+01  0.11922548695E+04  0.11924242607E+04  0.00000000000E+00 0. -1.
         22    1    3    3    0    0 -0.14632505145E+02 -0.42575582842E+02  0.26840407524E+03  0.27215351930E+03  0.00000000000E+00 0.  1.
         22    1    3    3    0    0  0.10296559064E+02  0.76444741434E+02  0.21929893810E+03  0.23246901272E+03  0.00000000000E+00 0.  1.
</event>
<event>
 7    1  0.6278987E-006  0.8628833E+02  0.7818608E-02  0.1456981E+00
          2   -1    0    0  502    0  0.00000000000E+00  0.00000000000E+00  0.62332517948E+03  0.62332517948E+03  0.00000000000E+00 0. -1.
          1   -1    0    0  501    0 -0.00000000000E+00 -0.00000000000E+00 -0.36342178224E+03  0.36342178224E+03  0.00000000000E+00 0. -1.
         25    2    1    2    0    0  0.39050830765E+02  0.88989485507E+02  0.59609837599E+02  0.16918474558E+03  0.12500419786E+03 0.  0.
          2    1    1    2  501    0 -0.26266189140E+02 -0.41716435697E+01 -0.30443624827E+03  0.30559572078E+03  0.00000000000E+00 0. -1.
          1    1    1    2  502    0 -0.12784641625E+02 -0.84817841938E+02  0.50472980791E+03  0.51196649535E+03  0.00000000000E+00 0. -1.
         22    1    3    3    0    0  0.73866410927E+01  0.63233404032E+02  0.95539002377E+02  0.11480734657E+03  0.00000000000E+00 0. -1.
         22    1    3    3    0    0  0.31664189672E+02  0.25756081475E+02 -0.35929164779E+02  0.54377399002E+02  0.00000000000E+00 0. -1.
</event>
<event>
 7    1  0.6278987E-006  0.2176908E+03  0.7818608E-02  0.1190659E+00
          2   -1    0    0  502    0  0.00000000000E+00  0.00000000000E+00  0.13423851268E+04  0.13423851268E+04  0.00000000000E+00 0. -1.
          1   -1    0    0  501    0 -0.00000000000E+00 -0.00000000000E+00 -0.13912415092E+04  0.13912415092E+04  0.00000000000E+00 0. -1.
         25    2    1    2    0    0 -0.29956571810E+02  0.10507079291E+03  0.11107243859E+03  0.19974568031E+03  0.12499592982E+03 0.  0.
          2    1    1    2  501    0  0.68513469524E+02 -0.21349445641E+03 -0.13347427462E+04  0.13534445600E+04  0.00000000000E+00 0. -1.
          1    1    1    2  502    0 -0.38556897714E+02  0.10842366349E+03  0.11748139252E+04  0.11804363956E+04  0.00000000000E+00 0. -1.
         22    1    3    3    0    0 -0.25432028557E+02  0.54760667624E+02  0.13193460329E+03  0.14509396383E+03  0.00000000000E+00 0. -1.
         22    1    3    3    0    0 -0.45245432526E+01  0.50310125288E+02 -0.20862164700E+02  0.54651716479E+02  0.00000000000E+00 0. -1.
</event>
<event>
 7    1  0.6278987E-006  0.1941628E+03  0.7818608E-02  0.1172371E+00
          2   -1    0    0  502    0  0.00000000000E+00  0.00000000000E+00  0.97179676180E+03  0.97179676180E+03  0.00000000000E+00 0. -1.
          1   -1    0    0  501    0 -0.00000000000E+00 -0.00000000000E+00 -0.20303690174E+04  0.20303690174E+04  0.00000000000E+00 0. -1.
         25    2    1    2    0    0 -0.26533838478E+03  0.21346336068E+03 -0.44088595752E+02  0.36543144923E+03  0.12500110008E+03 0.  0.
          2    1    1    2  501    0  0.13880018110E+03 -0.76275461385E+02 -0.18113718808E+04  0.18182825762E+04  0.00000000000E+00 0. -1.
          1    1    1    2  502    0  0.12653820368E+03 -0.13718789929E+03  0.79688822092E+03  0.81845175383E+03  0.00000000000E+00 0. -1.
         22    1    3    3    0    0 -0.10129973207E+03  0.11233823646E+03 -0.77321171644E+02  0.16988254375E+03  0.00000000000E+00 0. -1.
         22    1    3    3    0    0 -0.16403865271E+03  0.10112512422E+03  0.33232575891E+02  0.19554890548E+03  0.00000000000E+00 0. -1.
</event>
<event>
 7    1  0.6278987E-006  0.4425535E+02  0.7818608E-02  0.1503649E+00
          2   -1    0    0  502    0  0.00000000000E+00  0.00000000000E+00  0.26805271000E+03  0.26805271000E+03  0.00000000000E+00 0. -1.
          1   -1    0    0  501    0 -0.00000000000E+00 -0.00000000000E+00 -0.15208149474E+04  0.15208149474E+04  0.00000000000E+00 0. -1.
         25    2    1    2    0    0  0.24343935257E+02  0.66831096267E+02 -0.44573657301E+03  0.46836559101E+03  0.12500484675E+03 0.  0.
          2    1    1    2  501    0 -0.31275507912E+02 -0.30185105083E+02 -0.10619624676E+04  0.10628516268E+04  0.00000000000E+00 0. -1.
          1    1    1    2  502    0  0.69315726551E+01 -0.36645991184E+02  0.25493680323E+03  0.25765043957E+03  0.00000000000E+00 0. -1.
         22    1    3    3    0    0 -0.41425950349E+02  0.16414823708E+01 -0.69731500998E+02  0.81125125936E+02  0.00000000000E+00 0. -1.
         22    1    3    3    0    0  0.65769885606E+02  0.65189613896E+02 -0.37600507201E+03  0.38724046507E+03  0.00000000000E+00 0. -1.
</event>
<event>
 7    1  0.6278987E-006  0.2095331E+03  0.7818608E-02  0.1313229E+00
          2   -1    0    0  502    0  0.00000000000E+00  0.00000000000E+00  0.14137741681E+04  0.14137741681E+04  0.00000000000E+00 0. -1.
          1   -1    0    0  501    0 -0.00000000000E+00 -0.00000000000E+00 -0.37990303555E+03  0.37990303555E+03  0.00000000000E+00 0. -1.
         25    2    1    2    0    0 -0.21158290204E+03 -0.52388883271E+02 -0.22980212329E+03  0.34050880415E+03  0.12500124124E+03 0.  0.
          2    1    1    2  501    0  0.29317877843E+01  0.35050760954E+02 -0.83089857122E+02  0.90227909095E+02  0.00000000000E+00 0. -1.
          1    1    1    2  502    0  0.20865111426E+03  0.17338122317E+02  0.13467631130E+04  0.13629404904E+04  0.00000000000E+00 0. -1.
         22    1    3    3    0    0 -0.11741930758E+03 -0.70110360255E+02 -0.68645782968E+02  0.15301960635E+03  0.00000000000E+00 0.  1.
         22    1    3    3    0    0 -0.94163594459E+02  0.17721476984E+02 -0.16115634032E+03  0.18748919780E+03  0.00000000000E+00 0.  1.
</event>
<event>
 7    1  0.6278987E-006  0.4995937E+02  0.7818608E-02  0.1461394E+00
          2   -1    0    0  502    0  0.00000000000E+00  0.00000000000E+00  0.57608478376E+03  0.57608478376E+03  0.00000000000E+00 0. -1.
          1   -1    0    0  501    0 -0.00000000000E+00 -0.00000000000E+00 -0.21028486565E+03  0.21028486565E+03  0.00000000000E+00 0. -1.
         25    2    1    2    0    0 -0.34327369882E+02 -0.27621418394E+00  0.44880738798E+02  0.13717806354E+03  0.12500038314E+03 0.  0.
          2    1    1    2  501    0  0.26421032692E+02  0.44052007747E+02 -0.15906339205E+03  0.16715206563E+03  0.00000000000E+00 0. -1.
          1    1    1    2  502    0  0.79063371904E+01 -0.43775793563E+02  0.47998257136E+03  0.48203952024E+03  0.00000000000E+00 0. -1.
         22    1    3    3    0    0 -0.78477840998E+02  0.19245392794E+02  0.21929727921E+02  0.83726158626E+02  0.00000000000E+00 0.  1.
         22    1    3    3    0    0  0.44150471116E+02 -0.19521606978E+02  0.22951010877E+02  0.53451904915E+02  0.00000000000E+00 0.  1.
</event>
<event>
 7    1  0.6278987E-006  0.6524130E+02  0.7818608E-02  0.1409416E+00
          2   -1    0    0  502    0  0.00000000000E+00  0.00000000000E+00  0.97483486152E+03  0.97483486152E+03  0.00000000000E+00 0. -1.
          1   -1    0    0  501    0 -0.00000000000E+00 -0.00000000000E+00 -0.11303379182E+03  0.11303379182E+03  0.00000000000E+00 0. -1.
         25    2    1    2    0    0  0.24539904621E+02  0.87070493620E+02  0.61940307202E+03  0.63833291860E+03  0.12500108623E+03 0.  0.
          2    1    1    2  501    0 -0.48857470933E+02 -0.42961447476E+02 -0.91271645493E+02  0.11208591217E+03  0.00000000000E+00 0. -1.
          1    1    1    2  502    0  0.24317566312E+02 -0.44109046144E+02  0.33366964318E+03  0.33744982258E+03  0.00000000000E+00 0. -1.
         22    1    3    3    0    0 -0.88452033154E+00  0.10358109118E+03  0.29773517076E+03  0.31523968141E+03  0.00000000000E+00 0. -1.
         22    1    3    3    0    0  0.25424424952E+02 -0.16510597562E+02  0.32166790126E+03  0.32309323719E+03  0.00000000000E+00 0. -1.
</event>
<event>
 7    1  0.6278987E-006  0.7509234E+02  0.7818608E-02  0.1386309E+00
          2   -1    0    0  502    0  0.00000000000E+00  0.00000000000E+00  0.89746905900E+03  0.89746905900E+03  0.00000000000E+00 0. -1.
          1   -1    0    0  501    0 -0.00000000000E+00 -0.00000000000E+00 -0.17298933350E+03  0.17298933350E+03  0.00000000000E+00 0. -1.
         25    2    1    2    0    0 -0.30074661925E+02  0.11164974839E+03 -0.37885310768E+02  0.17444743591E+03  0.12500583794E+03 0.  0.
          2    1    1    2  501    0  0.36943853324E+02 -0.37409916701E+02 -0.54513611334E+02  0.75736939380E+02  0.00000000000E+00 0. -1.
          1    1    1    2  502    0 -0.68691913993E+01 -0.74239831691E+02  0.81687864760E+03  0.82027401721E+03  0.00000000000E+00 0. -1.
         22    1    3    3    0    0 -0.45797855432E+02  0.11525018025E+03 -0.67152102458E+02  0.14102997013E+03  0.00000000000E+00 0. -1.
         22    1    3    3    0    0  0.15723193507E+02 -0.36004318578E+01  0.29266791690E+02  0.33417465784E+02  0.00000000000E+00 0. -1.
</event>
<event>
 7    1  0.6278987E-006  0.7408109E+02  0.7818608E-02  0.1401749E+00
          2   -1    0    0  502    0  0.00000000000E+00  0.00000000000E+00  0.17350229232E+03  0.17350229232E+03  0.00000000000E+00 0. -1.
          1   -1    0    0  501    0 -0.00000000000E+00 -0.00000000000E+00 -0.99814755567E+03  0.99814755567E+03  0.00000000000E+00 0. -1.
         25    2    1    2    0    0  0.10807125359E+03 -0.13668940860E+01  0.15340648805E+02  0.16594946441E+03  0.12499049955E+03 0.  0.
          2    1    1    2  501    0 -0.68522593298E+02  0.26966679706E+02 -0.91454485643E+03  0.91750468230E+03  0.00000000000E+00 0. -1.
          1    1    1    2  502    0 -0.39548660297E+02 -0.25599785620E+02  0.74558944274E+02  0.88195701291E+02  0.00000000000E+00 0. -1.
         22    1    3    3    0    0  0.55466264271E+02 -0.63143434353E+02  0.99282208690E+01  0.84629600872E+02  0.00000000000E+00 0.  1.
         22    1    3    3    0    0  0.52604989323E+02  0.61776540267E+02  0.54124279361E+01  0.81319863534E+02  0.00000000000E+00 0.  1.
</event>
<event>
 7    1  0.6278987E-006  0.1038069E+03  0.7818608E-02  0.1463845E+00
          2   -1    0    0  502    0  0.00000000000E+00  0.00000000000E+00  0.18820033933E+04  0.18820033933E+04  0.00000000000E+00 0. -1.
          1   -1    0    0  501    0 -0.00000000000E+00 -0.00000000000E+00 -0.11561932495E+03  0.11561932495E+03  0.00000000000E+00 0. -1.
         25    2    1    2    0    0 -0.92826539909E+02  0.72114750430E+01  0.24897440853E+03  0.29374055892E+03  0.12500595172E+03 0.  0.
          2    1    1    2  501    0 -0.11373765035E+02 -0.17692016127E+02 -0.90324389374E+02  0.92740850123E+02  0.00000000000E+00 0. -1.
          1    1    1    2  502    0  0.10420030494E+03  0.10480541084E+02  0.16077340492E+04  0.16111413092E+04  0.00000000000E+00 0. -1.
         22    1    3    3    0    0  0.40262782342E+01  0.49774274837E+02  0.85727133971E+02  0.99211041981E+02  0.00000000000E+00 0.  1.
         22    1    3    3    0    0 -0.96852818143E+02 -0.42562799794E+02  0.16324727456E+03  0.19452951694E+03  0.00000000000E+00 0.  1.
</event>
<event>
 7    1  0.6278987E-006  0.4556116E+02  0.7818608E-02  0.1507253E+00
          2   -1    0    0  502    0  0.00000000000E+00  0.00000000000E+00  0.69501127731E+03  0.69501127731E+03  0.00000000000E+00 0. -1.
          1   -1    0    0  501    0 -0.00000000000E+00 -0.00000000000E+00 -0.93777392132E+02  0.93777392132E+02  0.00000000000E+00 0. -1.
         25    2    1    2    0    0 -0.49036318107E+02  0.93010432484E-01  0.22339721410E+03  0.26064497020E+03  0.12499966432E+03 0.  0.
          2    1    1    2  501    0  0.33147702239E+02 -0.31667995382E+02 -0.67396154132E+02  0.81509960662E+02  0.00000000000E+00 0. -1.
          1    1    1    2  502    0  0.15888615868E+02  0.31574984950E+02  0.44523282521E+03  0.44663373857E+03  0.00000000000E+00 0. -1.
         22    1    3    3    0    0 -0.32108304281E+02  0.15848499633E+02 -0.24777098272E+00  0.35807534610E+02  0.00000000000E+00 0.  1.
         22    1    3    3    0    0 -0.16928013826E+02 -0.15755489200E+02  0.22364498508E+03  0.22483743559E+03  0.00000000000E+00 0.  1.
</event>
<event>
 7    1  0.7713432E-006  0.7540710E+02  0.7818608E-02  0.1411633E+00
          2   -1    0    0  502    0  0.00000000000E+00  0.00000000000E+00  0.16033421791E+04  0.16033421791E+04  0.00000000000E+00 0. -1.
          1   -1    0    0  501    0 -0.00000000000E+00 -0.00000000000E+00 -0.63919796474E+03  0.63919796474E+03  0.00000000000E+00 0. -1.
         25    2    1    2    0    0 -0.62666213783E+02  0.37257438215E+02 -0.16982423040E+03  0.22311507588E+03  0.12499958720E+03 0.  0.
          2    1    1    2  501    0  0.34051593125E+02 -0.69127572583E+02 -0.43908145772E+03  0.44579216996E+03  0.00000000000E+00 0. -1.
          1    1    1    2  502    0  0.28614620658E+02  0.31870134368E+02  0.15730499025E+04  0.15736328980E+04  0.00000000000E+00 0. -1.
         22    1    3    3    0    0 -0.74838009231E+02  0.41758391699E+02 -0.43466720508E+02  0.96092906579E+02  0.00000000000E+00 0.  1.
         22    1    3    3    0    0  0.12171795448E+02 -0.45009534840E+01 -0.12635750990E+03  0.12702216930E+03  0.00000000000E+00 0.  1.
</event>
<event>
 7    1  0.6278987E-006  0.5344916E+02  0.7818608E-02  0.1443259E+00
          2   -1    0    0  502    0  0.00000000000E+00  0.00000000000E+00  0.26100121679E+03  0.26100121679E+03  0.00000000000E+00 0. -1.
          1   -1    0    0  501    0 -0.00000000000E+00 -0.00000000000E+00 -0.41010358669E+03  0.41010358669E+03  0.00000000000E+00 0. -1.
         25    2    1    2    0    0 -0.21834038706E+01  0.65390643645E+01 -0.14384046807E+03  0.19065397075E+03  0.12494530680E+03 0.  0.
          2    1    1    2  501    0  0.51792176296E+02  0.13355224179E+02 -0.23682985506E+03  0.24279450527E+03  0.00000000000E+00 0. -1.
          1    1    1    2  502    0 -0.49608772426E+02 -0.19894288544E+02  0.23156795323E+03  0.23765632746E+03  0.00000000000E+00 0. -1.
         22    1    3    3    0    0  0.60201923827E+02  0.13697846835E+02 -0.61993616354E+02  0.87493491810E+02  0.00000000000E+00 0. -1.
         22    1    3    3    0    0 -0.62385327698E+02 -0.71587824704E+01 -0.81846851718E+02  0.10316047894E+03  0.00000000000E+00 0. -1.
</event>
<event>
 7    1  0.6278987E-006  0.6247071E+03  0.7818608E-02  0.1080257E+00
          2   -1    0    0  502    0  0.00000000000E+00  0.00000000000E+00  0.11621545807E+04  0.11621545807E+04  0.00000000000E+00 0. -1.
          1   -1    0    0  501    0 -0.00000000000E+00 -0.00000000000E+00 -0.48437622350E+03  0.48437622350E+03  0.00000000000E+00 0. -1.
         25    2    1    2    0    0  0.18370450985E+03  0.68896023257E+03  0.32505730894E+03  0.79353632257E+03  0.12499636852E+03 0.  0.
          2    1    1    2  501    0  0.10644218940E+02 -0.15364863358E+03 -0.42522627872E+02  0.15977914720E+03  0.00000000000E+00 0. -1.
          1    1    1    2  502    0 -0.19434872879E+03 -0.53531159899E+03  0.39524367616E+03  0.69321533446E+03  0.00000000000E+00 0. -1.
         22    1    3    3    0    0  0.14896761407E+03  0.36747345615E+03  0.13728774858E+03  0.41961412861E+03  0.00000000000E+00 0. -1.
         22    1    3    3    0    0  0.34736895780E+02  0.32148677641E+03  0.18776956036E+03  0.37392219396E+03  0.00000000000E+00 0. -1.
</event>
<event>
 7    1  0.6278987E-006  0.1723255E+03  0.7818608E-02  0.1297290E+00
          2   -1    0    0  502    0  0.00000000000E+00  0.00000000000E+00  0.12849849343E+04  0.12849849343E+04  0.00000000000E+00 0. -1.
          1   -1    0    0  501    0 -0.00000000000E+00 -0.00000000000E+00 -0.11163491616E+03  0.11163491616E+03  0.00000000000E+00 0. -1.
         25    2    1    2    0    0 -0.49322562188E+02 -0.18803932226E+03  0.34452273449E+03  0.41486424644E+03  0.12499970616E+03 0.  0.
          2    1    1    2  501    0  0.45350103009E+02  0.19781115031E+02 -0.59638033463E+02  0.77489479222E+02  0.00000000000E+00 0. -1.
          1    1    1    2  502    0  0.39724591798E+01  0.16825820723E+03  0.88846531712E+03  0.90426612480E+03  0.00000000000E+00 0. -1.
         22    1    3    3    0    0 -0.32376288380E+02 -0.20030198418E+03  0.27173072556E+03  0.33912637192E+03  0.00000000000E+00 0.  1.
         22    1    3    3    0    0 -0.16946273809E+02  0.12262661924E+02  0.72792008933E+02  0.75737874528E+02  0.00000000000E+00 0.  1.
</event>
<event>
 7    1  0.6278987E-006  0.3696643E+02  0.7818608E-02  0.1539448E+00
          2   -1    0    0  502    0  0.00000000000E+00  0.00000000000E+00  0.25724200789E+03  0.25724200789E+03  0.00000000000E+00 0. -1.
          1   -1    0    0  501    0 -0.00000000000E+00 -0.00000000000E+00 -0.90289647603E+02  0.90289647603E+02  0.00000000000E+00 0. -1.
         25    2    1    2    0    0 -0.13568722361E+02 -0.53158102757E+01  0.13804620036E+03  0.18679820058E+03  0.12499778494E+03 0.  0.
          2    1    1    2  501    0  0.26451720540E+02 -0.27400123758E+02 -0.56634083180E+02  0.68248660640E+02  0.00000000000E+00 0. -1.
          1    1    1    2  502    0 -0.12882998178E+02  0.32715934034E+02  0.85540243100E+02  0.92484794271E+02  0.00000000000E+00 0. -1.
         22    1    3    3    0    0  0.42391118774E+02  0.26902006720E+02  0.99884460805E+02  0.11179280132E+03  0.00000000000E+00 0.  1.
         22    1    3    3    0    0 -0.55959841135E+02 -0.32217816995E+02  0.38161739557E+02  0.75005399258E+02  0.00000000000E+00 0.  1.
</event>
<event>
 7    1  0.6278987E-006  0.6506994E+02  0.7818608E-02  0.1528222E+00
          2   -1    0    0  502    0  0.00000000000E+00  0.00000000000E+00  0.42011742589E+03  0.42011742589E+03  0.00000000000E+00 0. -1.
          1   -1    0    0  501    0 -0.00000000000E+00 -0.00000000000E+00 -0.19293396226E+03  0.19293396226E+03  0.00000000000E+00 0. -1.
         25    2    1    2    0    0 -0.50480124711E+02  0.62377802514E+02  0.69209212357E+02  0.16387231773E+03  0.12499995282E+03 0.  0.
          2    1    1    2  501    0  0.29667719102E+02 -0.56974311240E+02 -0.13810872629E+03  0.15231633522E+03  0.00000000000E+00 0. -1.
          1    1    1    2  502    0  0.20812405609E+02 -0.54034912736E+01  0.29608297757E+03  0.29686273520E+03  0.00000000000E+00 0. -1.
         22    1    3    3    0    0 -0.14390846152E+02 -0.38189493043E+02  0.11322859468E+02  0.42352579359E+02  0.00000000000E+00 0. -1.
         22    1    3    3    0    0 -0.36089278559E+02  0.10056729556E+03  0.57886352889E+02  0.12151973837E+03  0.00000000000E+00 0. -1.
</event>
<event>
 7    1  0.6278987E-006  0.4749917E+02  0.7818608E-02  0.1531771E+00
          2   -1    0    0  502    0  0.00000000000E+00  0.00000000000E+00  0.26379121492E+04  0.26379121492E+04  0.00000000000E+00 0. -1.
          1   -1    0    0  501    0 -0.00000000000E+00 -0.00000000000E+00 -0.88753401011E+02  0.88753401011E+02  0.00000000000E+00 0. -1.
         25    2    1    2    0    0  0.50046546344E+01 -0.34711744459E+02  0.51101123767E+03  0.52724451977E+03  0.12499738730E+03 0.  0.
          2    1    1    2  501    0 -0.33764541388E+02  0.33782656040E+02 -0.73457322759E+02  0.87620148203E+02  0.00000000000E+00 0. -1.
          1    1    1    2  502    0  0.28759886753E+02  0.92908841903E+00  0.21116048333E+04  0.21118008822E+04  0.00000000000E+00 0. -1.
         22    1    3    3    0    0  0.38594493135E+02  0.24638516148E+02  0.92491169403E+02  0.10320468883E+03  0.00000000000E+00 0.  1.
         22    1    3    3    0    0 -0.33589838500E+02 -0.59350260607E+02  0.41852006827E+03  0.42403983095E+03  0.00000000000E+00 0.  1.
</event>
<event>
 7    1  0.6278987E-006  0.1555805E+03  0.7818608E-02  0.1343071E+00
          2   -1    0    0  502    0  0.00000000000E+00  0.00000000000E+00  0.16358173964E+04  0.16358173964E+04  0.00000000000E+00 0. -1.
          1   -1    0    0  501    0 -0.00000000000E+00 -0.00000000000E+00 -0.10309482103E+04  0.10309482103E+04  0.00000000000E+00 0. -1.
         25    2    1    2    0    0  0.88764486900E+02  0.12644591691E+03  0.88805972604E+03  0.91002365010E+03  0.12500105078E+03 0.  0.
          2    1    1    2  501    0 -0.11663178497E+03 -0.10302064060E+03 -0.10135747030E+04  0.10254510735E+04  0.00000000000E+00 0. -1.
          1    1    1    2  502    0  0.27867298070E+02 -0.23425276308E+02  0.73038416310E+03  0.73129088302E+03  0.00000000000E+00 0. -1.
         22    1    3    3    0    0  0.11687233691E+03  0.77968039662E+02  0.69174466135E+03  0.70586743434E+03  0.00000000000E+00 0.  1.
         22    1    3    3    0    0 -0.28107850006E+02  0.48477877245E+02  0.19631506468E+03  0.20415621576E+03  0.00000000000E+00 0.  1.
</event>
<event>
 7    1  0.7117130E-006  0.1418613E+03  0.7818608E-02  0.1285039E+00
          2   -1    0    0  502    0  0.00000000000E+00  0.00000000000E+00  0.17086667523E+04  0.17086667523E+04  0.00000000000E+00 0. -1.
          1   -1    0    0  501    0 -0.00000000000E+00 -0.00000000000E+00 -0.52125985112E+03  0.52125985112E+03  0.00000000000E+00 0. -1.
         25    2    1    2    0    0  0.91583996734E+02  0.34716375856E+02  0.78569439811E+01  0.15899565058E+03  0.12500012050E+03 0.  0.
          2    1    1    2  501    0  0.52267958273E+02 -0.42543417950E+02 -0.43992682273E+03  0.44505897501E+03  0.00000000000E+00 0. -1.
          1    1    1    2  502    0 -0.14385195501E+03  0.78270420937E+01  0.16194767799E+04  0.16258719778E+04  0.00000000000E+00 0. -1.
         22    1    3    3    0    0  0.65853314566E+02  0.81745554410E+02  0.12205738395E+01  0.10497849544E+03  0.00000000000E+00 0.  1.
         22    1    3    3    0    0  0.25730682168E+02 -0.47029178555E+02  0.66363701416E+01  0.54017155136E+02  0.00000000000E+00 0.  1.
</event>
<event>
 7    1  0.6278987E-006  0.1753744E+03  0.7818608E-02  0.1221320E+00
          2   -1    0    0  502    0  0.00000000000E+00  0.00000000000E+00  0.17822465891E+04  0.17822465891E+04  0.00000000000E+00 0. -1.
          1   -1    0    0  501    0 -0.00000000000E+00 -0.00000000000E+00 -0.77135574236E+02  0.77135574236E+02  0.00000000000E+00 0. -1.
         25    2    1    2    0    0 -0.63062799209E+02 -0.66869940589E+02  0.13385775672E+03  0.20491784775E+03  0.12499967878E+03 0.  0.
          2    1    1    2  501    0 -0.29771592712E+02 -0.98320302193E+02  0.37977601582E+02  0.10952409679E+03  0.00000000000E+00 0. -1.
          1    1    1    2  502    0  0.92834391922E+02  0.16519024278E+03  0.15332756566E+04  0.15449402188E+04  0.00000000000E+00 0. -1.
         22    1    3    3    0    0 -0.86330990964E+02 -0.88304888769E+02  0.10804545468E+03  0.16408721357E+03  0.00000000000E+00 0. -1.
         22    1    3    3    0    0  0.23268191755E+02  0.21434948180E+02  0.25812302039E+02  0.40830634180E+02  0.00000000000E+00 0. -1.
</event>
<event>
 7    1  0.6278987E-006  0.9014353E+02  0.7818608E-02  0.1367402E+00
          2   -1    0    0  502    0  0.00000000000E+00  0.00000000000E+00  0.96251620808E+03  0.96251620808E+03  0.00000000000E+00 0. -1.
          1   -1    0    0  501    0 -0.00000000000E+00 -0.00000000000E+00 -0.20357142807E+03  0.20357142807E+03  0.00000000000E+00 0. -1.
         25    2    1    2    0    0 -0.58016202425E+02  0.89295948074E+02  0.24984038088E+03  0.29897264865E+03  0.12499913054E+03 0.  0.
          2    1    1    2  501    0  0.68807966785E+01 -0.89718396410E+02 -0.16666995100E+03  0.18940857579E+03  0.00000000000E+00 0. -1.
          1    1    1    2  502    0  0.51135405746E+02  0.42244833592E+00  0.67577435013E+03  0.67770641172E+03  0.00000000000E+00 0. -1.
         22    1    3    3    0    0 -0.68458939719E+02  0.84035323480E+02  0.26112191801E+03  0.28272463297E+03  0.00000000000E+00 0.  1.
         22    1    3    3    0    0  0.10442737295E+02  0.52606245937E+01 -0.11281537137E+02  0.16248015679E+02  0.00000000000E+00 0.  1.
</event>
<event>
 7    1  0.6278987E-006  0.1777994E+03  0.7818608E-02  0.1360574E+00
          2   -1    0    0  502    0  0.00000000000E+00  0.00000000000E+00  0.65763788850E+03  0.65763788850E+03  0.00000000000E+00 0. -1.
          1   -1    0    0  501    0 -0.00000000000E+00 -0.00000000000E+00 -0.86672662176E+03  0.86672662176E+03  0.00000000000E+00 0. -1.
         25    2    1    2    0    0 -0.18330830438E+02  0.16065429941E+03 -0.31189646951E+02  0.20673891246E+03  0.12498944189E+03 0.  0.
          2    1    1    2  501    0  0.41725043237E+02 -0.17501062999E+03 -0.73659835912E+03  0.75825249258E+03  0.00000000000E+00 0. -1.
          1    1    1    2  502    0 -0.23394212799E+02  0.14356330581E+02  0.55869927280E+03  0.55937310523E+03  0.00000000000E+00 0. -1.
         22    1    3    3    0    0  0.44353806739E+02  0.89402460786E+02  0.15462853988E+02  0.10099089078E+03  0.00000000000E+00 0.  1.
         22    1    3    3    0    0 -0.62684637178E+02  0.71251838622E+02 -0.46652500940E+02  0.10574802168E+03  0.00000000000E+00 0.  1.
</event>
<event>
 7    1  0.6278987E-006  0.5556602E+02  0.7818608E-02  0.1515815E+00
          2   -1    0    0  502    0  0.00000000000E+00  0.00000000000E+00  0.15826744774E+04  0.15826744774E+04  0.00000000000E+00 0. -1.
          1   -1    0    0  501    0 -0.00000000000E+00 -0.00000000000E+00 -0.46667045396E+03  0.46667045396E+03  0.00000000000E+00 0. -1.
         25    2    1    2    0    0 -0.32002989012E+02 -0.12949082008E+02  0.59542567029E+02  0.14270112494E+03  0.12500569483E+03 0.  0.
          2    1    1    2  501    0 -0.23860970016E+02  0.13371323600E+02 -0.42412384880E+03  0.42500491445E+03  0.00000000000E+00 0. -1.
          1    1    1    2  502    0  0.55863959029E+02 -0.42224159222E+00  0.14805853052E+04  0.14816388920E+04  0.00000000000E+00 0. -1.
         22    1    3    3    0    0  0.22499678665E+02 -0.41510817085E+02 -0.11619249646E+02  0.48624998071E+02  0.00000000000E+00 0.  1.
         22    1    3    3    0    0 -0.54502667677E+02  0.28561735077E+02  0.71161816675E+02  0.94076126871E+02  0.00000000000E+00 0.  1.
</event>
<event>
 7    1  0.6278987E-006  0.3100165E+03  0.7818608E-02  0.1280019E+00
          2   -1    0    0  502    0  0.00000000000E+00  0.00000000000E+00  0.56799378341E+03  0.56799378341E+03  0.00000000000E+00 0. -1.
          1   -1    0    0  501    0 -0.00000000000E+00 -0.00000000000E+00 -0.34936851305E+03  0.34936851305E+03  0.00000000000E+00 0. -1.
         25    2    1    2    0    0 -0.22603840025E+03 -0.19611419251E+03  0.68349022943E+02  0.33143877336E+03  0.12500374657E+03 0.  0.
          2    1    1    2  501    0 -0.30300717810E+02  0.11306614479E+02 -0.14792944560E+03  0.15142355797E+03  0.00000000000E+00 0. -1.
          1    1    1    2  502    0  0.25633911806E+03  0.18480757804E+03  0.29820569302E+03  0.43449996513E+03  0.00000000000E+00 0. -1.
         22    1    3    3    0    0 -0.37499914855E+02 -0.30307490723E+02  0.64250953050E+02  0.80330396338E+02  0.00000000000E+00 0. -1.
         22    1    3    3    0    0 -0.18853848540E+03 -0.16580670179E+03  0.40980698938E+01  0.25110837703E+03  0.00000000000E+00 0. -1.
</event>
<event>
 7    1  0.6278987E-006  0.1266350E+03  0.7818608E-02  0.1434412E+00
          2   -1    0    0  502    0  0.00000000000E+00  0.00000000000E+00  0.21736286202E+04  0.21736286202E+04  0.00000000000E+00 0. -1.
          1   -1    0    0  501    0 -0.00000000000E+00 -0.00000000000E+00 -0.33019143403E+03  0.33019143403E+03  0.00000000000E+00 0. -1.
         25    2    1    2    0    0  0.67490340115E+02 -0.98700893841E+02  0.10431147874E+03  0.20199422142E+03  0.12499587368E+03 0.  0.
          2    1    1    2  501    0 -0.13806288958E+02 -0.16379744886E+02 -0.27894370528E+03  0.27976508069E+03  0.00000000000E+00 0. -1.
          1    1    1    2  502    0 -0.53684051157E+02  0.11508063873E+03  0.20180694127E+04  0.20220607521E+04  0.00000000000E+00 0. -1.
         22    1    3    3    0    0  0.44208587348E+02 -0.81742521516E+02  0.13240225666E+03  0.16176092417E+03  0.00000000000E+00 0. -1.
         22    1    3    3    0    0  0.23281752767E+02 -0.16958372325E+02 -0.28090777919E+02  0.40233297254E+02  0.00000000000E+00 0. -1.
</event>
<event>
 7    1  0.6278987E-006  0.5838278E+02  0.7818608E-02  0.1450206E+00
          2   -1    0    0  502    0  0.00000000000E+00  0.00000000000E+00  0.25777658269E+02  0.25777658269E+02  0.00000000000E+00 0. -1.
          1   -1    0    0  501    0 -0.00000000000E+00 -0.00000000000E+00 -0.10519231250E+04  0.10519231250E+04  0.00000000000E+00 0. -1.
         25    2    1    2    0    0 -0.34011424259E+02 -0.85577130790E+02 -0.44962883814E+03  0.47568041573E+03  0.12500217407E+03 0.  0.
          2    1    1    2  501    0  0.29273561620E+01  0.41204966077E+02 -0.52702368583E+03  0.52864012718E+03  0.00000000000E+00 0. -1.
          1    1    1    2  502    0  0.31084068097E+02  0.44372164713E+02 -0.49492942733E+02  0.73380240332E+02  0.00000000000E+00 0. -1.
         22    1    3    3    0    0 -0.28971078763E+02 -0.16118402247E+02 -0.16580422676E+02  0.37068001185E+02  0.00000000000E+00 0.  1.
         22    1    3    3    0    0 -0.50403454963E+01 -0.69458728543E+02 -0.43304841546E+03  0.43861241454E+03  0.00000000000E+00 0.  1.
</event>
<event>
 7    1  0.6278987E-006  0.7721603E+02  0.7818608E-02  0.1353910E+00
          2   -1    0    0  502    0  0.00000000000E+00  0.00000000000E+00  0.25610733108E+04  0.25610733108E+04  0.00000000000E+00 0. -1.
          1   -1    0    0  501    0 -0.00000000000E+00 -0.00000000000E+00 -0.32667944514E+03  0.32667944514E+03  0.00000000000E+00 0. -1.
         25    2    1    2    0    0 -0.43610081509E+02 -0.13522754656E+03  0.13890510853E+03  0.23474887427E+03  0.12499630490E+03 0.  0.
          2    1    1    2  501    0  0.26866542734E+02  0.70499801734E+02 -0.27317239118E+03  0.28339934450E+03  0.00000000000E+00 0. -1.
          1    1    1    2  502    0  0.16743538775E+02  0.64727744821E+02  0.23686611483E+04  0.23696045372E+04  0.00000000000E+00 0. -1.
         22    1    3    3    0    0  0.30214414716E+02 -0.57206412533E+02  0.76506149142E+01  0.65146115771E+02  0.00000000000E+00 0.  1.
         22    1    3    3    0    0 -0.73824496225E+02 -0.78021134022E+02  0.13125449361E+03  0.16960275850E+03  0.00000000000E+00 0.  1.
</event>
<event>
 7    1  0.6278987E-006  0.1058724E+03  0.7818608E-02  0.1370308E+00
          2   -1    0    0  502    0  0.00000000000E+00  0.00000000000E+00  0.50892348331E+03  0.50892348331E+03  0.00000000000E+00 0. -1.
          1   -1    0    0  501    0 -0.00000000000E+00 -0.00000000000E+00 -0.96979923738E+03  0.96979923738E+03  0.00000000000E+00 0. -1.
         25    2    1    2    0    0  0.13724071188E+02  0.72490381518E+02  0.12418483112E+03  0.19102241810E+03  0.12499794557E+03 0.  0.
          2    1    1    2  501    0  0.20050860701E+02  0.37476730693E+02 -0.92646314174E+03  0.92743759648E+03  0.00000000000E+00 0. -1.
          1    1    1    2  502    0 -0.33774931889E+02 -0.10996711221E+03  0.34140255655E+03  0.36026270611E+03  0.00000000000E+00 0. -1.
         22    1    3    3    0    0  0.62931818720E+02  0.87072369095E+01  0.66288560028E+02  0.91817225903E+02  0.00000000000E+00 0. -1.
         22    1    3    3    0    0 -0.49207747532E+02  0.63783144609E+02  0.57896271088E+02  0.99205192199E+02  0.00000000000E+00 0. -1.
</event>
<event>
 7    1  0.6278987E-006  0.9448066E+02  0.7818608E-02  0.1402829E+00
          2   -1    0    0  502    0  0.00000000000E+00  0.00000000000E+00  0.32780622544E+03  0.32780622544E+03  0.00000000000E+00 0. -1.
          1   -1    0    0  501    0 -0.00000000000E+00 -0.00000000000E+00 -0.68704886503E+02  0.68704886503E+02  0.00000000000E+00 0. -1.
         25    2    1    2    0    0  0.64242898733E+02 -0.32443519154E+02  0.16125085048E+03  0.21634792261E+03  0.12499941945E+03 0.  0.
          2    1    1    2  501    0 -0.10042545353E+03  0.26765110089E+02  0.39324535272E+02  0.11112183363E+03  0.00000000000E+00 0. -1.
          1    1    1    2  502    0  0.36182554798E+02  0.56784090657E+01  0.58525953185E+02  0.69041355704E+02  0.00000000000E+00 0. -1.
         22    1    3    3    0    0 -0.35751514299E+01 -0.98660452557E+01 -0.19407783960E+02  0.22063151066E+02  0.00000000000E+00 0.  1.
         22    1    3    3    0    0  0.67818050163E+02 -0.22577473899E+02  0.18065863444E+03  0.19428477154E+03  0.00000000000E+00 0.  1.
</event>
<event>
 7    1  0.6278987E-006  0.1004751E+03  0.7818608E-02  0.1388930E+00
          2   -1    0    0  502    0  0.00000000000E+00  0.00000000000E+00  0.31927066581E+03  0.31927066581E+03  0.00000000000E+00 0. -1.
          1   -1    0    0  501    0 -0.00000000000E+00 -0.00000000000E+00 -0.21144575138E+03  0.21144575138E+03  0.00000000000E+00 0. -1.
         25    2    1    2    0    0  0.60608135182E+02  0.10534447163E+03  0.69057883626E+02  0.18752415578E+03  0.12500205581E+03 0.  0.
          2    1    1    2  501    0  0.84673161280E+01 -0.37529394516E+02 -0.13712669016E+03  0.14242148732E+03  0.00000000000E+00 0. -1.
          1    1    1    2  502    0 -0.69075451310E+02 -0.67815077112E+02  0.17589372096E+03  0.20077077410E+03  0.00000000000E+00 0. -1.
         22    1    3    3    0    0 -0.35620435504E+02  0.55441772567E+02  0.28259610455E+02  0.71702239532E+02  0.00000000000E+00 0.  1.
         22    1    3    3    0    0  0.96228570685E+02  0.49902699062E+02  0.40798273170E+02  0.11582191625E+03  0.00000000000E+00 0.  1.
</event>
<event>
 7    1  0.6278987E-006  0.5712548E+02  0.7818608E-02  0.1441789E+00
          2   -1    0    0  502    0  0.00000000000E+00  0.00000000000E+00  0.32629852651E+02  0.32629852651E+02  0.00000000000E+00 0. -1.
          1   -1    0    0  501    0 -0.00000000000E+00 -0.00000000000E+00 -0.26035425490E+04  0.26035425490E+04  0.00000000000E+00 0. -1.
         25    2    1    2    0    0  0.31742132580E+02 -0.78859267936E+02 -0.93041371581E+03  0.94261384501E+03  0.12499932444E+03 0.  0.
          2    1    1    2  501    0 -0.38752823890E+02  0.22745008698E+02 -0.16362302810E+04  0.16368471674E+04  0.00000000000E+00 0. -1.
          1    1    1    2  502    0  0.70106913100E+01  0.56114259238E+02 -0.42686995564E+01  0.56711389318E+02  0.00000000000E+00 0. -1.
         22    1    3    3    0    0 -0.42097913258E+02 -0.58275867023E+02 -0.53812094394E+03  0.54290188919E+03  0.00000000000E+00 0.  1.
         22    1    3    3    0    0  0.73840045839E+02 -0.20583400914E+02 -0.39229277187E+03  0.39971195582E+03  0.00000000000E+00 0.  1.
</event>
<event>
 7    1  0.6278987E-006  0.1433281E+03  0.7818608E-02  0.1420654E+00
          2   -1    0    0  502    0  0.00000000000E+00  0.00000000000E+00  0.14965979544E+04  0.14965979544E+04  0.00000000000E+00 0. -1.
          1   -1    0    0  501    0 -0.00000000000E+00 -0.00000000000E+00 -0.10782473612E+04  0.10782473612E+04  0.00000000000E+00 0. -1.
         25    2    1    2    0    0  0.99934980691E+02  0.85335950608E+02  0.12678886987E+04  0.12807969608E+04  0.12501950905E+03 0.  0.
          2    1    1    2  501    0 -0.96473968028E+02 -0.10606454569E+03 -0.10664882304E+04  0.10760827384E+04  0.00000000000E+00 0. -1.
          1    1    1    2  502    0 -0.34610126629E+01  0.20728595078E+02  0.21695012481E+03  0.21796561636E+03  0.00000000000E+00 0. -1.
         22    1    3    3    0    0  0.58613712079E+02 -0.16687430891E+02  0.26663906322E+03  0.27351494955E+03  0.00000000000E+00 0.  1.
         22    1    3    3    0    0  0.41321268611E+02  0.10202338150E+03  0.10012496355E+04  0.10072820113E+04  0.00000000000E+00 0.  1.
</event>
<event>
 7    1  0.6278987E-006  0.9600307E+02  0.7818608E-02  0.1336489E+00
          2   -1    0    0  502    0  0.00000000000E+00  0.00000000000E+00  0.38340762254E+03  0.38340762254E+03  0.00000000000E+00 0. -1.
          1   -1    0    0  501    0 -0.00000000000E+00 -0.00000000000E+00 -0.71539487681E+03  0.71539487681E+03  0.00000000000E+00 0. -1.
         25    2    1    2    0    0 -0.13634882131E+03  0.25548008572E+02 -0.16372440720E+03  0.24835247487E+03  0.12501827245E+03 0.  0.
          2    1    1    2  501    0  0.43398326731E+02 -0.44920376134E+02 -0.50077104544E+03  0.50465126068E+03  0.00000000000E+00 0. -1.
          1    1    1    2  502    0  0.92950494578E+02  0.19372367562E+02  0.33250819837E+03  0.34579876381E+03  0.00000000000E+00 0. -1.
         22    1    3    3    0    0 -0.46535312967E+02  0.67747474787E+00  0.13207229816E+02  0.48377941713E+02  0.00000000000E+00 0.  1.
         22    1    3    3    0    0 -0.89813508342E+02  0.24870533824E+02 -0.17693163702E+03  0.19997453316E+03  0.00000000000E+00 0.  1.
</event>
<event>
 7    1  0.6278987E-006  0.3357261E+03  0.7818608E-02  0.1145041E+00
          2   -1    0    0  502    0  0.00000000000E+00  0.00000000000E+00  0.36752151429E+03  0.36752151429E+03  0.00000000000E+00 0. -1.
          1   -1    0    0  501    0 -0.00000000000E+00 -0.00000000000E+00 -0.28402820793E+04  0.28402820793E+04  0.00000000000E+00 0. -1.
         25    2    1    2    0    0  0.49431714735E+02  0.42101085478E+03 -0.22836922447E+02  0.44253876557E+03  0.12500159896E+03 0.  0.
          2    1    1    2  501    0  0.37352536296E+02 -0.32966763042E+03 -0.25699332202E+04  0.25912608350E+04  0.00000000000E+00 0. -1.
          1    1    1    2  502    0 -0.86784251032E+02 -0.91343224355E+02  0.12000957765E+03  0.17400399303E+03  0.00000000000E+00 0. -1.
         22    1    3    3    0    0 -0.18549307656E+01  0.14741060675E+03  0.48468655763E+02  0.15518549656E+03  0.00000000000E+00 0.  1.
         22    1    3    3    0    0  0.51286645501E+02  0.27360024803E+03 -0.71305578210E+02  0.28735326901E+03  0.00000000000E+00 0.  1.
</event>
<event>
 7    1  0.6278987E-006  0.7382581E+02  0.7818608E-02  0.1370324E+00
          2   -1    0    0  502    0  0.00000000000E+00  0.00000000000E+00  0.57751401845E+03  0.57751401845E+03  0.00000000000E+00 0. -1.
          1   -1    0    0  501    0 -0.00000000000E+00 -0.00000000000E+00 -0.10461807105E+03  0.10461807105E+03  0.00000000000E+00 0. -1.
         25    2    1    2    0    0 -0.10007318249E+03 -0.47785691879E+02  0.10167931637E+03  0.19561014894E+03  0.12500613099E+03 0.  0.
          2    1    1    2  501    0  0.39922330222E+02  0.57594328293E+02 -0.33196079250E+02  0.77542754526E+02  0.00000000000E+00 0. -1.
          1    1    1    2  502    0  0.60150852272E+02 -0.98086364143E+01  0.40441271028E+03  0.40897918604E+03  0.00000000000E+00 0. -1.
         22    1    3    3    0    0 -0.11094042601E+03 -0.76127792796E+02  0.69741923769E+02  0.15154918308E+03  0.00000000000E+00 0.  1.
         22    1    3    3    0    0  0.10867243519E+02  0.28342100917E+02  0.31937392604E+02  0.44060965859E+02  0.00000000000E+00 0.  1.
</event>
<event>
 7    1  0.6278987E-006  0.5795703E+02  0.7818608E-02  0.1489108E+00
          2   -1    0    0  502    0  0.00000000000E+00  0.00000000000E+00  0.90631657950E+02  0.90631657950E+02  0.00000000000E+00 0. -1.
          1   -1    0    0  501    0 -0.00000000000E+00 -0.00000000000E+00 -0.31612049457E+03  0.31612049457E+03  0.00000000000E+00 0. -1.
         25    2    1    2    0    0 -0.73237495978E+02 -0.22419852258E+02 -0.21202240911E+03  0.25775178176E+03  0.12496438870E+03 0.  0.
          2    1    1    2  501    0  0.51753816553E+02 -0.59888506185E+00 -0.68344559791E+02  0.85730945662E+02  0.00000000000E+00 0. -1.
          1    1    1    2  502    0  0.21483679426E+02  0.23018737320E+02  0.54878132281E+02  0.63269425097E+02  0.00000000000E+00 0. -1.
         22    1    3    3    0    0 -0.37478429685E+02  0.51836637146E+02 -0.86263848015E+02  0.10739236992E+03  0.00000000000E+00 0.  1.
         22    1    3    3    0    0 -0.35759066293E+02 -0.74256489405E+02 -0.12575856110E+03  0.15035941185E+03  0.00000000000E+00 0.  1.
</event>
<event>
 7    1  0.6278987E-006  0.1334372E+03  0.7818608E-02  0.1259404E+00
          2   -1    0    0  502    0  0.00000000000E+00  0.00000000000E+00  0.28674641978E+04  0.28674641978E+04  0.00000000000E+00 0. -1.
          1   -1    0    0  501    0 -0.00000000000E+00 -0.00000000000E+00 -0.28833629093E+03  0.28833629093E+03  0.00000000000E+00 0. -1.
         25    2    1    2    0    0  0.13114834207E+03  0.97895699303E+02  0.10759180584E+02  0.20621434918E+03  0.12500056909E+03 0.  0.
          2    1    1    2  501    0 -0.87317037375E+02  0.28091116332E+02 -0.17786041236E+03  0.20011921976E+03  0.00000000000E+00 0. -1.
          1    1    1    2  502    0 -0.43831304694E+02 -0.12598681563E+03  0.27462291387E+04  0.27494669198E+04  0.00000000000E+00 0. -1.
         22    1    3    3    0    0  0.13318613410E+03  0.11312899970E+03  0.34318149551E+02  0.17808551956E+03  0.00000000000E+00 0.  1.
         22    1    3    3    0    0 -0.20377920276E+01 -0.15233300393E+02 -0.23558968967E+02  0.28128829624E+02  0.00000000000E+00 0.  1.
</event>
<event>
 7    1  0.6278987E-006  0.9877742E+02  0.7818608E-02  0.1322393E+00
          2   -1    0    0  502    0  0.00000000000E+00  0.00000000000E+00  0.29178374435E+04  0.29178374435E+04  0.00000000000E+00 0. -1.
          1   -1    0    0  501    0 -0.00000000000E+00 -0.00000000000E+00 -0.11913777928E+04  0.11913777928E+04  0.00000000000E+00 0. -1.
         25    2    1    2    0    0  0.10846527948E+03 -0.67498815750E+02  0.20463627386E+03  0.27168844069E+03  0.12497118566E+03 0.  0.
          2    1    1    2  501    0 -0.99581605460E+01  0.68001845885E+02 -0.11559253748E+04  0.11579667043E+04  0.00000000000E+00 0. -1.
          1    1    1    2  502    0 -0.98507118930E+02 -0.50303013525E+00  0.26777487517E+04  0.26795600913E+04  0.00000000000E+00 0. -1.
         22    1    3    3    0    0  0.46042990434E+02 -0.95177636305E+02  0.15345699925E+03  0.18635393755E+03  0.00000000000E+00 0. -1.
         22    1    3    3    0    0  0.62422289042E+02  0.27678820555E+02  0.51179274605E+02  0.85334503137E+02  0.00000000000E+00 0. -1.
</event>
<event>
 7    1  0.6278987E-006  0.4597197E+02  0.7818608E-02  0.1487191E+00
          2   -1    0    0  502    0  0.00000000000E+00  0.00000000000E+00  0.98694258023E+03  0.98694258023E+03  0.00000000000E+00 0. -1.
          1   -1    0    0  501    0 -0.00000000000E+00 -0.00000000000E+00 -0.35426476842E+02  0.35426476842E+02  0.00000000000E+00 0. -1.
         25    2    1    2    0    0  0.48895228263E+01  0.41813590089E+02  0.35666170113E+03  0.38027000350E+03  0.12500169102E+03 0.  0.
          2    1    1    2  501    0 -0.39226119291E+02 -0.89339868947E+01 -0.48422516522E+01  0.40521006373E+02  0.00000000000E+00 0. -1.
          1    1    1    2  502    0  0.34336596465E+02 -0.32879603195E+02  0.59969665391E+03  0.60157804720E+03  0.00000000000E+00 0. -1.
         22    1    3    3    0    0  0.38864151585E+02 -0.17835106740E+02  0.24858174800E+03  0.25223282647E+03  0.00000000000E+00 0.  1.
         22    1    3    3    0    0 -0.33974628759E+02  0.59648696830E+02  0.10807995313E+03  0.12803717703E+03  0.00000000000E+00 0.  1.
</event>
<event>
 7    1  0.6278987E-006  0.8207551E+02  0.7818608E-02  0.1339301E+00
          2   -1    0    0  502    0  0.00000000000E+00  0.00000000000E+00  0.48456891778E+03  0.48456891778E+03  0.00000000000E+00 0. -1.
          1   -1    0    0  501    0 -0.00000000000E+00 -0.00000000000E+00 -0.39131674726E+03  0.39131674726E+03  0.00000000000E+00 0. -1.
         25    2    1    2    0    0  0.85334845852E+02  0.15602112859E+02 -0.91296593083E+02  0.17744339372E+03  0.12500251287E+03 0.  0.
          2    1    1    2  501    0 -0.67026278742E+02  0.53302416564E+02 -0.24680301741E+03  0.26123820367E+03  0.00000000000E+00 0. -1.
          1    1    1    2  502    0 -0.18308567110E+02 -0.68904529423E+02  0.43135178100E+03  0.43720406766E+03  0.00000000000E+00 0. -1.
         22    1    3    3    0    0 -0.11843910630E+02  0.24625079097E+02 -0.73265083266E+02  0.78194917773E+02  0.00000000000E+00 0. -1.
         22    1    3    3    0    0  0.97178756482E+02 -0.90229662377E+01 -0.18031509817E+02  0.99248475945E+02  0.00000000000E+00 0. -1.
</event>
<event>
 7    1  0.6278987E-006  0.7917077E+02  0.7818608E-02  0.1405520E+00
          2   -1    0    0  502    0  0.00000000000E+00  0.00000000000E+00  0.10000882385E+04  0.10000882385E+04  0.00000000000E+00 0. -1.
          1   -1    0    0  501    0 -0.00000000000E+00 -0.00000000000E+00 -0.20915659760E+02  0.20915659760E+02  0.00000000000E+00 0. -1.
         25    2    1    2    0    0 -0.69583648125E+02 -0.39529166098E+02  0.61795162659E+03  0.63552271067E+03  0.12498185432E+03 0.  0.
          2    1    1    2  501    0  0.27982933755E+02 -0.32374794133E+02  0.64912409786E+02  0.77748265710E+02  0.00000000000E+00 0. -1.
          1    1    1    2  502    0  0.41600714370E+02  0.71903960231E+02  0.29630854235E+03  0.30773292187E+03  0.00000000000E+00 0. -1.
         22    1    3    3    0    0 -0.37102858235E+02 -0.15240171598E+02  0.57518748616E+03  0.57658436430E+03  0.00000000000E+00 0.  1.
         22    1    3    3    0    0 -0.32480789891E+02 -0.24288994500E+02  0.42764140429E+02  0.58938346366E+02  0.00000000000E+00 0.  1.
</event>
<event>
 7    1  0.6278987E-006  0.5438778E+02  0.7818608E-02  0.1545220E+00
          2   -1    0    0  502    0  0.00000000000E+00  0.00000000000E+00  0.23944951885E+02  0.23944951885E+02  0.00000000000E+00 0. -1.
          1   -1    0    0  501    0 -0.00000000000E+00 -0.00000000000E+00 -0.65392361370E+03  0.65392361370E+03  0.00000000000E+00 0. -1.
         25    2    1    2    0    0  0.33434806233E+02 -0.67126124693E+02 -0.27264672178E+03  0.30916843386E+03  0.12500033085E+03 0.  0.
          2    1    1    2  501    0 -0.24597755071E+02  0.45870059339E+02 -0.32422738949E+03  0.32837861075E+03  0.00000000000E+00 0. -1.
          1    1    1    2  502    0 -0.88370511623E+01  0.21256065354E+02 -0.33104550535E+02  0.40321520975E+02  0.00000000000E+00 0. -1.
         22    1    3    3    0    0  0.32819205905E+02 -0.87062265408E+02 -0.10480789445E+03  0.14014861067E+03  0.00000000000E+00 0.  1.
         22    1    3    3    0    0  0.61560032883E+00  0.19936140715E+02 -0.16783882733E+03  0.16901982318E+03  0.00000000000E+00 0.  1.
</event>
<event>
 7    1  0.6278987E-006  0.1456726E+03  0.7818608E-02  0.1321174E+00
          2   -1    0    0  502    0  0.00000000000E+00  0.00000000000E+00  0.52237586825E+03  0.52237586825E+03  0.00000000000E+00 0. -1.
          1   -1    0    0  501    0 -0.00000000000E+00 -0.00000000000E+00 -0.74796436588E+03  0.74796436588E+03  0.00000000000E+00 0. -1.
         25    2    1    2    0    0  0.84432016222E+02 -0.16344727859E+03 -0.11861849550E+03  0.25206814613E+03  0.12499689828E+03 0.  0.
          2    1    1    2  501    0 -0.38122818850E+02  0.27679052230E+02 -0.55029939384E+03  0.55231232298E+03  0.00000000000E+00 0. -1.
          1    1    1    2  502    0 -0.46309197372E+02  0.13576822636E+03  0.44332939172E+03  0.46595976502E+03  0.00000000000E+00 0. -1.
         22    1    3    3    0    0 -0.72043513541E+01  0.37702428595E+01 -0.48074187401E+02  0.48756998512E+02  0.00000000000E+00 0.  1.
         22    1    3    3    0    0  0.91636367576E+02 -0.16721752145E+03 -0.70544308102E+02  0.20331114762E+03  0.00000000000E+00 0.  1.
</event>
<event>
 7    1  0.6278987E-006  0.6780546E+02  0.7818608E-02  0.1439749E+00
          2   -1    0    0  502    0  0.00000000000E+00  0.00000000000E+00  0.28399293881E+03  0.28399293881E+03  0.00000000000E+00 0. -1.
          1   -1    0    0  501    0 -0.00000000000E+00 -0.00000000000E+00 -0.64870946708E+03  0.64870946708E+03  0.00000000000E+00 0. -1.
         25    2    1    2    0    0  0.35269011742E+02 -0.27597573423E+02  0.43492383729E+02  0.13971936330E+03  0.12499753514E+03 0.  0.
          2    1    1    2  501    0 -0.68027422680E+02  0.74888688936E+01 -0.59670036494E+03  0.60061230333E+03  0.00000000000E+00 0. -1.
          1    1    1    2  502    0  0.32758410938E+02  0.20108704530E+02  0.18849145295E+03  0.19237073925E+03  0.00000000000E+00 0. -1.
         22    1    3    3    0    0  0.14288236251E+02 -0.37542606633E+02  0.83953994867E+02  0.93069190725E+02  0.00000000000E+00 0.  1.
         22    1    3    3    0    0  0.20980775490E+02  0.99450332100E+01 -0.40461611138E+02  0.46650172578E+02  0.00000000000E+00 0.  1.
</event>
<event>
 7    1  0.6278987E-006  0.4728241E+02  0.7818608E-02  0.1481432E+00
          2   -1    0    0  502    0  0.00000000000E+00  0.00000000000E+00  0.40182157006E+03  0.40182157006E+03  0.00000000000E+00 0. -1.
          1   -1    0    0  501    0 -0.00000000000E+00 -0.00000000000E+00 -0.15574898212E+03  0.15574898212E+03  0.00000000000E+00 0. -1.
         25    2    1    2    0    0 -0.18247300931E+02  0.10384499938E+02 -0.10967672576E+01  0.12675255782E+03  0.12499682470E+03 0.  0.
          2    1    1    2  501    0  0.15228925093E+02  0.37775361870E+02 -0.85479695025E+02  0.94687255665E+02  0.00000000000E+00 0. -1.
          1    1    1    2  502    0  0.30183758377E+01 -0.48159861808E+02  0.33264905022E+03  0.33613073870E+03  0.00000000000E+00 0. -1.
         22    1    3    3    0    0 -0.19996617453E+01 -0.15236608380E+02  0.58173411653E+02  0.60168918100E+02  0.00000000000E+00 0. -1.
         22    1    3    3    0    0 -0.16247639185E+02  0.25621108318E+02 -0.59270178911E+02  0.66583639722E+02  0.00000000000E+00 0. -1.
</event>
<event>
 7    1  0.6278987E-006  0.1274090E+03  0.7818608E-02  0.1333541E+00
          2   -1    0    0  502    0  0.00000000000E+00  0.00000000000E+00  0.58264262876E+03  0.58264262876E+03  0.00000000000E+00 0. -1.
          1   -1    0    0  501    0 -0.00000000000E+00 -0.00000000000E+00 -0.18985622393E+03  0.18985622393E+03  0.00000000000E+00 0. -1.
         25    2    1    2    0    0 -0.74084680718E+02  0.59047015598E+02  0.17417126299E+03  0.23438526087E+03  0.12500292674E+03 0.  0.
          2    1    1    2  501    0 -0.43709165837E+02  0.20529853571E+02 -0.14226880647E+03  0.15024107082E+03  0.00000000000E+00 0. -1.
          1    1    1    2  502    0  0.11779384656E+03 -0.79576869169E+02  0.36088394832E+03  0.38787252100E+03  0.00000000000E+00 0. -1.
         22    1    3    3    0    0 -0.28114599042E+02  0.86432456331E+02  0.61758234744E+02  0.10988666773E+03  0.00000000000E+00 0. -1.
         22    1    3    3    0    0 -0.45970081677E+02 -0.27385440733E+02  0.11241302825E+03  0.12449859314E+03  0.00000000000E+00 0. -1.
</event>
<event>
 7    1  0.6278987E-006  0.1212254E+03  0.7818608E-02  0.1319282E+00
          2   -1    0    0  502    0  0.00000000000E+00  0.00000000000E+00  0.83414567285E+03  0.83414567285E+03  0.00000000000E+00 0. -1.
          1   -1    0    0  501    0 -0.00000000000E+00 -0.00000000000E+00 -0.19822584323E+03  0.19822584323E+03  0.00000000000E+00 0. -1.
         25    2    1    2    0    0 -0.13170833081E+03 -0.78339110999E+02  0.11722397249E+03  0.22989298511E+03  0.12500089663E+03 0.  0.
          2    1    1    2  501    0  0.56001961813E+02 -0.13374938639E+02 -0.13041717141E+03  0.14256138085E+03  0.00000000000E+00 0. -1.
          1    1    1    2  502    0  0.75706369001E+02  0.91714049638E+02  0.64911302854E+03  0.65991715012E+03  0.00000000000E+00 0. -1.
         22    1    3    3    0    0 -0.91883044443E+02 -0.69031612063E+02  0.14153196550E+03  0.18231608425E+03  0.00000000000E+00 0. -1.
         22    1    3    3    0    0 -0.39825286371E+02 -0.93074989357E+01 -0.24307993009E+02  0.47576900856E+02  0.00000000000E+00 0. -1.
</event>
<event>
 7    1  0.6278987E-006  0.1639769E+03  0.7818608E-02  0.1306732E+00
          2   -1    0    0  502    0  0.00000000000E+00  0.00000000000E+00  0.11808985925E+04  0.11808985925E+04  0.00000000000E+00 0. -1.
          1   -1    0    0  501    0 -0.00000000000E+00 -0.00000000000E+00 -0.31572939267E+03  0.31572939267E+03  0.00000000000E+00 0. -1.
         25    2    1    2    0    0  0.12181164241E+03 -0.49251913059E+02  0.46634018033E+02  0.18725318359E+03  0.12500078384E+03 0.  0.
          2    1    1    2  501    0 -0.16836844962E+03  0.38990712403E+02 -0.21437605371E+03  0.27536394623E+03  0.00000000000E+00 0. -1.
          1    1    1    2  502    0  0.46556807210E+02  0.10261200656E+02  0.10329112355E+04  0.10340108554E+04  0.00000000000E+00 0. -1.
         22    1    3    3    0    0  0.38556498244E+02  0.10207885393E+02 -0.37536881248E+02  0.54770630222E+02  0.00000000000E+00 0. -1.
         22    1    3    3    0    0  0.83255144167E+02 -0.59459798453E+02  0.84170899281E+02  0.13248255337E+03  0.00000000000E+00 0. -1.
</event>
<event>
 7    1  0.6278987E-006  0.1602175E+03  0.7818608E-02  0.1252170E+00
          2   -1    0    0  502    0  0.00000000000E+00  0.00000000000E+00  0.21835654418E+03  0.21835654418E+03  0.00000000000E+00 0. -1.
          1   -1    0    0  501    0 -0.00000000000E+00 -0.00000000000E+00 -0.64914875376E+03  0.64914875376E+03  0.00000000000E+00 0. -1.
         25    2    1    2    0    0  0.88498362970E+02  0.68188177833E+02 -0.22282452636E+03  0.27886794093E+03  0.12503987799E+03 0.  0.
          2    1    1    2  501    0 -0.98130021058E+01  0.81472315188E+02 -0.35512539211E+03  0.36448330178E+03  0.00000000000E+00 0. -1.
          1    1    1    2  502    0 -0.78685360864E+02 -0.14966049302E+03  0.14715770890E+03  0.22415405522E+03  0.00000000000E+00 0. -1.
         22    1    3    3    0    0  0.11892122482E+03  0.44784411286E+02 -0.15035981970E+03  0.19686537681E+03  0.00000000000E+00 0.  1.
         22    1    3    3    0    0 -0.30422861846E+02  0.23403766547E+02 -0.72464706661E+02  0.82002564124E+02  0.00000000000E+00 0.  1.
</event>
<event>
 7    1  0.6278987E-006  0.1423397E+03  0.7818608E-02  0.1215212E+00
          2   -1    0    0  502    0  0.00000000000E+00  0.00000000000E+00  0.13102352287E+04  0.13102352287E+04  0.00000000000E+00 0. -1.
          1   -1    0    0  501    0 -0.00000000000E+00 -0.00000000000E+00 -0.23550395734E+03  0.23550395734E+03  0.00000000000E+00 0. -1.
         25    2    1    2    0    0  0.11394897147E+03 -0.13433047847E+03  0.23883051978E+03  0.32201592397E+03  0.12500077026E+03 0.  0.
          2    1    1    2  501    0  0.30726660863E+02  0.13143402041E+03 -0.16456914036E+03  0.21284273859E+03  0.00000000000E+00 0. -1.
          1    1    1    2  502    0 -0.14467563233E+03  0.28964580579E+01  0.10004698919E+04  0.10108805235E+04  0.00000000000E+00 0. -1.
         22    1    3    3    0    0  0.12214526354E+02  0.73783754672E+01  0.94591383815E+02  0.95661721554E+02  0.00000000000E+00 0. -1.
         22    1    3    3    0    0  0.10173444512E+03 -0.14170885394E+03  0.14423913597E+03  0.22635420242E+03  0.00000000000E+00 0. -1.
</event>
<event>
 7    1  0.6278987E-006  0.1582167E+03  0.7818608E-02  0.1304378E+00
          2   -1    0    0  502    0  0.00000000000E+00  0.00000000000E+00  0.83916953893E+03  0.83916953893E+03  0.00000000000E+00 0. -1.
          1   -1    0    0  501    0 -0.00000000000E+00 -0.00000000000E+00 -0.45338301905E+03  0.45338301905E+03  0.00000000000E+00 0. -1.
         25    2    1    2    0    0 -0.15322870665E+03  0.13706734451E+03  0.17300444691E+03  0.29634898251E+03  0.12500274922E+03 0.  0.
          2    1    1    2  501    0  0.11601088582E+03 -0.10295722766E+03 -0.37523173470E+03  0.40602656450E+03  0.00000000000E+00 0. -1.
          1    1    1    2  502    0  0.37217820837E+02 -0.34110116843E+02  0.58801380767E+03  0.59017701096E+03  0.00000000000E+00 0. -1.
         22    1    3    3    0    0 -0.15528333110E+03  0.64744763601E+02  0.11941183527E+03  0.20631040626E+03  0.00000000000E+00 0.  1.
         22    1    3    3    0    0  0.20546244410E+01  0.72322580906E+02  0.53592611641E+02  0.90038576249E+02  0.00000000000E+00 0.  1.
</event>
<event>
 7    1  0.6278987E-006  0.3837887E+02  0.7818608E-02  0.1521344E+00
          2   -1    0    0  502    0  0.00000000000E+00  0.00000000000E+00  0.11250886531E+04  0.11250886531E+04  0.00000000000E+00 0. -1.
          1   -1    0    0  501    0 -0.00000000000E+00 -0.00000000000E+00 -0.14394300513E+03  0.14394300513E+03  0.00000000000E+00 0. -1.
         25    2    1    2    0    0 -0.23223646778E+02  0.63349716747E+02 -0.91823948768E+02  0.16914022481E+03  0.12499701476E+03 0.  0.
          2    1    1    2  501    0  0.28488357901E+02 -0.25390582178E+02  0.14647360138E+02  0.40875583889E+02  0.00000000000E+00 0. -1.
          1    1    1    2  502    0 -0.52647111230E+01 -0.37959134569E+02  0.10583222366E+04  0.10590158495E+04  0.00000000000E+00 0. -1.
         22    1    3    3    0    0 -0.74612926546E+02  0.31963517485E+02 -0.44612272018E+02  0.92622945712E+02  0.00000000000E+00 0. -1.
         22    1    3    3    0    0  0.51389279768E+02  0.31386199262E+02 -0.47211676750E+02  0.76517279099E+02  0.00000000000E+00 0. -1.
</event>
<event>
 7    1  0.6278987E-006  0.9406047E+02  0.7818608E-02  0.1350911E+00
          2   -1    0    0  502    0  0.00000000000E+00  0.00000000000E+00  0.42247242339E+03  0.42247242339E+03  0.00000000000E+00 0. -1.
          1   -1    0    0  501    0 -0.00000000000E+00 -0.00000000000E+00 -0.48879436746E+03  0.48879436746E+03  0.00000000000E+00 0. -1.
         25    2    1    2    0    0 -0.72448739292E+02  0.12637585412E+03 -0.14772892093E+03  0.24221569145E+03  0.12499972309E+03 0.  0.
          2    1    1    2  501    0  0.39946200616E+02 -0.39676996564E+02 -0.28531690330E+03  0.29081901298E+03  0.00000000000E+00 0. -1.
          1    1    1    2  502    0  0.32502538676E+02 -0.86698857556E+02  0.36672388016E+03  0.37823208643E+03  0.00000000000E+00 0. -1.
         22    1    3    3    0    0 -0.24975954648E+02  0.64671924133E+02 -0.14901493621E+03  0.16435238755E+03  0.00000000000E+00 0.  1.
         22    1    3    3    0    0 -0.47472784643E+02  0.61703929987E+02  0.12860152770E+01  0.77863303892E+02  0.00000000000E+00 0.  1.
</event>
<event>
 7    1  0.6278987E-006  0.7638621E+02  0.7818608E-02  0.1374391E+00
          2   -1    0    0  502    0  0.00000000000E+00  0.00000000000E+00  0.13234594067E+03  0.13234594067E+03  0.00000000000E+00 0. -1.
          1   -1    0    0  501    0 -0.00000000000E+00 -0.00000000000E+00 -0.22326139592E+04  0.22326139592E+04  0.00000000000E+00 0. -1.
         25    2    1    2    0    0 -0.22978889528E+02  0.44057195477E+02 -0.19216359987E+03  0.23456402409E+03  0.12499746575E+03 0.  0.
          2    1    1    2  501    0 -0.25786084040E+02 -0.73491425354E+02 -0.20111489476E+04  0.20126564539E+04  0.00000000000E+00 0. -1.
          1    1    1    2  502    0  0.48764973568E+02  0.29434229878E+02  0.10304452894E+03  0.11773942195E+03  0.00000000000E+00 0. -1.
         22    1    3    3    0    0 -0.31305853429E+02 -0.38362519446E+02 -0.52390784213E+02  0.72086986535E+02  0.00000000000E+00 0.  1.
         22    1    3    3    0    0  0.83269639012E+01  0.82419714923E+02 -0.13977281566E+03  0.16247703756E+03  0.00000000000E+00 0.  1.
</event>
<event>
 7    1  0.6278987E-006  0.8025914E+02  0.7818608E-02  0.1343481E+00
          2   -1    0    0  502    0  0.00000000000E+00  0.00000000000E+00  0.78221665759E+03  0.78221665759E+03  0.00000000000E+00 0. -1.
          1   -1    0    0  501    0 -0.00000000000E+00 -0.00000000000E+00 -0.72962015751E+03  0.72962015751E+03  0.00000000000E+00 0. -1.
         25    2    1    2    0    0  0.42496325935E+01 -0.21147995123E+02  0.51029522601E+03  0.52582485589E+03  0.12500105720E+03 0.  0.
          2    1    1    2  501    0  0.55262328948E+02  0.58610581339E+02 -0.71487264522E+03  0.71939698647E+03  0.00000000000E+00 0. -1.
          1    1    1    2  502    0 -0.59511961542E+02 -0.37462586215E+02  0.25717391929E+03  0.26661497275E+03  0.00000000000E+00 0. -1.
         22    1    3    3    0    0 -0.53645178225E+02 -0.36966040274E+02  0.22267521487E+03  0.23200979419E+03  0.00000000000E+00 0.  1.
         22    1    3    3    0    0  0.57894810818E+02  0.15818045151E+02  0.28762001114E+03  0.29381506170E+03  0.00000000000E+00 0.  1.
</event>
<event>
 7    1  0.6278987E-006  0.8885866E+02  0.7818608E-02  0.1351129E+00
          2   -1    0    0  502    0  0.00000000000E+00  0.00000000000E+00  0.81108046006E+03  0.81108046006E+03  0.00000000000E+00 0. -1.
          1   -1    0    0  501    0 -0.00000000000E+00 -0.00000000000E+00 -0.22756855179E+04  0.22756855179E+04  0.00000000000E+00 0. -1.
         25    2    1    2    0    0 -0.12480924008E+02  0.38624709761E+02  0.11974987845E+02  0.13197000305E+03  0.12500015881E+03 0.  0.
          2    1    1    2  501    0 -0.54756308921E+02  0.23249757391E+02 -0.22124625703E+04  0.22132621692E+04  0.00000000000E+00 0. -1.
          1    1    1    2  502    0  0.67237232929E+02 -0.61874467152E+02  0.73588252456E+03  0.74153380579E+03  0.00000000000E+00 0. -1.
         22    1    3    3    0    0 -0.37654333611E+01 -0.46002460808E+02  0.78958266310E+00  0.46163062394E+02  0.00000000000E+00 0.  1.
         22    1    3    3    0    0 -0.87154906469E+01  0.84627170569E+02  0.11185405182E+02  0.85806940657E+02  0.00000000000E+00 0.  1.
</event>
<event>
 7    1  0.6278987E-006  0.1032429E+03  0.7818608E-02  0.1422549E+00
          2   -1    0    0  502    0  0.00000000000E+00  0.00000000000E+00  0.26866127043E+03  0.26866127043E+03  0.00000000000E+00 0. -1.
          1   -1    0    0  501    0 -0.00000000000E+00 -0.00000000000E+00 -0.99206105049E+03  0.99206105049E+03  0.00000000000E+00 0. -1.
         25    2    1    2    0    0 -0.10473033210E+03  0.99107829287E+01 -0.18374297235E+02  0.16440200023E+03  0.12499494710E+03 0.  0.
          2    1    1    2  501    0  0.96310559774E+02 -0.37404376264E+02 -0.89663361286E+03  0.90256669947E+03  0.00000000000E+00 0. -1.
          1    1    1    2  502    0  0.84197723240E+01  0.27493593335E+02  0.19160813003E+03  0.19375362122E+03  0.00000000000E+00 0. -1.
         22    1    3    3    0    0 -0.69856475488E+02 -0.27476124296E+01  0.50451383883E+02  0.86213796329E+02  0.00000000000E+00 0. -1.
         22    1    3    3    0    0 -0.34873856609E+02  0.12658395358E+02 -0.68825681118E+02  0.78188203901E+02  0.00000000000E+00 0. -1.
</event>
<event>
 7    1  0.6278987E-006  0.1564692E+03  0.7818608E-02  0.1389579E+00
          2   -1    0    0  502    0  0.00000000000E+00  0.00000000000E+00  0.18630011256E+04  0.18630011256E+04  0.00000000000E+00 0. -1.
          1   -1    0    0  501    0 -0.00000000000E+00 -0.00000000000E+00 -0.21148936781E+03  0.21148936781E+03  0.00000000000E+00 0. -1.
         25    2    1    2    0    0  0.12651893904E+03  0.65143303974E+02  0.15183115860E+03  0.24275182116E+03  0.12500021587E+03 0.  0.
          2    1    1    2  501    0 -0.13217384167E+03 -0.89060070463E+02 -0.12766610555E+03  0.20420640313E+03  0.00000000000E+00 0. -1.
          1    1    1    2  502    0  0.56549026342E+01  0.23916766489E+02  0.16273467048E+04  0.16275322692E+04  0.00000000000E+00 0. -1.
         22    1    3    3    0    0 -0.22400079628E+02  0.27540604967E+02  0.34140686863E+02  0.49252766306E+02  0.00000000000E+00 0.  1.
         22    1    3    3    0    0  0.14891901866E+03  0.37602699007E+02  0.11769047174E+03  0.19349905486E+03  0.00000000000E+00 0.  1.
</event>
<event>
 7    1  0.6278987E-006  0.7883388E+02  0.7818608E-02  0.1360241E+00
          2   -1    0    0  502    0  0.00000000000E+00  0.00000000000E+00  0.15835624824E+04  0.15835624824E+04  0.00000000000E+00 0. -1.
          1   -1    0    0  501    0 -0.00000000000E+00 -0.00000000000E+00 -0.25963057501E+03  0.25963057501E+03  0.00000000000E+00 0. -1.
         25    2    1    2    0    0 -0.28324084024E+02  0.99739312721E+02  0.75318685425E+02  0.17901940615E+03  0.12499943666E+03 0.  0.
          2    1    1    2  501    0 -0.34160213111E+02 -0.51834634738E+02 -0.20205191585E+03  0.21137342836E+03  0.00000000000E+00 0. -1.
          1    1    1    2  502    0  0.62484297135E+02 -0.47904677983E+02  0.14506651378E+04  0.14528002229E+04  0.00000000000E+00 0. -1.
         22    1    3    3    0    0 -0.28656942765E+02  0.10521835423E+03  0.57161076188E+01  0.10920071576E+03  0.00000000000E+00 0.  1.
         22    1    3    3    0    0  0.33285874114E+00 -0.54790415087E+01  0.69602577806E+02  0.69818690392E+02  0.00000000000E+00 0.  1.
</event>
<event>
 7    1  0.6278987E-006  0.1746218E+03  0.7818608E-02  0.1308746E+00
          2   -1    0    0  502    0  0.00000000000E+00  0.00000000000E+00  0.32136269159E+02  0.32136269159E+02  0.00000000000E+00 0. -1.
          1   -1    0    0  501    0 -0.00000000000E+00 -0.00000000000E+00 -0.21704920596E+04  0.21704920596E+04  0.00000000000E+00 0. -1.
         25    2    1    2    0    0 -0.12739740630E+03  0.10450056742E+03 -0.65319687195E+03  0.68515749970E+03  0.12499671256E+03 0.  0.
          2    1    1    2  501    0  0.10733145712E+03 -0.14360757982E+03 -0.14503857596E+04  0.14614246578E+04  0.00000000000E+00 0. -1.
          1    1    1    2  502    0  0.20065949184E+02  0.39107012395E+02 -0.34773158842E+02  0.56046171242E+02  0.00000000000E+00 0. -1.
         22    1    3    3    0    0 -0.10434183135E+02 -0.14139552281E+02 -0.89552941129E+01  0.19722991889E+02  0.00000000000E+00 0. -1.
         22    1    3    3    0    0 -0.11696322317E+03  0.11864011970E+03 -0.64424157783E+03  0.66543450781E+03  0.00000000000E+00 0. -1.
</event>
<event>
 7    1  0.6278987E-006  0.1603950E+03  0.7818608E-02  0.1352060E+00
          2   -1    0    0  502    0  0.00000000000E+00  0.00000000000E+00  0.52264511436E+03  0.52264511436E+03  0.00000000000E+00 0. -1.
          1   -1    0    0  501    0 -0.00000000000E+00 -0.00000000000E+00 -0.41659373711E+03  0.41659373711E+03  0.00000000000E+00 0. -1.
         25    2    1    2    0    0 -0.11076812292E+03 -0.14739693090E+03 -0.34009467862E+03  0.40655216232E+03  0.12499935188E+03 0.  0.
          2    1    1    2  501    0  0.31459915138E+02  0.89054168395E+01 -0.21116066524E+02  0.38921985754E+02  0.00000000000E+00 0. -1.
          1    1    1    2  502    0  0.79308207781E+02  0.13849151406E+03  0.46726212239E+03  0.49376470339E+03  0.00000000000E+00 0. -1.
         22    1    3    3    0    0 -0.62691988386E+02 -0.41916317146E+02 -0.24584504169E+03  0.25715179870E+03  0.00000000000E+00 0.  1.
         22    1    3    3    0    0 -0.48076134533E+02 -0.10548061376E+03 -0.94249636933E+02  0.14940036363E+03  0.00000000000E+00 0.  1.
</event>
<event>
 7    1  0.6278987E-006  0.1795732E+03  0.7818608E-02  0.1304302E+00
          2   -1    0    0  502    0  0.00000000000E+00  0.00000000000E+00  0.40801495284E+03  0.40801495284E+03  0.00000000000E+00 0. -1.
          1   -1    0    0  501    0 -0.00000000000E+00 -0.00000000000E+00 -0.23716640832E+04  0.23716640832E+04  0.00000000000E+00 0. -1.
         25    2    1    2    0    0  0.82039997335E+02  0.19343065259E+03 -0.10778965722E+04  0.11052744920E+04  0.12499881480E+03 0.  0.
          2    1    1    2  501    0 -0.75737451430E+02 -0.14936786259E+03 -0.12733217049E+04  0.12842877730E+04  0.00000000000E+00 0. -1.
          1    1    1    2  502    0 -0.63025459043E+01 -0.44062790003E+02  0.38756914671E+03  0.39011677102E+03  0.00000000000E+00 0. -1.
         22    1    3    3    0    0  0.56011916406E+02  0.19863420045E+03 -0.10303949858E+04  0.10508599845E+04  0.00000000000E+00 0.  1.
         22    1    3    3    0    0  0.26028080928E+02 -0.52035478569E+01 -0.47501586444E+02  0.54414507458E+02  0.00000000000E+00 0.  1.
</event>
<event>
 7    1  0.6278987E-006  0.6595362E+02  0.7818608E-02  0.1399012E+00
          2   -1    0    0  502    0  0.00000000000E+00  0.00000000000E+00  0.99960290619E+03  0.99960290619E+03  0.00000000000E+00 0. -1.
          1   -1    0    0  501    0 -0.00000000000E+00 -0.00000000000E+00 -0.11065987244E+04  0.11065987244E+04  0.00000000000E+00 0. -1.
         25    2    1    2    0    0  0.10368424897E+03  0.48005735892E+02 -0.38200549686E+02  0.17360379887E+03  0.12499609123E+03 0.  0.
          2    1    1    2  501    0 -0.53782082255E+02 -0.56207453956E+01 -0.99881429699E+03  0.10002770141E+04  0.00000000000E+00 0. -1.
          1    1    1    2  502    0 -0.49902166715E+02 -0.42384990496E+02  0.93001902845E+03  0.93232081760E+03  0.00000000000E+00 0. -1.
         22    1    3    3    0    0  0.93259556698E+02  0.86786421660E+02 -0.18024263755E+02  0.12866274513E+03  0.00000000000E+00 0.  1.
         22    1    3    3    0    0  0.10424692271E+02 -0.38780685768E+02 -0.20176285930E+02  0.44941053743E+02  0.00000000000E+00 0.  1.
</event>
<event>
 7    1  0.6278987E-006  0.5331061E+02  0.7818608E-02  0.1440541E+00
          2   -1    0    0  502    0  0.00000000000E+00  0.00000000000E+00  0.63013629963E+03  0.63013629963E+03  0.00000000000E+00 0. -1.
          1   -1    0    0  501    0 -0.00000000000E+00 -0.00000000000E+00 -0.25275650457E+02  0.25275650457E+02  0.00000000000E+00 0. -1.
         25    2    1    2    0    0 -0.20163884499E+02  0.33507258289E+02  0.26098344164E+03  0.29200334325E+03  0.12499710822E+03 0.  0.
          2    1    1    2  501    0 -0.28516016221E+02 -0.55239462532E+02  0.15090799581E+03  0.16321085932E+03  0.00000000000E+00 0. -1.
          1    1    1    2  502    0  0.48679900720E+02  0.21732204243E+02  0.19296921173E+03  0.20019774752E+03  0.00000000000E+00 0. -1.
         22    1    3    3    0    0 -0.16633682864E+02  0.57120911309E+01 -0.95568810040E+01  0.20016027708E+02  0.00000000000E+00 0. -1.
         22    1    3    3    0    0 -0.35302016355E+01  0.27795167158E+02  0.27054032264E+03  0.27198731554E+03  0.00000000000E+00 0. -1.
</event>
<event>
 7    1  0.6278987E-006  0.6211933E+02  0.7818608E-02  0.1495637E+00
          2   -1    0    0  502    0  0.00000000000E+00  0.00000000000E+00  0.65249799234E+03  0.65249799234E+03  0.00000000000E+00 0. -1.
          1   -1    0    0  501    0 -0.00000000000E+00 -0.00000000000E+00 -0.66389040911E+03  0.66389040911E+03  0.00000000000E+00 0. -1.
         25    2    1    2    0    0  0.34803273056E+02  0.46366228013E+02  0.17114201507E+03  0.21971631868E+03  0.12499830582E+03 0.  0.
          2    1    1    2  501    0 -0.10980983324E+02 -0.61222048657E+02 -0.63765753035E+03  0.64068389027E+03  0.00000000000E+00 0. -1.
          1    1    1    2  502    0 -0.23822289732E+02  0.14855820644E+02  0.45512309851E+03  0.45598819250E+03  0.00000000000E+00 0. -1.
         22    1    3    3    0    0 -0.46547216154E+02  0.21177723567E+02  0.80279949110E+02  0.95184082368E+02  0.00000000000E+00 0. -1.
         22    1    3    3    0    0  0.81350489210E+02  0.25188504446E+02  0.90862065959E+02  0.12453223631E+03  0.00000000000E+00 0. -1.
</event>
<event>
 7    1  0.6278987E-006  0.5214405E+02  0.7818608E-02  0.1473666E+00
          2   -1    0    0  502    0  0.00000000000E+00  0.00000000000E+00  0.57723984131E+03  0.57723984131E+03  0.00000000000E+00 0. -1.
          1   -1    0    0  501    0 -0.00000000000E+00 -0.00000000000E+00 -0.24445574827E+03  0.24445574827E+03  0.00000000000E+00 0. -1.
         25    2    1    2    0    0  0.33874843453E+02  0.14263860621E+00 -0.86411958702E+02  0.15569343466E+03  0.12500357445E+03 0.  0.
          2    1    1    2  501    0 -0.42833188519E+02  0.37837267622E+02 -0.11603722104E+03  0.12934827995E+03  0.00000000000E+00 0. -1.
          1    1    1    2  502    0  0.89583450663E+01 -0.37979906229E+02  0.53523327278E+03  0.53665387496E+03  0.00000000000E+00 0. -1.
         22    1    3    3    0    0  0.24659436917E+01 -0.57460776141E+02 -0.64738868149E+02  0.86596435968E+02  0.00000000000E+00 0. -1.
         22    1    3    3    0    0  0.31408899761E+02  0.57603414748E+02 -0.21673090553E+02  0.69096998697E+02  0.00000000000E+00 0. -1.
</event>
<event>
 7    1  0.6278987E-006  0.1306415E+03  0.7818608E-02  0.1337667E+00
          2   -1    0    0  502    0  0.00000000000E+00  0.00000000000E+00  0.54707808886E+03  0.54707808886E+03  0.00000000000E+00 0. -1.
          1   -1    0    0  501    0 -0.00000000000E+00 -0.00000000000E+00 -0.34426870416E+03  0.34426870416E+03  0.00000000000E+00 0. -1.
         25    2    1    2    0    0 -0.16098030008E+03 -0.51500253798E+01 -0.41836259877E+02  0.20812211332E+03  0.12499344638E+03 0.  0.
          2    1    1    2  501    0  0.12151682480E+03  0.27658147918E+02 -0.20033264345E+03  0.23593321065E+03  0.00000000000E+00 0. -1.
          1    1    1    2  502    0  0.39463475281E+02 -0.22508122538E+02  0.44497828803E+03  0.44729146905E+03  0.00000000000E+00 0. -1.
         22    1    3    3    0    0  0.21174482962E+02 -0.38976397444E+01 -0.71779204947E+01  0.22695216829E+02  0.00000000000E+00 0. -1.
         22    1    3    3    0    0 -0.18215478304E+03 -0.12523856355E+01 -0.34658339382E+02  0.18542689649E+03  0.00000000000E+00 0. -1.
</event>
<event>
 7    1  0.6278987E-006  0.9160844E+02  0.7818608E-02  0.1409916E+00
          2   -1    0    0  502    0  0.00000000000E+00  0.00000000000E+00  0.26744362375E+03  0.26744362375E+03  0.00000000000E+00 0. -1.
          1   -1    0    0  501    0 -0.00000000000E+00 -0.00000000000E+00 -0.23565807294E+03  0.23565807294E+03  0.00000000000E+00 0. -1.
         25    2    1    2    0    0  0.22962972732E+02  0.10423615228E+03  0.12180928751E+03  0.20458618867E+03  0.12500213003E+03 0.  0.
          2    1    1    2  501    0  0.20250022774E+02 -0.29438877072E+02 -0.17424480885E+03  0.17787063928E+03  0.00000000000E+00 0. -1.
          1    1    1    2  502    0 -0.43212995505E+02 -0.74797275213E+02  0.84221072147E+02  0.12064486874E+03  0.00000000000E+00 0. -1.
         22    1    3    3    0    0 -0.43255582680E+02  0.69781936992E+02  0.94301295621E+02  0.12503318967E+03  0.00000000000E+00 0. -1.
         22    1    3    3    0    0  0.66218555412E+02  0.34454215293E+02  0.27507991894E+02  0.79552999003E+02  0.00000000000E+00 0. -1.
</event>
<event>
 7    1  0.6278987E-006  0.8875205E+02  0.7818608E-02  0.1404287E+00
          2   -1    0    0  502    0  0.00000000000E+00  0.00000000000E+00  0.36188532261E+02  0.36188532261E+02  0.00000000000E+00 0. -1.
          1   -1    0    0  501    0 -0.00000000000E+00 -0.00000000000E+00 -0.79925413486E+03  0.79925413486E+03  0.00000000000E+00 0. -1.
         25    2    1    2    0    0  0.10457178747E+02 -0.11874162469E+03 -0.31158114016E+03  0.35623998119E+03  0.12496075894E+03 0.  0.
          2    1    1    2  501    0 -0.19070830116E+02  0.81172174496E+02 -0.42334820529E+03  0.43148154235E+03  0.00000000000E+00 0. -1.
          1    1    1    2  502    0  0.86136513686E+01  0.37569450193E+02 -0.28136257158E+02  0.47721143580E+02  0.00000000000E+00 0. -1.
         22    1    3    3    0    0 -0.50215841065E+02 -0.87483048126E+02 -0.14920638197E+03  0.18010402223E+03  0.00000000000E+00 0. -1.
         22    1    3    3    0    0  0.60673019812E+02 -0.31258576563E+02 -0.16237475818E+03  0.17613595895E+03  0.00000000000E+00 0. -1.
</event>
<event>
 7    1  0.6278987E-006  0.1169707E+03  0.7818608E-02  0.1294066E+00
          2   -1    0    0  502    0  0.00000000000E+00  0.00000000000E+00  0.61286226105E+03  0.61286226105E+03  0.00000000000E+00 0. -1.
          1   -1    0    0  501    0 -0.00000000000E+00 -0.00000000000E+00 -0.50201094692E+03  0.50201094692E+03  0.00000000000E+00 0. -1.
         25    2    1    2    0    0 -0.56894371916E+02 -0.21803569787E+02  0.12702319269E+03  0.18834075771E+03  0.12499993729E+03 0.  0.
          2    1    1    2  501    0 -0.73445625743E+02 -0.15698541160E+02 -0.45812298721E+03  0.46423848994E+03  0.00000000000E+00 0. -1.
          1    1    1    2  502    0  0.13033999766E+03  0.37502110947E+02  0.44195110865E+03  0.46229396032E+03  0.00000000000E+00 0. -1.
         22    1    3    3    0    0 -0.57838576625E+02  0.31706606025E+02  0.20403459237E+02  0.69042819760E+02  0.00000000000E+00 0.  1.
         22    1    3    3    0    0  0.94420470901E+00 -0.53510175812E+02  0.10661973345E+03  0.11929793795E+03  0.00000000000E+00 0.  1.
</event>
<event>
 7    1  0.6278987E-006  0.7112820E+02  0.7818608E-02  0.1482162E+00
          2   -1    0    0  502    0  0.00000000000E+00  0.00000000000E+00  0.97831444765E+03  0.97831444765E+03  0.00000000000E+00 0. -1.
          1   -1    0    0  501    0 -0.00000000000E+00 -0.00000000000E+00 -0.11247176360E+03  0.11247176360E+03  0.00000000000E+00 0. -1.
         25    2    1    2    0    0  0.54659590255E+02  0.33808826993E+02  0.19357720013E+03  0.23922520598E+03  0.12500343666E+03 0.  0.
          2    1    1    2  501    0 -0.42600604800E+02 -0.57894772019E+02 -0.74957880982E+02  0.10385229934E+03  0.00000000000E+00 0. -1.
          1    1    1    2  502    0 -0.12058985454E+02  0.24085945026E+02  0.74722336490E+03  0.74770870593E+03  0.00000000000E+00 0. -1.
         22    1    3    3    0    0  0.60254710138E+02  0.30532209987E+02  0.27356587076E+02  0.72878177783E+02  0.00000000000E+00 0.  1.
         22    1    3    3    0    0 -0.55951198836E+01  0.32766170061E+01  0.16622061306E+03  0.16634702820E+03  0.00000000000E+00 0.  1.
</event>
<event>
 7    1  0.6278987E-006  0.9896726E+02  0.7818608E-02  0.1339702E+00
          2   -1    0    0  502    0  0.00000000000E+00  0.00000000000E+00  0.18042841751E+03  0.18042841751E+03  0.00000000000E+00 0. -1.
          1   -1    0    0  501    0 -0.00000000000E+00 -0.00000000000E+00 -0.70349032022E+03  0.70349032022E+03  0.00000000000E+00 0. -1.
         25    2    1    2    0    0 -0.14729596894E+03  0.13238212667E+02 -0.75702184305E+02  0.20791845855E+03  0.12501164729E+03 0.  0.
          2    1    1    2  501    0  0.57879902204E+02  0.11028210024E+02 -0.54104216367E+03  0.54424105630E+03  0.00000000000E+00 0. -1.
          1    1    1    2  502    0  0.89416066740E+02 -0.24266422691E+02  0.93682445261E+02  0.13175922287E+03  0.00000000000E+00 0. -1.
         22    1    3    3    0    0 -0.13946639705E+03 -0.35288382924E+02 -0.48985192627E+02  0.15197267837E+03  0.00000000000E+00 0. -1.
         22    1    3    3    0    0 -0.78295718938E+01  0.48526595591E+02 -0.26716991677E+02  0.55945780180E+02  0.00000000000E+00 0. -1.
</event>
<event>
 7    1  0.6278987E-006  0.1627366E+03  0.7818608E-02  0.1328069E+00
          2   -1    0    0  502    0  0.00000000000E+00  0.00000000000E+00  0.22550572494E+03  0.22550572494E+03  0.00000000000E+00 0. -1.
          1   -1    0    0  501    0 -0.00000000000E+00 -0.00000000000E+00 -0.10160393501E+04  0.10160393501E+04  0.00000000000E+00 0. -1.
         25    2    1    2    0    0 -0.59731156423E+02 -0.12758575933E+03 -0.82737221788E+02  0.20570973305E+03  0.12500043749E+03 0.  0.
          2    1    1    2  501    0  0.38796244125E+02  0.16128153109E+03 -0.86138211137E+03  0.87720922397E+03  0.00000000000E+00 0. -1.
          1    1    1    2  502    0  0.20934912298E+02 -0.33695771754E+02  0.15358570804E+03  0.15862611797E+03  0.00000000000E+00 0. -1.
         22    1    3    3    0    0 -0.42016643077E+02 -0.58825088823E+02 -0.10832772488E+03  0.13023319603E+03  0.00000000000E+00 0. -1.
         22    1    3    3    0    0 -0.17714513346E+02 -0.68760670511E+02  0.25590503096E+02  0.75476537022E+02  0.00000000000E+00 0. -1.
</event>
<event>
 7    1  0.6278987E-006  0.1237109E+03  0.7818608E-02  0.1310449E+00
          2   -1    0    0  502    0  0.00000000000E+00  0.00000000000E+00  0.26215516430E+04  0.26215516430E+04  0.00000000000E+00 0. -1.
          1   -1    0    0  501    0 -0.00000000000E+00 -0.00000000000E+00 -0.48404954407E+03  0.48404954407E+03  0.00000000000E+00 0. -1.
         25    2    1    2    0    0 -0.67200102097E+02 -0.13057280607E+02  0.18593379790E+03  0.23429235901E+03  0.12504073733E+03 0.  0.
          2    1    1    2  501    0  0.12600165002E+03 -0.35117284612E+01 -0.45083702443E+03  0.46812687451E+03  0.00000000000E+00 0. -1.
          1    1    1    2  502    0 -0.58801547921E+02  0.16569009068E+02  0.24024053255E+04  0.24031819536E+04  0.00000000000E+00 0. -1.
         22    1    3    3    0    0  0.11081157726E+02  0.16697825983E+02  0.13456138656E+03  0.13604549314E+03  0.00000000000E+00 0.  1.
         22    1    3    3    0    0 -0.78281259823E+02 -0.29755106590E+02  0.51372411339E+02  0.98246865876E+02  0.00000000000E+00 0.  1.
</event>
<event>
 7    1  0.6332528E-006  0.1302515E+03  0.7818608E-02  0.1349086E+00
          2   -1    0    0  502    0  0.00000000000E+00  0.00000000000E+00  0.20722070785E+04  0.20722070785E+04  0.00000000000E+00 0. -1.
          1   -1    0    0  501    0 -0.00000000000E+00 -0.00000000000E+00 -0.45232821525E+03  0.45232821525E+03  0.00000000000E+00 0. -1.
         25    2    1    2    0    0 -0.78689211466E+02 -0.68086056654E+02 -0.16015127445E+03  0.22825741852E+03  0.12500126115E+03 0.  0.
          2    1    1    2  501    0  0.65765349010E+01 -0.40769516695E+02 -0.25436559984E+03  0.25769606649E+03  0.00000000000E+00 0. -1.
          1    1    1    2  502    0  0.72112676565E+02  0.10885557335E+03  0.20343957375E+04  0.20385818087E+04  0.00000000000E+00 0. -1.
         22    1    3    3    0    0 -0.24780260670E+02 -0.69398757094E+02 -0.17479630806E+02  0.75734974075E+02  0.00000000000E+00 0. -1.
         22    1    3    3    0    0 -0.53908950796E+02  0.13127004395E+01 -0.14267164365E+03  0.15252244445E+03  0.00000000000E+00 0. -1.
</event>
<event>
 7    1  0.6278987E-006  0.6599681E+02  0.7818608E-02  0.1495179E+00
          2   -1    0    0  502    0  0.00000000000E+00  0.00000000000E+00  0.10878158480E+04  0.10878158480E+04  0.00000000000E+00 0. -1.
          1   -1    0    0  501    0 -0.00000000000E+00 -0.00000000000E+00 -0.13139377979E+04  0.13139377979E+04  0.00000000000E+00 0. -1.
         25    2    1    2    0    0 -0.81008566292E+02 -0.18793420866E+02 -0.16189704854E+03  0.22079677094E+03  0.12499991701E+03 0.  0.
          2    1    1    2  501    0  0.15153819924E+02  0.21750931836E+02 -0.11214076063E+04  0.11217208926E+04  0.00000000000E+00 0. -1.
          1    1    1    2  502    0  0.65854746368E+02 -0.29575109700E+01  0.10571827050E+04  0.10592359823E+04  0.00000000000E+00 0. -1.
         22    1    3    3    0    0 -0.93832210763E+02  0.30352700085E+02 -0.11687763313E+03  0.15292531283E+03  0.00000000000E+00 0. -1.
         22    1    3    3    0    0  0.12823644471E+02 -0.49146120951E+02 -0.45019415411E+02  0.67871458110E+02  0.00000000000E+00 0. -1.
</event>
<event>
 7    1  0.6278987E-006  0.7735263E+02  0.7818608E-02  0.1425232E+00
          2   -1    0    0  502    0  0.00000000000E+00  0.00000000000E+00  0.17280728587E+04  0.17280728587E+04  0.00000000000E+00 0. -1.
          1   -1    0    0  501    0 -0.00000000000E+00 -0.00000000000E+00 -0.15126915549E+03  0.15126915549E+03  0.00000000000E+00 0. -1.
         25    2    1    2    0    0  0.38696625061E+02  0.47884985121E+02 -0.22676358985E+02  0.14117170086E+03  0.12499932511E+03 0.  0.
          2    1    1    2  501    0 -0.75678547158E+02 -0.41103791774E+02 -0.42308051940E+02  0.95951735040E+02  0.00000000000E+00 0. -1.
          1    1    1    2  502    0  0.36981922097E+02 -0.67811933469E+01  0.16417881142E+04  0.16422185783E+04  0.00000000000E+00 0. -1.
         22    1    3    3    0    0 -0.23041009200E+02  0.56138730021E+02  0.21968582837E+02  0.64537305066E+02  0.00000000000E+00 0.  1.
         22    1    3    3    0    0  0.61737634260E+02 -0.82537449003E+01 -0.44644941823E+02  0.76634395798E+02  0.00000000000E+00 0.  1.
</event>
<event>
 7    1  0.6278987E-006  0.5172124E+02  0.7818608E-02  0.1438398E+00
          2   -1    0    0  502    0  0.00000000000E+00  0.00000000000E+00  0.22321290159E+04  0.22321290159E+04  0.00000000000E+00 0. -1.
          1   -1    0    0  501    0 -0.00000000000E+00 -0.00000000000E+00 -0.14305490367E+03  0.14305490367E+03  0.00000000000E+00 0. -1.
         25    2    1    2    0    0 -0.44919274110E+02 -0.28300589074E+02  0.39073672957E+03  0.41366539058E+03  0.12500079599E+03 0.  0.
          2    1    1    2  501    0 -0.12018469339E+00  0.52019433744E+02 -0.12608065827E+03  0.13639049938E+03  0.00000000000E+00 0. -1.
          1    1    1    2  502    0  0.45039458803E+02 -0.23718844670E+02  0.18244180409E+04  0.18251280296E+04  0.00000000000E+00 0. -1.
         22    1    3    3    0    0  0.26249648871E+02  0.22818792421E+02  0.44320809673E+02  0.56338934348E+02  0.00000000000E+00 0. -1.
         22    1    3    3    0    0 -0.71168922981E+02 -0.51119381495E+02  0.34641591990E+03  0.35732645623E+03  0.00000000000E+00 0. -1.
</event>
<event>
 7    1  0.6278987E-006  0.5751236E+02  0.7818608E-02  0.1527803E+00
          2   -1    0    0  502    0  0.00000000000E+00  0.00000000000E+00  0.54689370944E+03  0.54689370944E+03  0.00000000000E+00 0. -1.
          1   -1    0    0  501    0 -0.00000000000E+00 -0.00000000000E+00 -0.46349038265E+03  0.46349038265E+03  0.00000000000E+00 0. -1.
         25    2    1    2    0    0  0.48088232152E+02  0.14902911867E+02  0.36203489055E+02  0.13955458393E+03  0.12502085595E+03 0.  0.
          2    1    1    2  501    0  0.93316905242E+01 -0.22540282503E+02 -0.40962299465E+03  0.41034880593E+03  0.00000000000E+00 0. -1.
          1    1    1    2  502    0 -0.57419922676E+02  0.76373706354E+01  0.45682283238E+03  0.46048070223E+03  0.00000000000E+00 0. -1.
         22    1    3    3    0    0  0.79865874293E+02 -0.13173358877E+02  0.49783827498E+02  0.95029073136E+02  0.00000000000E+00 0. -1.
         22    1    3    3    0    0 -0.31777642141E+02  0.28076270745E+02 -0.13580338443E+02  0.44525510791E+02  0.00000000000E+00 0. -1.
</event>
<event>
 7    1  0.6278987E-006  0.1014593E+03  0.7818608E-02  0.1408051E+00
          2   -1    0    0  502    0  0.00000000000E+00  0.00000000000E+00  0.82341711577E+03  0.82341711577E+03  0.00000000000E+00 0. -1.
          1   -1    0    0  501    0 -0.00000000000E+00 -0.00000000000E+00 -0.12937736630E+03  0.12937736630E+03  0.00000000000E+00 0. -1.
         25    2    1    2    0    0 -0.12739654283E+03  0.22950164544E+02 -0.97626506996E+00  0.17993159870E+03  0.12497134847E+03 0.  0.
          2    1    1    2  501    0  0.31792975426E+02  0.77994498710E+01 -0.27895454186E+02  0.43009081238E+02  0.00000000000E+00 0. -1.
          1    1    1    2  502    0  0.95603567407E+02 -0.30749614415E+02  0.72291146872E+03  0.72985380213E+03  0.00000000000E+00 0. -1.
         22    1    3    3    0    0 -0.34947600114E+01  0.51343558333E+02 -0.10276368396E+02  0.52478358179E+02  0.00000000000E+00 0. -1.
         22    1    3    3    0    0 -0.12390178282E+03 -0.28393393789E+02  0.93001033261E+01  0.12745324052E+03  0.00000000000E+00 0. -1.
</event>
<event>
 7    1  0.6278987E-006  0.9644523E+02  0.7818608E-02  0.1348408E+00
          2   -1    0    0  502    0  0.00000000000E+00  0.00000000000E+00  0.17293535938E+04  0.17293535938E+04  0.00000000000E+00 0. -1.
          1   -1    0    0  501    0 -0.00000000000E+00 -0.00000000000E+00 -0.10314512796E+04  0.10314512796E+04  0.00000000000E+00 0. -1.
         25    2    1    2    0    0 -0.42440951833E+02 -0.55193744409E+01  0.12165650882E+02  0.13268439489E+03  0.12500179079E+03 0.  0.
          2    1    1    2  501    0  0.98299357080E+02  0.36088159082E+00 -0.96822780497E+03  0.97320500213E+03  0.00000000000E+00 0. -1.
          1    1    1    2  502    0 -0.55858405247E+02  0.51584928501E+01  0.16539644683E+04  0.16549154763E+04  0.00000000000E+00 0. -1.
         22    1    3    3    0    0 -0.55487246143E+02 -0.55925265553E+02 -0.17121993765E+01  0.78799755319E+02  0.00000000000E+00 0. -1.
         22    1    3    3    0    0  0.13046294310E+02  0.50405891112E+02  0.13877850259E+02  0.53884639572E+02  0.00000000000E+00 0. -1.
</event>
<event>
 7    1  0.6278987E-006  0.1053828E+03  0.7818608E-02  0.1394158E+00
          2   -1    0    0  502    0  0.00000000000E+00  0.00000000000E+00  0.23385176625E+04  0.23385176625E+04  0.00000000000E+00 0. -1.
          1   -1    0    0  501    0 -0.00000000000E+00 -0.00000000000E+00 -0.58425512897E+03  0.58425512897E+03  0.00000000000E+00 0. -1.
         25    2    1    2    0    0 -0.10652337260E+03  0.88825596837E+02  0.51714274315E+02  0.19374351678E+03  0.12499987425E+03 0.  0.
          2    1    1    2  501    0  0.82821027105E+02 -0.62834795730E+02 -0.50783477507E+03  0.51836636933E+03  0.00000000000E+00 0. -1.
          1    1    1    2  502    0  0.23702345492E+02 -0.25990801107E+02  0.22103830343E+04  0.22106629054E+04  0.00000000000E+00 0. -1.
         22    1    3    3    0    0 -0.83583177274E+02  0.55858809476E+02  0.92421772641E+02  0.13655818605E+03  0.00000000000E+00 0. -1.
         22    1    3    3    0    0 -0.22940195323E+02  0.32966787361E+02 -0.40707498326E+02  0.57185330727E+02  0.00000000000E+00 0. -1.
</event>
<event>
 7    1  0.6278987E-006  0.1267830E+03  0.7818608E-02  0.1259693E+00
          2   -1    0    0  502    0  0.00000000000E+00  0.00000000000E+00  0.49653218904E+03  0.49653218904E+03  0.00000000000E+00 0. -1.
          1   -1    0    0  501    0 -0.00000000000E+00 -0.00000000000E+00 -0.29277747545E+04  0.29277747545E+04  0.00000000000E+00 0. -1.
         25    2    1    2    0    0 -0.44059353534E+02 -0.79023970374E+01 -0.20345237996E+03  0.24294238739E+03  0.12499783264E+03 0.  0.
          2    1    1    2  501    0  0.12850416840E+03 -0.38312746429E+02 -0.26980362696E+04  0.27013664875E+04  0.00000000000E+00 0. -1.
          1    1    1    2  502    0 -0.84444814867E+02  0.46215143466E+02  0.47024608411E+03  0.47999806861E+03  0.00000000000E+00 0. -1.
         22    1    3    3    0    0 -0.53801645269E+02  0.43417587181E+02 -0.16240455616E+03  0.17650763092E+03  0.00000000000E+00 0.  1.
         22    1    3    3    0    0  0.97422917357E+01 -0.51319984218E+02 -0.41047823803E+02  0.66434756471E+02  0.00000000000E+00 0.  1.
</event>
<event>
 7    1  0.6278987E-006  0.1100911E+03  0.7818608E-02  0.1328338E+00
          2   -1    0    0  502    0  0.00000000000E+00  0.00000000000E+00  0.34981357456E+03  0.34981357456E+03  0.00000000000E+00 0. -1.
          1   -1    0    0  501    0 -0.00000000000E+00 -0.00000000000E+00 -0.13156905615E+04  0.13156905615E+04  0.00000000000E+00 0. -1.
         25    2    1    2    0    0  0.72132227686E+02  0.73453261211E+01 -0.22719330414E+03  0.26925572324E+03  0.12499933986E+03 0.  0.
          2    1    1    2  501    0  0.31570699445E+02 -0.49250099468E+02 -0.10571212653E+04  0.10587387076E+04  0.00000000000E+00 0. -1.
          1    1    1    2  502    0 -0.10370292713E+03  0.41904773347E+02  0.31843758255E+03  0.33750970520E+03  0.00000000000E+00 0. -1.
         22    1    3    3    0    0  0.66410209883E+02  0.52701448522E+02 -0.85655530971E+02  0.12051816726E+03  0.00000000000E+00 0.  1.
         22    1    3    3    0    0  0.57220178032E+01 -0.45356122401E+02 -0.14153777316E+03  0.14873755598E+03  0.00000000000E+00 0.  1.
</event>
<event>
 7    1  0.6278987E-006  0.9139902E+02  0.7818608E-02  0.1305813E+00
          2   -1    0    0  502    0  0.00000000000E+00  0.00000000000E+00  0.29892662132E+03  0.29892662132E+03  0.00000000000E+00 0. -1.
          1   -1    0    0  501    0 -0.00000000000E+00 -0.00000000000E+00 -0.13725842461E+03  0.13725842461E+03  0.00000000000E+00 0. -1.
         25    2    1    2    0    0  0.22211598485E+02  0.52943688540E+02  0.98787072709E+02  0.16935438895E+03  0.12500253622E+03 0.  0.
          2    1    1    2  501    0 -0.98738001685E+02 -0.29687895945E+01 -0.58561717651E+02  0.11483676007E+03  0.00000000000E+00 0. -1.
          1    1    1    2  502    0  0.76526403200E+02 -0.49974898946E+02  0.12144284165E+03  0.15199389691E+03  0.00000000000E+00 0. -1.
         22    1    3    3    0    0  0.62458760807E+02  0.63873884358E+02  0.89846509626E+02  0.12670187527E+03  0.00000000000E+00 0.  1.
         22    1    3    3    0    0 -0.40247162321E+02 -0.10930195818E+02  0.89405630824E+01  0.42652513686E+02  0.00000000000E+00 0.  1.
</event>
<event>
 7    1  0.6278987E-006  0.3941329E+02  0.7818608E-02  0.1592814E+00
          2   -1    0    0  502    0  0.00000000000E+00  0.00000000000E+00  0.38609445446E+03  0.38609445446E+03  0.00000000000E+00 0. -1.
          1   -1    0    0  501    0 -0.00000000000E+00 -0.00000000000E+00 -0.84426984760E+03  0.84426984760E+03  0.00000000000E+00 0. -1.
         25    2    1    2    0    0 -0.38468080384E+01  0.47606931041E+02 -0.39320798989E+02  0.13947195329E+03  0.12500033083E+03 0.  0.
          2    1    1    2  501    0 -0.18207137934E+02 -0.14976916022E+02 -0.75353445951E+03  0.75390316988E+03  0.00000000000E+00 0. -1.
          1    1    1    2  502    0  0.22053945972E+02 -0.32630015019E+02  0.33467986536E+03  0.33698917889E+03  0.00000000000E+00 0. -1.
         22    1    3    3    0    0  0.40497672725E+02 -0.25312030869E+02 -0.72673216799E+01  0.48307084028E+02  0.00000000000E+00 0.  1.
         22    1    3    3    0    0 -0.44344480764E+02  0.72918961910E+02 -0.32053477309E+02  0.91164869263E+02  0.00000000000E+00 0.  1.
</event>
<event>
 7    1  0.6278987E-006  0.8666632E+02  0.7818608E-02  0.1367449E+00
          2   -1    0    0  502    0  0.00000000000E+00  0.00000000000E+00  0.89847835243E+03  0.89847835243E+03  0.00000000000E+00 0. -1.
          1   -1    0    0  501    0 -0.00000000000E+00 -0.00000000000E+00 -0.25416179902E+03  0.25416179902E+03  0.00000000000E+00 0. -1.
         25    2    1    2    0    0  0.78417575336E+02 -0.10798510761E+02  0.26988030948E+03  0.30777678229E+03  0.12500096925E+03 0.  0.
          2    1    1    2  501    0 -0.76366400568E+02 -0.42330241854E+02 -0.22589504035E+03  0.24218225733E+03  0.00000000000E+00 0. -1.
          1    1    1    2  502    0 -0.20511747678E+01  0.53128752616E+02  0.60033128428E+03  0.60268111184E+03  0.00000000000E+00 0. -1.
         22    1    3    3    0    0 -0.73374651277E+01 -0.40500233868E+02  0.28950475623E+02  0.50321341165E+02  0.00000000000E+00 0. -1.
         22    1    3    3    0    0  0.85755040464E+02  0.29701723107E+02  0.24092983386E+03  0.25745544112E+03  0.00000000000E+00 0. -1.
</event>
<event>
 7    1  0.6278987E-006  0.1109054E+03  0.7818608E-02  0.1302040E+00
          2   -1    0    0  502    0  0.00000000000E+00  0.00000000000E+00  0.97507802243E+03  0.97507802243E+03  0.00000000000E+00 0. -1.
          1   -1    0    0  501    0 -0.00000000000E+00 -0.00000000000E+00 -0.66551355445E+03  0.66551355445E+03  0.00000000000E+00 0. -1.
         25    2    1    2    0    0  0.13977980400E+03 -0.66870234643E+02 -0.11955954644E+03  0.23222819754E+03  0.12500171479E+03 0.  0.
          2    1    1    2  501    0 -0.70974385220E+02 -0.19413883514E+02 -0.48351211695E+03  0.48907896036E+03  0.00000000000E+00 0. -1.
          1    1    1    2  502    0 -0.68805418780E+02  0.86284118157E+02  0.91263613136E+03  0.91928441898E+03  0.00000000000E+00 0. -1.
         22    1    3    3    0    0  0.63018440616E+02 -0.57553212975E+02  0.51411369178E+01  0.85499283448E+02  0.00000000000E+00 0. -1.
         22    1    3    3    0    0  0.76761363384E+02 -0.93170216680E+01 -0.12470068335E+03  0.14672891409E+03  0.00000000000E+00 0. -1.
</event>
<event>
 7    1  0.6278987E-006  0.6426247E+02  0.7818608E-02  0.1531899E+00
          2   -1    0    0  502    0  0.00000000000E+00  0.00000000000E+00  0.21753851584E+02  0.21753851584E+02  0.00000000000E+00 0. -1.
          1   -1    0    0  501    0 -0.00000000000E+00 -0.00000000000E+00 -0.18033345738E+04  0.18033345738E+04  0.00000000000E+00 0. -1.
         25    2    1    2    0    0  0.45938662545E+02  0.56240413229E+01 -0.60799594467E+03  0.62243430891E+03  0.12499363828E+03 0.  0.
          2    1    1    2  501    0  0.18731647303E+02  0.10036277024E+02 -0.11113278589E+04  0.11115310213E+04  0.00000000000E+00 0. -1.
          1    1    1    2  502    0 -0.64670309849E+02 -0.15660318347E+02 -0.62256918661E+02  0.91123095139E+02  0.00000000000E+00 0. -1.
         22    1    3    3    0    0  0.63817595728E+02  0.20652581347E+02 -0.15567595209E+03  0.16951170077E+03  0.00000000000E+00 0.  1.
         22    1    3    3    0    0 -0.17878933182E+02 -0.15028540024E+02 -0.45231999259E+03  0.45292260813E+03  0.00000000000E+00 0.  1.
</event>
<event>
 7    1  0.6278987E-006  0.5794206E+02  0.7818608E-02  0.1533080E+00
          2   -1    0    0  502    0  0.00000000000E+00  0.00000000000E+00  0.62141764122E+03  0.62141764122E+03  0.00000000000E+00 0. -1.
          1   -1    0    0  501    0 -0.00000000000E+00 -0.00000000000E+00 -0.37537504732E+02  0.37537504732E+02  0.00000000000E+00 0. -1.
         25    2    1    2    0    0  0.73327535777E+02  0.97589055258E+01  0.50676771118E+03  0.52717233199E+03  0.12499996314E+03 0.  0.
          2    1    1    2  501    0 -0.51826281950E+02 -0.18958595988E+02  0.89630255610E+02  0.10525670802E+03  0.00000000000E+00 0. -1.
          1    1    1    2  502    0 -0.21501253826E+02  0.91996904621E+01 -0.12517830303E+02  0.26526105937E+02  0.00000000000E+00 0. -1.
         22    1    3    3    0    0  0.42749177743E+02 -0.56174652493E+02  0.20643837307E+03  0.21817398025E+03  0.00000000000E+00 0.  1.
         22    1    3    3    0    0  0.30578358034E+02  0.65933558018E+02  0.30032933811E+03  0.30899835175E+03  0.00000000000E+00 0.  1.
</event>
<event>
 7    1  0.6278987E-006  0.4409828E+02  0.7818608E-02  0.1487701E+00
          2   -1    0    0  502    0  0.00000000000E+00  0.00000000000E+00  0.58339305455E+03  0.58339305455E+03  0.00000000000E+00 0. -1.
          1   -1    0    0  501    0 -0.00000000000E+00 -0.00000000000E+00 -0.44629249948E+03  0.44629249948E+03  0.00000000000E+00 0. -1.
         25    2    1    2    0    0 -0.38004181564E+01  0.15880044018E+02 -0.42167067380E+02  0.13292516797E+03  0.12499767891E+03 0.  0.
          2    1    1    2  501    0 -0.36555797905E+02 -0.26734884601E+02 -0.35650009999E+03  0.35936527616E+03  0.00000000000E+00 0. -1.
          1    1    1    2  502    0  0.40356216061E+02  0.10854840583E+02  0.53576772244E+03  0.53739510991E+03  0.00000000000E+00 0. -1.
         22    1    3    3    0    0  0.35849871406E+02 -0.38044081440E+02  0.27038146086E+01  0.52343825098E+02  0.00000000000E+00 0.  1.
         22    1    3    3    0    0 -0.39650289563E+02  0.53924125458E+02 -0.44870881989E+02  0.80581342873E+02  0.00000000000E+00 0.  1.
</event>
<event>
 7    1  0.6278987E-006  0.2173649E+03  0.7818608E-02  0.1210921E+00
          2   -1    0    0  502    0  0.00000000000E+00  0.00000000000E+00  0.26660328047E+04  0.26660328047E+04  0.00000000000E+00 0. -1.
          1   -1    0    0  501    0 -0.00000000000E+00 -0.00000000000E+00 -0.13376679489E+04  0.13376679489E+04  0.00000000000E+00 0. -1.
         25    2    1    2    0    0 -0.11770870545E+03  0.21253980107E+03  0.11563248856E+03  0.29668913280E+03  0.12500025095E+03 0.  0.
          2    1    1    2  501    0  0.16928427389E+03 -0.13574062846E+03 -0.12368217519E+04  0.12557112445E+04  0.00000000000E+00 0. -1.
          1    1    1    2  502    0 -0.51575568440E+02 -0.76799172606E+02  0.24495541191E+04  0.24513003763E+04  0.00000000000E+00 0. -1.
         22    1    3    3    0    0 -0.64763066833E+02  0.44852833456E+02  0.88965969352E+02  0.11883170956E+03  0.00000000000E+00 0. -1.
         22    1    3    3    0    0 -0.52945638616E+02  0.16768696761E+03  0.26666519204E+02  0.17785742324E+03  0.00000000000E+00 0. -1.
</event>
<event>
 7    1  0.6278987E-006  0.8975041E+02  0.7818608E-02  0.1454922E+00
          2   -1    0    0  502    0  0.00000000000E+00  0.00000000000E+00  0.23582378446E+04  0.23582378446E+04  0.00000000000E+00 0. -1.
          1   -1    0    0  501    0 -0.00000000000E+00 -0.00000000000E+00 -0.17157942359E+03  0.17157942359E+03  0.00000000000E+00 0. -1.
         25    2    1    2    0    0  0.97014872333E+02  0.68406753538E+01  0.67510663835E+02  0.17216427840E+03  0.12499667489E+03 0.  0.
          2    1    1    2  501    0 -0.12380460708E+02  0.22814365792E+02 -0.11693059979E+03  0.11977702727E+03  0.00000000000E+00 0. -1.
          1    1    1    2  502    0 -0.84634411625E+02 -0.29655041146E+02  0.22360783570E+04  0.22378759626E+04  0.00000000000E+00 0. -1.
         22    1    3    3    0    0  0.31081845774E+02  0.17777027107E+02  0.93756820849E+02  0.10036157275E+03  0.00000000000E+00 0. -1.
         22    1    3    3    0    0  0.65933026559E+02 -0.10936351753E+02 -0.26246157014E+02  0.71802705652E+02  0.00000000000E+00 0. -1.
</event>
<event>
 7    1  0.6278987E-006  0.1514609E+03  0.7818608E-02  0.1286205E+00
          2   -1    0    0  502    0  0.00000000000E+00  0.00000000000E+00  0.51311169854E+03  0.51311169854E+03  0.00000000000E+00 0. -1.
          1   -1    0    0  501    0 -0.00000000000E+00 -0.00000000000E+00 -0.77672492265E+03  0.77672492265E+03  0.00000000000E+00 0. -1.
         25    2    1    2    0    0  0.10092319589E+03 -0.83518220306E+02  0.10342264865E+03  0.20852180227E+03  0.12499725268E+03 0.  0.
          2    1    1    2  501    0  0.52365699409E+02  0.33993607029E+02 -0.70455923721E+03  0.70731990679E+03  0.00000000000E+00 0. -1.
          1    1    1    2  502    0 -0.15328889529E+03  0.49524613276E+02  0.33752336446E+03  0.37399491212E+03  0.00000000000E+00 0. -1.
         22    1    3    3    0    0  0.13849904831E+02 -0.24353956379E+02 -0.28352562468E+02  0.39859789935E+02  0.00000000000E+00 0.  1.
         22    1    3    3    0    0  0.87073291054E+02 -0.59164263927E+02  0.13177521112E+03  0.16866201234E+03  0.00000000000E+00 0.  1.
</event>
<event>
 7    1  0.6278987E-006  0.8247365E+02  0.7818608E-02  0.1344716E+00
          2   -1    0    0  502    0  0.00000000000E+00  0.00000000000E+00  0.12524596265E+04  0.12524596265E+04  0.00000000000E+00 0. -1.
          1   -1    0    0  501    0 -0.00000000000E+00 -0.00000000000E+00 -0.28101251699E+03  0.28101251699E+03  0.00000000000E+00 0. -1.
         25    2    1    2    0    0 -0.27414955750E+02  0.13145686168E+02  0.21801992606E+03  0.25314516862E+03  0.12500159748E+03 0.  0.
          2    1    1    2  501    0  0.77993983187E+02  0.31868689355E+02 -0.25554983145E+03  0.26908064057E+03  0.00000000000E+00 0. -1.
          1    1    1    2  502    0 -0.50579027437E+02 -0.45014375523E+02  0.10089770149E+04  0.10112463343E+04  0.00000000000E+00 0. -1.
         22    1    3    3    0    0 -0.49957278105E+02  0.59070386584E+02  0.12575290790E+03  0.14764428215E+03  0.00000000000E+00 0.  1.
         22    1    3    3    0    0  0.22542322355E+02 -0.45924700416E+02  0.92267018164E+02  0.10550088647E+03  0.00000000000E+00 0.  1.
</event>
<event>
 7    1  0.6278987E-006  0.9455809E+02  0.7818608E-02  0.1364259E+00
          2   -1    0    0  502    0  0.00000000000E+00  0.00000000000E+00  0.51692137321E+03  0.51692137321E+03  0.00000000000E+00 0. -1.
          1   -1    0    0  501    0 -0.00000000000E+00 -0.00000000000E+00 -0.41388365116E+03  0.41388365116E+03  0.00000000000E+00 0. -1.
         25    2    1    2    0    0 -0.11771971156E+03  0.55106624521E+02  0.11424969456E+03  0.21347695437E+03  0.12499898712E+03 0.  0.
          2    1    1    2  501    0  0.92733823813E+02 -0.11747315545E+02 -0.35643944613E+03  0.36849238834E+03  0.00000000000E+00 0. -1.
          1    1    1    2  502    0  0.24985887751E+02 -0.43359308976E+02  0.34522747362E+03  0.34883568167E+03  0.00000000000E+00 0. -1.
         22    1    3    3    0    0 -0.48656612501E+02  0.82223239660E+02  0.27696247027E+02  0.99474666019E+02  0.00000000000E+00 0. -1.
         22    1    3    3    0    0 -0.69063099064E+02 -0.27116615138E+02  0.86553447534E+02  0.11400228835E+03  0.00000000000E+00 0. -1.
</event>
<event>
 7    1  0.6278987E-006  0.1190100E+03  0.7818608E-02  0.1256767E+00
          2   -1    0    0  502    0  0.00000000000E+00  0.00000000000E+00  0.16503853534E+04  0.16503853534E+04  0.00000000000E+00 0. -1.
          1   -1    0    0  501    0 -0.00000000000E+00 -0.00000000000E+00 -0.11956622855E+04  0.11956622855E+04  0.00000000000E+00 0. -1.
         25    2    1    2    0    0  0.97514892055E+02  0.19358089090E+03  0.87488514398E+03  0.90996258166E+03  0.12500067744E+03 0.  0.
          2    1    1    2  501    0 -0.26182962066E+02 -0.11577931629E+03 -0.11714347983E+04  0.11774336007E+04  0.00000000000E+00 0. -1.
          1    1    1    2  502    0 -0.71331929989E+02 -0.77801574609E+02  0.75127272220E+03  0.75865145645E+03  0.00000000000E+00 0. -1.
         22    1    3    3    0    0  0.64835108999E+02  0.39348289082E+02  0.45849235522E+03  0.46472262588E+03  0.00000000000E+00 0.  1.
         22    1    3    3    0    0  0.32679783056E+02  0.15423260181E+03  0.41639278877E+03  0.44523995578E+03  0.00000000000E+00 0.  1.
</event>
<event>
 7    1  0.6278987E-006  0.6352692E+02  0.7818608E-02  0.1391818E+00
          2   -1    0    0  502    0  0.00000000000E+00  0.00000000000E+00  0.17347529262E+03  0.17347529262E+03  0.00000000000E+00 0. -1.
          1   -1    0    0  501    0 -0.00000000000E+00 -0.00000000000E+00 -0.12582232159E+04  0.12582232159E+04  0.00000000000E+00 0. -1.
         25    2    1    2    0    0 -0.22393939691E+02 -0.55943944293E+02 -0.30196845211E+03  0.33232460717E+03  0.12499393994E+03 0.  0.
          2    1    1    2  501    0 -0.40537394418E+02  0.43491667955E+02 -0.93359252370E+03  0.93548372826E+03  0.00000000000E+00 0. -1.
          1    1    1    2  502    0  0.62931334108E+02  0.12452276338E+02  0.15081305257E+03  0.16389017306E+03  0.00000000000E+00 0. -1.
         22    1    3    3    0    0  0.28804944486E+02 -0.21298647109E+02 -0.24705190167E+03  0.24963573325E+03  0.00000000000E+00 0.  1.
         22    1    3    3    0    0 -0.51198884176E+02 -0.34645297184E+02 -0.54916550438E+02  0.82688873918E+02  0.00000000000E+00 0.  1.
</event>
<event>
 7    1  0.6278987E-006  0.1511297E+03  0.7818608E-02  0.1294248E+00
          2   -1    0    0  502    0  0.00000000000E+00  0.00000000000E+00  0.97440384615E+03  0.97440384615E+03  0.00000000000E+00 0. -1.
          1   -1    0    0  501    0 -0.00000000000E+00 -0.00000000000E+00 -0.10308419285E+03  0.10308419285E+03  0.00000000000E+00 0. -1.
         25    2    1    2    0    0  0.35022955586E+02 -0.95223261952E+02  0.84023801917E+02  0.18160210025E+03  0.12500098597E+03 0.  0.
          2    1    1    2  501    0  0.10613756004E+02 -0.57051876574E+02 -0.28566535084E+02  0.64680873246E+02  0.00000000000E+00 0. -1.
          1    1    1    2  502    0 -0.45636711590E+02  0.15227513853E+03  0.81586238647E+03  0.83120506550E+03  0.00000000000E+00 0. -1.
         22    1    3    3    0    0 -0.85351879648E+01  0.16997597074E+01 -0.26733334122E+02  0.28114227180E+02  0.00000000000E+00 0. -1.
         22    1    3    3    0    0  0.43558143551E+02 -0.96923021659E+02  0.11075713604E+03  0.15348787307E+03  0.00000000000E+00 0. -1.
</event>
<event>
 7    1  0.6278987E-006  0.1021898E+03  0.7818608E-02  0.1332543E+00
          2   -1    0    0  502    0  0.00000000000E+00  0.00000000000E+00  0.35760990119E+03  0.35760990119E+03  0.00000000000E+00 0. -1.
          1   -1    0    0  501    0 -0.00000000000E+00 -0.00000000000E+00 -0.67610511627E+03  0.67610511627E+03  0.00000000000E+00 0. -1.
         25    2    1    2    0    0 -0.13417561285E+03  0.48901677275E+02  0.13851962721E+03  0.23496194853E+03  0.12499984404E+03 0.  0.
          2    1    1    2  501    0  0.76210245046E+02 -0.67038758081E+02 -0.61821426681E+03  0.62649108232E+03  0.00000000000E+00 0. -1.
          1    1    1    2  502    0  0.57965367800E+02  0.18137080805E+02  0.16119942453E+03  0.17226198661E+03  0.00000000000E+00 0. -1.
         22    1    3    3    0    0  0.22060285675E+02 -0.17424513402E+01  0.33049053341E+02  0.39773512134E+02  0.00000000000E+00 0.  1.
         22    1    3    3    0    0 -0.15623589852E+03  0.50644128616E+02  0.10547057386E+03  0.19518843639E+03  0.00000000000E+00 0.  1.
</event>
<event>
 7    1  0.6278987E-006  0.1047043E+03  0.7818608E-02  0.1331612E+00
          2   -1    0    0  502    0  0.00000000000E+00  0.00000000000E+00  0.72873555326E+03  0.72873555326E+03  0.00000000000E+00 0. -1.
          1   -1    0    0  501    0 -0.00000000000E+00 -0.00000000000E+00 -0.16470301508E+04  0.16470301508E+04  0.00000000000E+00 0. -1.
         25    2    1    2    0    0 -0.14171589264E+03  0.64814535766E+02  0.15933563408E+03  0.25553487372E+03  0.12500363646E+03 0.  0.
          2    1    1    2  501    0  0.45313768041E+02 -0.38966256490E+02 -0.15935880263E+04  0.15947082819E+04  0.00000000000E+00 0. -1.
          1    1    1    2  502    0  0.96402124595E+02 -0.25848279275E+02  0.51595779463E+03  0.52552254852E+03  0.00000000000E+00 0. -1.
         22    1    3    3    0    0 -0.32556311499E+02 -0.37452111563E+02  0.48276834226E+02  0.69233133699E+02  0.00000000000E+00 0.  1.
         22    1    3    3    0    0 -0.10915958114E+03  0.10226664733E+03  0.11105879986E+03  0.18630174002E+03  0.00000000000E+00 0.  1.
</event>
<event>
 7    1  0.6278987E-006  0.7529462E+02  0.7818608E-02  0.1480460E+00
          2   -1    0    0  502    0  0.00000000000E+00  0.00000000000E+00  0.61853014212E+03  0.61853014212E+03  0.00000000000E+00 0. -1.
          1   -1    0    0  501    0 -0.00000000000E+00 -0.00000000000E+00 -0.12610048150E+04  0.12610048150E+04  0.00000000000E+00 0. -1.
         25    2    1    2    0    0  0.54716247558E+02 -0.60368572542E+02  0.24938163254E+03  0.29060963255E+03  0.12499811032E+03 0.  0.
          2    1    1    2  501    0  0.10361503251E+02  0.23576282968E+02 -0.12362463951E+04  0.12365145981E+04  0.00000000000E+00 0. -1.
          1    1    1    2  502    0 -0.65077750809E+02  0.36792289574E+02  0.34439008972E+03  0.35241072645E+03  0.00000000000E+00 0. -1.
         22    1    3    3    0    0  0.71592559757E+00 -0.83835331249E+02  0.10285130586E+03  0.13269237518E+03  0.00000000000E+00 0.  1.
         22    1    3    3    0    0  0.54000321960E+02  0.23466758706E+02  0.14653032668E+03  0.15791725736E+03  0.00000000000E+00 0.  1.
</event>
<event>
 7    1  0.6278987E-006  0.9062973E+02  0.7818608E-02  0.1347943E+00
          2   -1    0    0  502    0  0.00000000000E+00  0.00000000000E+00  0.16877380484E+04  0.16877380484E+04  0.00000000000E+00 0. -1.
          1   -1    0    0  501    0 -0.00000000000E+00 -0.00000000000E+00 -0.45296868844E+03  0.45296868844E+03  0.00000000000E+00 0. -1.
         25    2    1    2    0    0  0.34372880534E+02  0.56301007577E+02 -0.54182456400E+02  0.15136315483E+03  0.12499507066E+03 0.  0.
          2    1    1    2  501    0 -0.89726280370E+02 -0.33321684776E+02 -0.34309553192E+03  0.35619613149E+03  0.00000000000E+00 0. -1.
          1    1    1    2  502    0  0.55353399836E+02 -0.22979322802E+02  0.16320473483E+04  0.16331474506E+04  0.00000000000E+00 0. -1.
         22    1    3    3    0    0  0.25079993252E+02 -0.25150664040E+02  0.20034196152E+02  0.40779050732E+02  0.00000000000E+00 0.  1.
         22    1    3    3    0    0  0.92928872824E+01  0.81451671617E+02 -0.74216652552E+02  0.11058410410E+03  0.00000000000E+00 0.  1.
</event>
<event>
 7    1  0.6278987E-006  0.8349167E+02  0.7818608E-02  0.1393188E+00
          2   -1    0    0  502    0  0.00000000000E+00  0.00000000000E+00  0.18131677007E+03  0.18131677007E+03  0.00000000000E+00 0. -1.
          1   -1    0    0  501    0 -0.00000000000E+00 -0.00000000000E+00 -0.86344106762E+03  0.86344106762E+03  0.00000000000E+00 0. -1.
         25    2    1    2    0    0  0.75846410319E+01 -0.42698168424E+02 -0.21697330842E+03  0.25413213498E+03  0.12500026038E+03 0.  0.
          2    1    1    2  501    0  0.27651502219E+02 -0.35176862896E+02 -0.61579660822E+03  0.61742001907E+03  0.00000000000E+00 0. -1.
          1    1    1    2  502    0 -0.35236143250E+02  0.77875031320E+02  0.15064561909E+03  0.17320568364E+03  0.00000000000E+00 0. -1.
         22    1    3    3    0    0  0.18548573672E+02  0.41872824970E+02 -0.59895405195E+02  0.75397895327E+02  0.00000000000E+00 0. -1.
         22    1    3    3    0    0 -0.10963932640E+02 -0.84570993394E+02 -0.15707790323E+03  0.17873423966E+03  0.00000000000E+00 0. -1.
</event>
<event>
 7    1  0.6278987E-006  0.1264604E+03  0.7818608E-02  0.1350588E+00
          2   -1    0    0  502    0  0.00000000000E+00  0.00000000000E+00  0.13948139342E+04  0.13948139342E+04  0.00000000000E+00 0. -1.
          1   -1    0    0  501    0 -0.00000000000E+00 -0.00000000000E+00 -0.38992203484E+03  0.38992203484E+03  0.00000000000E+00 0. -1.
         25    2    1    2    0    0  0.11069512525E+03 -0.10526841853E+03  0.36388555203E+02  0.20070882842E+03  0.12500022466E+03 0.  0.
          2    1    1    2  501    0 -0.10656463340E+03  0.63479054770E+02 -0.29490088894E+03  0.31992521905E+03  0.00000000000E+00 0. -1.
          1    1    1    2  502    0 -0.41304918499E+01  0.41789363758E+02  0.12634042331E+04  0.12641019216E+04  0.00000000000E+00 0. -1.
         22    1    3    3    0    0 -0.14015440706E+01 -0.60846545298E+02 -0.24525283827E+02  0.65618259252E+02  0.00000000000E+00 0. -1.
         22    1    3    3    0    0  0.11209666932E+03 -0.44421873230E+02  0.60913839030E+02  0.13509056917E+03  0.00000000000E+00 0. -1.
</event>
<event>
 7    1  0.6278987E-006  0.1239905E+03  0.7818608E-02  0.1398062E+00
          2   -1    0    0  502    0  0.00000000000E+00  0.00000000000E+00  0.95443215993E+03  0.95443215993E+03  0.00000000000E+00 0. -1.
          1   -1    0    0  501    0 -0.00000000000E+00 -0.00000000000E+00 -0.72943154604E+03  0.72943154604E+03  0.00000000000E+00 0. -1.
         25    2    1    2    0    0  0.53349247836E+01 -0.11841445486E+03 -0.14618721996E+03  0.22593672876E+03  0.12500503023E+03 0.  0.
          2    1    1    2  501    0 -0.34225025586E+02  0.12071425778E+03 -0.53589169278E+03  0.55038458445E+03  0.00000000000E+00 0. -1.
          1    1    1    2  502    0  0.28890100803E+02 -0.22998029295E+01  0.90707952663E+03  0.90754239276E+03  0.00000000000E+00 0. -1.
         22    1    3    3    0    0 -0.35230529290E+02 -0.10972915971E+03 -0.59196316942E+02  0.12956034357E+03  0.00000000000E+00 0. -1.
         22    1    3    3    0    0  0.40565454074E+02 -0.86852951412E+01 -0.86990903016E+02  0.96376385196E+02  0.00000000000E+00 0. -1.
</event>
<event>
 7    1  0.6278987E-006  0.4733711E+02  0.7818608E-02  0.1552045E+00
          2   -1    0    0  502    0  0.00000000000E+00  0.00000000000E+00  0.10862126582E+04  0.10862126582E+04  0.00000000000E+00 0. -1.
          1   -1    0    0  501    0 -0.00000000000E+00 -0.00000000000E+00 -0.18448701554E+02  0.18448701554E+02  0.00000000000E+00 0. -1.
         25    2    1    2    0    0  0.17064693930E+02  0.40369627527E+02  0.38871309817E+03  0.41066281888E+03  0.12500067005E+03 0.  0.
          2    1    1    2  501    0 -0.24270778055E+02  0.71862074964E+01  0.17667028113E+02  0.30868043798E+02  0.00000000000E+00 0. -1.
          1    1    1    2  502    0  0.72060841245E+01 -0.47555835023E+02  0.66138383040E+03  0.66313049711E+03  0.00000000000E+00 0. -1.
         22    1    3    3    0    0  0.21214423097E+02  0.42019699612E+02  0.39778021056E+03  0.40055561763E+03  0.00000000000E+00 0. -1.
         22    1    3    3    0    0 -0.41497291668E+01 -0.16500720853E+01 -0.90671123863E+01  0.10107201248E+02  0.00000000000E+00 0. -1.
</event>
<event>
 7    1  0.6278987E-006  0.7318107E+02  0.7818608E-02  0.1449885E+00
          2   -1    0    0  502    0  0.00000000000E+00  0.00000000000E+00  0.78474571800E+03  0.78474571800E+03  0.00000000000E+00 0. -1.
          1   -1    0    0  501    0 -0.00000000000E+00 -0.00000000000E+00 -0.65247541034E+03  0.65247541034E+03  0.00000000000E+00 0. -1.
         25    2    1    2    0    0  0.56114454094E+01  0.42982913706E+02 -0.16173490962E+03  0.20895562808E+03  0.12500101731E+03 0.  0.
          2    1    1    2  501    0  0.20981263153E+02  0.25514785214E+02 -0.46476917370E+03  0.46594162991E+03  0.00000000000E+00 0. -1.
          1    1    1    2  502    0 -0.26592708563E+02 -0.68497698920E+02  0.75877439097E+03  0.76232387034E+03  0.00000000000E+00 0. -1.
         22    1    3    3    0    0  0.46317034428E+01  0.62506642946E+02 -0.19872853923E+02  0.65753048692E+02  0.00000000000E+00 0.  1.
         22    1    3    3    0    0  0.97974196660E+00 -0.19523729240E+02 -0.14186205570E+03  0.14320257939E+03  0.00000000000E+00 0.  1.
</event>
<event>
 7    1  0.6278987E-006  0.7712853E+02  0.7818608E-02  0.1479102E+00
          2   -1    0    0  502    0  0.00000000000E+00  0.00000000000E+00  0.74667870278E+02  0.74667870278E+02  0.00000000000E+00 0. -1.
          1   -1    0    0  501    0 -0.00000000000E+00 -0.00000000000E+00 -0.63410715231E+03  0.63410715231E+03  0.00000000000E+00 0. -1.
         25    2    1    2    0    0 -0.91905135975E+02 -0.60424461634E+00 -0.11704541920E+03  0.19434941563E+03  0.12500058429E+03 0.  0.
          2    1    1    2  501    0  0.19851023046E+02 -0.15818622115E+02 -0.43974415274E+03  0.44047611943E+03  0.00000000000E+00 0. -1.
          1    1    1    2  502    0  0.72054112930E+02  0.16422866732E+02 -0.26497101005E+01  0.73949487526E+02  0.00000000000E+00 0. -1.
         22    1    3    3    0    0 -0.93970258061E+02  0.45879382936E+00 -0.14145813796E+03  0.16982645461E+03  0.00000000000E+00 0.  1.
         22    1    3    3    0    0  0.20651220861E+01 -0.10630384457E+01  0.24412718760E+02  0.24522961021E+02  0.00000000000E+00 0.  1.
</event>
<event>
 7    1  0.6278987E-006  0.7424477E+02  0.7818608E-02  0.1378028E+00
          2   -1    0    0  502    0  0.00000000000E+00  0.00000000000E+00  0.12555132683E+04  0.12555132683E+04  0.00000000000E+00 0. -1.
          1   -1    0    0  501    0 -0.00000000000E+00 -0.00000000000E+00 -0.13063342021E+03  0.13063342021E+03  0.00000000000E+00 0. -1.
         25    2    1    2    0    0  0.26482967436E+02 -0.15812608357E+02  0.24328223189E+03  0.27524965828E+03  0.12499897552E+03 0.  0.
          2    1    1    2  501    0 -0.24767156991E+02  0.72666674019E+02 -0.10088238547E+03  0.12677189466E+03  0.00000000000E+00 0. -1.
          1    1    1    2  502    0 -0.17158104449E+01 -0.56854065662E+02  0.98248000170E+03  0.98412513561E+03  0.00000000000E+00 0. -1.
         22    1    3    3    0    0 -0.21381111518E+02  0.43904563701E+02  0.65554317345E+02  0.81744303570E+02  0.00000000000E+00 0.  1.
         22    1    3    3    0    0  0.47864078954E+02 -0.59717172057E+02  0.17772791454E+03  0.19350535471E+03  0.00000000000E+00 0.  1.
</event>
<event>
 7    1  0.6278987E-006  0.1459339E+03  0.7818608E-02  0.1298664E+00
          2   -1    0    0  502    0  0.00000000000E+00  0.00000000000E+00  0.17006922822E+04  0.17006922822E+04  0.00000000000E+00 0. -1.
          1   -1    0    0  501    0 -0.00000000000E+00 -0.00000000000E+00 -0.59169407718E+03  0.59169407718E+03  0.00000000000E+00 0. -1.
         25    2    1    2    0    0  0.13085727889E+03 -0.15127041861E+03  0.10050375001E+03  0.25638154875E+03  0.12499651111E+03 0.  0.
          2    1    1    2  501    0 -0.88090453602E+02  0.11255720456E+03 -0.50325336852E+03  0.52315676927E+03  0.00000000000E+00 0. -1.
          1    1    1    2  502    0 -0.42766825291E+02  0.38713214053E+02  0.15117478235E+04  0.15128480413E+04  0.00000000000E+00 0. -1.
         22    1    3    3    0    0  0.93264645992E+02 -0.89466069184E+02 -0.39802637723E+01  0.12929932029E+03  0.00000000000E+00 0.  1.
         22    1    3    3    0    0  0.37592632901E+02 -0.61804349424E+02  0.10448401378E+03  0.12708222847E+03  0.00000000000E+00 0.  1.
</event>
<event>
 7    1  0.6278987E-006  0.4926436E+02  0.7818608E-02  0.1522240E+00
          2   -1    0    0  502    0  0.00000000000E+00  0.00000000000E+00  0.16276143707E+04  0.16276143707E+04  0.00000000000E+00 0. -1.
          1   -1    0    0  501    0 -0.00000000000E+00 -0.00000000000E+00 -0.24470735162E+03  0.24470735162E+03  0.00000000000E+00 0. -1.
         25    2    1    2    0    0 -0.70117821956E+01  0.63583597850E+02  0.16858702011E+03  0.21940572695E+03  0.12500100265E+03 0.  0.
          2    1    1    2  501    0 -0.16861142763E+02 -0.46165552104E+02 -0.21638975987E+03  0.22190106920E+03  0.00000000000E+00 0. -1.
          1    1    1    2  502    0  0.23872924958E+02 -0.17418045746E+02  0.14307097588E+04  0.14310149262E+04  0.00000000000E+00 0. -1.
         22    1    3    3    0    0 -0.26700876730E+02 -0.22562562207E+02  0.10464799053E+03  0.11033226162E+03  0.00000000000E+00 0.  1.
         22    1    3    3    0    0  0.19689094534E+02  0.86146160058E+02  0.63939029583E+02  0.10907346534E+03  0.00000000000E+00 0.  1.
</event>
<event>
 7    1  0.6357985E-006  0.8243441E+02  0.7818608E-02  0.1376922E+00
          2   -1    0    0  502    0  0.00000000000E+00  0.00000000000E+00  0.55665228785E+03  0.55665228785E+03  0.00000000000E+00 0. -1.
          1   -1    0    0  501    0 -0.00000000000E+00 -0.00000000000E+00 -0.10806822528E+04  0.10806822528E+04  0.00000000000E+00 0. -1.
         25    2    1    2    0    0  0.41720322276E+02  0.61914227952E+01 -0.27647057206E+03  0.30633276367E+03  0.12499946351E+03 0.  0.
          2    1    1    2  501    0 -0.88138300014E+02  0.16562997193E+02 -0.78548997950E+03  0.79059294248E+03  0.00000000000E+00 0. -1.
          1    1    1    2  502    0  0.46417977738E+02 -0.22754419988E+02  0.53793058666E+03  0.54040883445E+03  0.00000000000E+00 0. -1.
         22    1    3    3    0    0  0.26475565337E+02  0.30505537795E+02 -0.27462047986E+03  0.27757512741E+03  0.00000000000E+00 0.  1.
         22    1    3    3    0    0  0.15244756939E+02 -0.24314115000E+02 -0.18500921953E+01  0.28757636264E+02  0.00000000000E+00 0.  1.
</event>
<event>
 7    1  0.6278987E-006  0.7666343E+02  0.7818608E-02  0.1369527E+00
          2   -1    0    0  502    0  0.00000000000E+00  0.00000000000E+00  0.27004492273E+03  0.27004492273E+03  0.00000000000E+00 0. -1.
          1   -1    0    0  501    0 -0.00000000000E+00 -0.00000000000E+00 -0.15768669253E+03  0.15768669253E+03  0.00000000000E+00 0. -1.
         25    2    1    2    0    0 -0.81672240720E+02  0.69399734392E+02  0.14916048118E+02  0.16533100156E+03  0.12500069419E+03 0.  0.
          2    1    1    2  501    0  0.59045932166E+02  0.19585670619E+01 -0.62379665014E+02  0.85915543981E+02  0.00000000000E+00 0. -1.
          1    1    1    2  502    0  0.22626308554E+02 -0.71358301454E+02  0.15982184709E+03  0.17648506972E+03  0.00000000000E+00 0. -1.
         22    1    3    3    0    0  0.26122362580E+02  0.48127473864E+02  0.36457663555E+01  0.54880991059E+02  0.00000000000E+00 0.  1.
         22    1    3    3    0    0 -0.10779460330E+03  0.21272260528E+02  0.11270281762E+02  0.11045001050E+03  0.00000000000E+00 0.  1.
</event>
<event>
 7    1  0.6278987E-006  0.5189713E+02  0.7818608E-02  0.1438700E+00
          2   -1    0    0  502    0  0.00000000000E+00  0.00000000000E+00  0.14461419951E+04  0.14461419951E+04  0.00000000000E+00 0. -1.
          1   -1    0    0  501    0 -0.00000000000E+00 -0.00000000000E+00 -0.12799639528E+03  0.12799639528E+03  0.00000000000E+00 0. -1.
         25    2    1    2    0    0 -0.16806900983E+02 -0.44591149449E+02  0.39336486515E+03  0.41548993299E+03  0.12500049901E+03 0.  0.
          2    1    1    2  501    0 -0.36007683596E+02  0.35572779504E+02 -0.11073121894E+03  0.12175129883E+03  0.00000000000E+00 0. -1.
          1    1    1    2  502    0  0.52814584579E+02  0.90183699448E+01  0.10355119536E+04  0.10368971586E+04  0.00000000000E+00 0. -1.
         22    1    3    3    0    0  0.11666200806E+02 -0.65821276807E+02  0.36195706625E+03  0.36807806038E+03  0.00000000000E+00 0. -1.
         22    1    3    3    0    0 -0.28473101789E+02  0.21230127358E+02  0.31407798895E+02  0.47411872611E+02  0.00000000000E+00 0. -1.
</event>
<event>
 7    1  0.1585142E-005  0.4647723E+02  0.7818608E-02  0.1481901E+00
          2   -1    0    0  502    0  0.00000000000E+00  0.00000000000E+00  0.10967995835E+04  0.10967995835E+04  0.00000000000E+00 0. -1.
          1   -1    0    0  501    0 -0.00000000000E+00 -0.00000000000E+00 -0.91305256249E+03  0.91305256249E+03  0.00000000000E+00 0. -1.
         25    2    1    2    0    0  0.41877137808E+02  0.36387303197E+02 -0.30417784289E+03  0.33350646338E+03  0.12499868204E+03 0.  0.
          2    1    1    2  501    0 -0.40052581282E+02  0.10067349622E+02 -0.59299257094E+03  0.59442892761E+03  0.00000000000E+00 0. -1.
          1    1    1    2  502    0 -0.18245565262E+01 -0.46454652819E+02  0.10809174348E+04  0.10819167549E+04  0.00000000000E+00 0. -1.
         22    1    3    3    0    0  0.18778945284E+02 -0.26780928575E+01 -0.28263312678E+03  0.28326896286E+03  0.00000000000E+00 0. -1.
         22    1    3    3    0    0  0.23098192524E+02  0.39065396055E+02 -0.21544716111E+02  0.50237500526E+02  0.00000000000E+00 0. -1.
</event>
<event>
 7    1  0.6278987E-006  0.8106184E+02  0.7818608E-02  0.1444290E+00
          2   -1    0    0  502    0  0.00000000000E+00  0.00000000000E+00  0.54784046327E+03  0.54784046327E+03  0.00000000000E+00 0. -1.
          1   -1    0    0  501    0 -0.00000000000E+00 -0.00000000000E+00 -0.34829473815E+03  0.34829473815E+03  0.00000000000E+00 0. -1.
         25    2    1    2    0    0  0.27638220053E+02 -0.60203482961E+02  0.12401982376E+02  0.14201041152E+03  0.12499926898E+03 0.  0.
          2    1    1    2  501    0 -0.22223192822E+02 -0.21730890144E+02 -0.27903941588E+03  0.28076519994E+03  0.00000000000E+00 0. -1.
          1    1    1    2  502    0 -0.54150272308E+01  0.81934373105E+02  0.46618315862E+03  0.47335958995E+03  0.00000000000E+00 0. -1.
         22    1    3    3    0    0  0.56316264063E+02 -0.70194194104E+02  0.42260639387E+02  0.99421869452E+02  0.00000000000E+00 0.  1.
         22    1    3    3    0    0 -0.28678044009E+02  0.99907111428E+01 -0.29858657011E+02  0.42588542072E+02  0.00000000000E+00 0.  1.
</event>
<event>
 7    1  0.6278987E-006  0.1018785E+03  0.7818608E-02  0.1374467E+00
          2   -1    0    0  502    0  0.00000000000E+00  0.00000000000E+00  0.37517294737E+04  0.37517294737E+04  0.00000000000E+00 0. -1.
          1   -1    0    0  501    0 -0.00000000000E+00 -0.00000000000E+00 -0.18749541133E+02  0.18749541133E+02  0.00000000000E+00 0. -1.
         25    2    1    2    0    0 -0.48803554901E+02 -0.51775412645E+02  0.76486161133E+03  0.77826613290E+03  0.12498963477E+03 0.  0.
          2    1    1    2  501    0  0.67616902350E+02  0.90085366787E+02  0.25512446088E+03  0.27888332566E+03  0.00000000000E+00 0. -1.
          1    1    1    2  502    0 -0.18813347449E+02 -0.38309954142E+02  0.27129938603E+04  0.27133295563E+04  0.00000000000E+00 0. -1.
         22    1    3    3    0    0 -0.35206815241E+02  0.11790609956E+02  0.59857674639E+03  0.59972715433E+03  0.00000000000E+00 0. -1.
         22    1    3    3    0    0 -0.13596739660E+02 -0.63566022600E+02  0.16628486494E+03  0.17853897856E+03  0.00000000000E+00 0. -1.
</event>
<event>
 7    1  0.6278987E-006  0.6233215E+02  0.7818608E-02  0.1520790E+00
          2   -1    0    0  502    0  0.00000000000E+00  0.00000000000E+00  0.14765902279E+04  0.14765902279E+04  0.00000000000E+00 0. -1.
          1   -1    0    0  501    0 -0.00000000000E+00 -0.00000000000E+00 -0.19415186429E+02  0.19415186429E+02  0.00000000000E+00 0. -1.
         25    2    1    2    0    0 -0.74666489024E+02 -0.15677740044E+02  0.57967071686E+03  0.59788289322E+03  0.12499975162E+03 0.  0.
          2    1    1    2  501    0  0.20323602372E+02 -0.11963660478E+02  0.57967235419E+01  0.24285386331E+02  0.00000000000E+00 0. -1.
          1    1    1    2  502    0  0.54342886652E+02  0.27641400522E+02  0.87170760102E+03  0.87383713473E+03  0.00000000000E+00 0. -1.
         22    1    3    3    0    0 -0.23476316096E+02  0.11627646854E+02  0.49234255708E+03  0.49303907867E+03  0.00000000000E+00 0. -1.
         22    1    3    3    0    0 -0.51190172928E+02 -0.27305386898E+02  0.87328159785E+02  0.10484381455E+03  0.00000000000E+00 0. -1.
</event>
<event>
 7    1  0.6278987E-006  0.1807231E+03  0.7818608E-02  0.1204038E+00
          2   -1    0    0  502    0  0.00000000000E+00  0.00000000000E+00  0.29595559007E+04  0.29595559007E+04  0.00000000000E+00 0. -1.
          1   -1    0    0  501    0 -0.00000000000E+00 -0.00000000000E+00 -0.13096022333E+04  0.13096022333E+04  0.00000000000E+00 0. -1.
         25    2    1    2    0    0 -0.36607707847E+02  0.61497101993E+02  0.83454639775E+01  0.14427991662E+03  0.12500011898E+03 0.  0.
          2    1    1    2  501    0  0.91496909308E+02 -0.16797200592E+03 -0.12330136205E+04  0.12477615427E+04  0.00000000000E+00 0. -1.
          1    1    1    2  502    0 -0.54889201461E+02  0.10647490393E+03  0.28746218239E+04  0.28771166747E+04  0.00000000000E+00 0. -1.
         22    1    3    3    0    0  0.21517727482E+02 -0.17682673763E+02  0.32827736178E+02  0.43050549474E+02  0.00000000000E+00 0.  1.
         22    1    3    3    0    0 -0.58125435328E+02  0.79179775756E+02 -0.24482272201E+02  0.10122936715E+03  0.00000000000E+00 0.  1.
</event>
<event>
 7    1  0.6278987E-006  0.8987854E+02  0.7818608E-02  0.1457094E+00
          2   -1    0    0  502    0  0.00000000000E+00  0.00000000000E+00  0.60880718389E+02  0.60880718389E+02  0.00000000000E+00 0. -1.
          1   -1    0    0  501    0 -0.00000000000E+00 -0.00000000000E+00 -0.86383675019E+03  0.86383675019E+03  0.00000000000E+00 0. -1.
         25    2    1    2    0    0 -0.47188466861E+02 -0.88173241141E+02 -0.13201457716E+03  0.20749661448E+03  0.12500289829E+03 0.  0.
          2    1    1    2  501    0  0.24972157705E+02  0.52211851741E+01 -0.61321722233E+03  0.61374769343E+03  0.00000000000E+00 0. -1.
          1    1    1    2  502    0  0.22216309156E+02  0.82952055967E+02 -0.57724232316E+02  0.10347316067E+03  0.00000000000E+00 0. -1.
         22    1    3    3    0    0  0.18861735694E+02 -0.64218717059E+02 -0.11828389657E+03  0.13590764836E+03  0.00000000000E+00 0.  1.
         22    1    3    3    0    0 -0.66050202555E+02 -0.23954524082E+02 -0.13730680590E+02  0.71588966126E+02  0.00000000000E+00 0.  1.
</event>
<event>
 7    1  0.6278987E-006  0.2044805E+03  0.7818608E-02  0.1245743E+00
          2   -1    0    0  502    0  0.00000000000E+00  0.00000000000E+00  0.20848252145E+04  0.20848252145E+04  0.00000000000E+00 0. -1.
          1   -1    0    0  501    0 -0.00000000000E+00 -0.00000000000E+00 -0.18011687828E+04  0.18011687828E+04  0.00000000000E+00 0. -1.
         25    2    1    2    0    0 -0.12245394851E+03  0.12470306907E+03 -0.24894577039E+03  0.32885528683E+03  0.12500391249E+03 0.  0.
          2    1    1    2  501    0 -0.60611462505E+02 -0.32061765919E+02 -0.15063399172E+04  0.15078997488E+04  0.00000000000E+00 0. -1.
          1    1    1    2  502    0  0.18306541102E+03 -0.92641303148E+02  0.20389421193E+04  0.20492389616E+04  0.00000000000E+00 0. -1.
         22    1    3    3    0    0 -0.67659715893E+02  0.53541488316E+02 -0.21700984369E+03  0.23353329609E+03  0.00000000000E+00 0. -1.
         22    1    3    3    0    0 -0.54794232617E+02  0.71161580752E+02 -0.31935926698E+02  0.95321990733E+02  0.00000000000E+00 0. -1.
</event>
<event>
 7    1  0.6278987E-006  0.1339418E+03  0.7818608E-02  0.1323087E+00
          2   -1    0    0  502    0  0.00000000000E+00  0.00000000000E+00  0.22592598299E+03  0.22592598299E+03  0.00000000000E+00 0. -1.
          1   -1    0    0  501    0 -0.00000000000E+00 -0.00000000000E+00 -0.10354731995E+04  0.10354731995E+04  0.00000000000E+00 0. -1.
         25    2    1    2    0    0 -0.93432748670E+02  0.50303145495E+02 -0.53952672329E+02  0.17261486583E+03  0.12499966434E+03 0.  0.
          2    1    1    2  501    0 -0.79196176319E+01  0.49745704585E+02 -0.89091123179E+03  0.89233411814E+03  0.00000000000E+00 0. -1.
          1    1    1    2  502    0  0.10135236630E+03 -0.10004885008E+03  0.13531668760E+03  0.19645019852E+03  0.00000000000E+00 0. -1.
         22    1    3    3    0    0 -0.53393778396E+02  0.60551985906E+02  0.24137618493E+02  0.84261872725E+02  0.00000000000E+00 0. -1.
         22    1    3    3    0    0 -0.40038970274E+02 -0.10248840411E+02 -0.78090290821E+02  0.88352993107E+02  0.00000000000E+00 0. -1.
</event>
<event>
 7    1  0.6278987E-006  0.1128891E+03  0.7818608E-02  0.1299635E+00
          2   -1    0    0  502    0  0.00000000000E+00  0.00000000000E+00  0.67738053697E+02  0.67738053697E+02  0.00000000000E+00 0. -1.
          1   -1    0    0  501    0 -0.00000000000E+00 -0.00000000000E+00 -0.18951966538E+04  0.18951966538E+04  0.00000000000E+00 0. -1.
         25    2    1    2    0    0 -0.14312135849E+02  0.93035981423E+02 -0.11472503474E+04  0.11578724070E+04  0.12499848108E+03 0.  0.
          2    1    1    2  501    0  0.73726266058E+02  0.51683821384E+01 -0.68616058405E+03  0.69012942380E+03  0.00000000000E+00 0. -1.
          1    1    1    2  502    0 -0.59414130209E+02 -0.98204363561E+02  0.59523313555E+01  0.11493287667E+03  0.00000000000E+00 0. -1.
         22    1    3    3    0    0  0.30411443773E+02  0.41554326824E+02 -0.89758878513E+03  0.89906465017E+03  0.00000000000E+00 0.  1.
         22    1    3    3    0    0 -0.44723579622E+02  0.51481654599E+02 -0.24966156224E+03  0.25880775682E+03  0.00000000000E+00 0.  1.
</event>
<event>
 7    1  0.6278987E-006  0.7918499E+02  0.7818608E-02  0.1440876E+00
          2   -1    0    0  502    0  0.00000000000E+00  0.00000000000E+00  0.40087326877E+03  0.40087326877E+03  0.00000000000E+00 0. -1.
          1   -1    0    0  501    0 -0.00000000000E+00 -0.00000000000E+00 -0.13623302648E+03  0.13623302648E+03  0.00000000000E+00 0. -1.
         25    2    1    2    0    0 -0.62257282959E+02  0.63315652051E+02  0.25517029643E+02  0.15543188885E+03  0.12499244855E+03 0.  0.
          2    1    1    2  501    0  0.71205932158E+02 -0.31928233134E+02 -0.48713644536E+02  0.91993021526E+02  0.00000000000E+00 0. -1.
          1    1    1    2  502    0 -0.89486491992E+01 -0.31387418917E+02  0.28783685718E+03  0.28968138487E+03  0.00000000000E+00 0. -1.
         22    1    3    3    0    0 -0.94019457607E+02  0.35663511622E+02  0.43599278036E+02  0.10960128428E+03  0.00000000000E+00 0.  1.
         22    1    3    3    0    0  0.31762174648E+02  0.27652140429E+02 -0.18082248393E+02  0.45830604574E+02  0.00000000000E+00 0.  1.
</event>
<event>
 7    1  0.6278987E-006  0.9834456E+02  0.7818608E-02  0.1300642E+00
          2   -1    0    0  502    0  0.00000000000E+00  0.00000000000E+00  0.79192944401E+02  0.79192944401E+02  0.00000000000E+00 0. -1.
          1   -1    0    0  501    0 -0.00000000000E+00 -0.00000000000E+00 -0.14044961628E+04  0.14044961628E+04  0.00000000000E+00 0. -1.
         25    2    1    2    0    0 -0.12812081178E+03 -0.94016453222E+02 -0.40537043010E+03  0.45299454840E+03  0.12499935755E+03 0.  0.
          2    1    1    2  501    0  0.36095338657E+02  0.75908738452E+02 -0.93231000811E+03  0.93609132101E+03  0.00000000000E+00 0. -1.
          1    1    1    2  502    0  0.92025473124E+02  0.18107714770E+02  0.12377219780E+02  0.94603237827E+02  0.00000000000E+00 0. -1.
         22    1    3    3    0    0 -0.12034013785E+03 -0.14871623675E+02 -0.27029315646E+03  0.29624534493E+03  0.00000000000E+00 0.  1.
         22    1    3    3    0    0 -0.77806739356E+01 -0.79144829548E+02 -0.13507727364E+03  0.15674920346E+03  0.00000000000E+00 0.  1.
</event>
<event>
 7    1  0.6278987E-006  0.1527607E+03  0.7818608E-02  0.1249544E+00
          2   -1    0    0  502    0  0.00000000000E+00  0.00000000000E+00  0.20523426973E+03  0.20523426973E+03  0.00000000000E+00 0. -1.
          1   -1    0    0  501    0 -0.00000000000E+00 -0.00000000000E+00 -0.77931165412E+03  0.77931165412E+03  0.00000000000E+00 0. -1.
         25    2    1    2    0    0 -0.15653908071E+03 -0.49330085497E+02 -0.11486688752E+03  0.23613018640E+03  0.12500048783E+03 0.  0.
          2    1    1    2  501    0  0.55920056219E+02 -0.68403008468E+02 -0.55784740245E+03  0.56480062737E+03  0.00000000000E+00 0. -1.
          1    1    1    2  502    0  0.10061902449E+03  0.11773309397E+03  0.98636905587E+02  0.18361511008E+03  0.00000000000E+00 0. -1.
         22    1    3    3    0    0 -0.69020086296E+02  0.39588211918E+02 -0.29063660482E+02  0.84709475242E+02  0.00000000000E+00 0.  1.
         22    1    3    3    0    0 -0.87518994415E+02 -0.88918297414E+02 -0.85803227039E+02  0.15142071116E+03  0.00000000000E+00 0.  1.
</event>
<event>
 7    1  0.6278987E-006  0.1790005E+03  0.7818608E-02  0.1221289E+00
          2   -1    0    0  502    0  0.00000000000E+00  0.00000000000E+00  0.80251662468E+03  0.80251662468E+03  0.00000000000E+00 0. -1.
          1   -1    0    0  501    0 -0.00000000000E+00 -0.00000000000E+00 -0.49306599105E+03  0.49306599105E+03  0.00000000000E+00 0. -1.
         25    2    1    2    0    0 -0.16437807205E+03 -0.18177170772E+03  0.13299229945E+03  0.30557060209E+03  0.12500134737E+03 0.  0.
          2    1    1    2  501    0  0.14446269048E+02  0.99638076815E+02 -0.38767991901E+03  0.40053983653E+03  0.00000000000E+00 0. -1.
          1    1    1    2  502    0  0.14993180301E+03  0.82133630909E+02  0.56413825320E+03  0.58947217712E+03  0.00000000000E+00 0. -1.
         22    1    3    3    0    0 -0.66893276558E+01 -0.90771864071E+02  0.27164760721E+02  0.94985275892E+02  0.00000000000E+00 0.  1.
         22    1    3    3    0    0 -0.15768874440E+03 -0.90999843653E+02  0.10582753873E+03  0.21058532619E+03  0.00000000000E+00 0.  1.
</event>
<event>
 7    1  0.6278987E-006  0.3608571E+02  0.7818608E-02  0.1548288E+00
          2   -1    0    0  502    0  0.00000000000E+00  0.00000000000E+00  0.62810284388E+03  0.62810284388E+03  0.00000000000E+00 0. -1.
          1   -1    0    0  501    0 -0.00000000000E+00 -0.00000000000E+00 -0.15524480220E+04  0.15524480220E+04  0.00000000000E+00 0. -1.
         25    2    1    2    0    0 -0.51254134313E+02  0.47719420168E+02 -0.23483644086E+03  0.27509595214E+03  0.12500199831E+03 0.  0.
          2    1    1    2  501    0  0.24994313804E+02 -0.23072326435E+02 -0.12967252439E+04  0.12971713095E+04  0.00000000000E+00 0. -1.
          1    1    1    2  502    0  0.26259820509E+02 -0.24647093733E+02  0.60721650659E+03  0.60828360432E+03  0.00000000000E+00 0. -1.
         22    1    3    3    0    0 -0.39628191189E+02  0.56628518782E+01 -0.22732197933E+03  0.23081972125E+03  0.00000000000E+00 0.  1.
         22    1    3    3    0    0 -0.11625943123E+02  0.42056568290E+02 -0.75144615236E+01  0.44276230890E+02  0.00000000000E+00 0.  1.
</event>
<event>
 7    1  0.6278987E-006  0.7263212E+02  0.7818608E-02  0.1382961E+00
          2   -1    0    0  502    0  0.00000000000E+00  0.00000000000E+00  0.19556001773E+04  0.19556001773E+04  0.00000000000E+00 0. -1.
          1   -1    0    0  501    0 -0.00000000000E+00 -0.00000000000E+00 -0.16966774790E+03  0.16966774790E+03  0.00000000000E+00 0. -1.
         25    2    1    2    0    0 -0.17272445772E+02 -0.46982560440E+02  0.43301812133E+03  0.45347055263E+03  0.12500060133E+03 0.  0.
          2    1    1    2  501    0  0.68825313692E+02  0.25494565239E+02 -0.15044890010E+03  0.16739703761E+03  0.00000000000E+00 0. -1.
          1    1    1    2  502    0 -0.51552867920E+02  0.21487995201E+02  0.15033632081E+04  0.15044003349E+04  0.00000000000E+00 0. -1.
         22    1    3    3    0    0 -0.37961314031E+02 -0.10409841760E+02  0.33325564760E+02  0.51575376247E+02  0.00000000000E+00 0. -1.
         22    1    3    3    0    0  0.20688868258E+02 -0.36572718680E+02  0.39969255657E+03  0.40189517638E+03  0.00000000000E+00 0. -1.
</event>
<event>
 7    1  0.6278987E-006  0.4448234E+02  0.7818608E-02  0.1518111E+00
          2   -1    0    0  502    0  0.00000000000E+00  0.00000000000E+00  0.10222186312E+04  0.10222186312E+04  0.00000000000E+00 0. -1.
          1   -1    0    0  501    0 -0.00000000000E+00 -0.00000000000E+00 -0.33755882708E+03  0.33755882708E+03  0.00000000000E+00 0. -1.
         25    2    1    2    0    0  0.20437865538E+02 -0.42926864453E+01  0.96677728087E+02  0.15939429884E+03  0.12499530347E+03 0.  0.
          2    1    1    2  501    0  0.17282181283E+02  0.28866859552E+02 -0.30470740069E+03  0.30655924290E+03  0.00000000000E+00 0. -1.
          1    1    1    2  502    0 -0.37720046821E+02 -0.24574173107E+02  0.89268947675E+03  0.89382391656E+03  0.00000000000E+00 0. -1.
         22    1    3    3    0    0  0.62612403199E+02  0.32691952973E+02  0.53702841798E+02  0.88730333262E+02  0.00000000000E+00 0. -1.
         22    1    3    3    0    0 -0.42174537661E+02 -0.36984639418E+02  0.42974886289E+02  0.70663965579E+02  0.00000000000E+00 0. -1.
</event>
<event>
 7    1  0.6278987E-006  0.2295589E+03  0.7818608E-02  0.1266452E+00
          2   -1    0    0  502    0  0.00000000000E+00  0.00000000000E+00  0.26310256422E+03  0.26310256422E+03  0.00000000000E+00 0. -1.
          1   -1    0    0  501    0 -0.00000000000E+00 -0.00000000000E+00 -0.10251626293E+04  0.10251626293E+04  0.00000000000E+00 0. -1.
         25    2    1    2    0    0  0.39657282530E+02  0.26334866460E+03 -0.31084577497E+03  0.42798979479E+03  0.12499979768E+03 0.  0.
          2    1    1    2  501    0 -0.43785441218E+02 -0.21375462110E+03 -0.63417831290E+03  0.67066410032E+03  0.00000000000E+00 0. -1.
          1    1    1    2  502    0  0.41281586876E+01 -0.49594043503E+02  0.18296402280E+03  0.18961129840E+03  0.00000000000E+00 0. -1.
         22    1    3    3    0    0  0.69427435247E+02  0.88782999078E+02 -0.15790782365E+03  0.19400378981E+03  0.00000000000E+00 0. -1.
         22    1    3    3    0    0 -0.29770152717E+02  0.17456566552E+03 -0.15293795133E+03  0.23398600498E+03  0.00000000000E+00 0. -1.
</event>
<event>
 7    1  0.6278987E-006  0.5406560E+02  0.7818608E-02  0.1435306E+00
          2   -1    0    0  502    0  0.00000000000E+00  0.00000000000E+00  0.27238021703E+03  0.27238021703E+03  0.00000000000E+00 0. -1.
          1   -1    0    0  501    0 -0.00000000000E+00 -0.00000000000E+00 -0.20999578117E+04  0.20999578117E+04  0.00000000000E+00 0. -1.
         25    2    1    2    0    0  0.16360329768E+02  0.35556727616E+02 -0.15011257899E+04  0.15068293277E+04  0.12499617752E+03 0.  0.
          2    1    1    2  501    0  0.37689920313E+02 -0.32610239504E+02 -0.59220508882E+03  0.59429859923E+03  0.00000000000E+00 0. -1.
          1    1    1    2  502    0 -0.54050250081E+02 -0.29464881127E+01  0.26575328407E+03  0.27121010180E+03  0.00000000000E+00 0. -1.
         22    1    3    3    0    0  0.39365598631E+02 -0.37492381289E+02 -0.63964135340E+03  0.64194734207E+03  0.00000000000E+00 0. -1.
         22    1    3    3    0    0 -0.23005268863E+02  0.73049108906E+02 -0.86148443653E+03  0.86488198565E+03  0.00000000000E+00 0. -1.
</event>
<event>
 7    1  0.6293845E-006  0.1372909E+03  0.7818608E-02  0.1332470E+00
          2   -1    0    0  502    0  0.00000000000E+00  0.00000000000E+00  0.73772538549E+03  0.73772538549E+03  0.00000000000E+00 0. -1.
          1   -1    0    0  501    0 -0.00000000000E+00 -0.00000000000E+00 -0.17257373258E+04  0.17257373258E+04  0.00000000000E+00 0. -1.
         25    2    1    2    0    0 -0.15699446874E+03 -0.69420614048E+02 -0.32551576014E+03  0.38866387971E+03  0.12503046197E+03 0.  0.
          2    1    1    2  501    0  0.44481679023E+02 -0.82328601364E+01 -0.13616518011E+04  0.13624030341E+04  0.00000000000E+00 0. -1.
          1    1    1    2  502    0  0.11251278972E+03  0.77653474185E+02  0.69915562098E+03  0.71239579747E+03  0.00000000000E+00 0. -1.
         22    1    3    3    0    0 -0.16365380173E+03 -0.90173111621E+02 -0.26426189164E+03  0.32364811795E+03  0.00000000000E+00 0.  1.
         22    1    3    3    0    0  0.66593329829E+01  0.20752497573E+02 -0.61253868497E+02  0.65015761759E+02  0.00000000000E+00 0.  1.
</event>
<event>
 7    1  0.6278987E-006  0.1124725E+03  0.7818608E-02  0.1355387E+00
          2   -1    0    0  502    0  0.00000000000E+00  0.00000000000E+00  0.47154626254E+03  0.47154626254E+03  0.00000000000E+00 0. -1.
          1   -1    0    0  501    0 -0.00000000000E+00 -0.00000000000E+00 -0.11564704258E+04  0.11564704258E+04  0.00000000000E+00 0. -1.
         25    2    1    2    0    0  0.10007247871E+03 -0.10170503434E+03  0.13397014045E+03  0.23223531404E+03  0.12500730999E+03 0.  0.
          2    1    1    2  501    0 -0.98748442462E+01  0.44241155870E+02 -0.10969403227E+04  0.10978765249E+04  0.00000000000E+00 0. -1.
          1    1    1    2  502    0 -0.90197634467E+02  0.57463878466E+02  0.27804601900E+03  0.29790484936E+03  0.00000000000E+00 0. -1.
         22    1    3    3    0    0  0.30642108592E+02 -0.30593183664E+02 -0.21008294887E+02  0.48127228881E+02  0.00000000000E+00 0. -1.
         22    1    3    3    0    0  0.69430370121E+02 -0.71111850672E+02  0.15497843534E+03  0.18410808516E+03  0.00000000000E+00 0. -1.
</event>
<event>
 7    1  0.6278987E-006  0.8912275E+02  0.7818608E-02  0.1317818E+00
          2   -1    0    0  502    0  0.00000000000E+00  0.00000000000E+00  0.33857063057E+03  0.33857063057E+03  0.00000000000E+00 0. -1.
          1   -1    0    0  501    0 -0.00000000000E+00 -0.00000000000E+00 -0.16922217205E+04  0.16922217205E+04  0.00000000000E+00 0. -1.
         25    2    1    2    0    0 -0.49656280193E+02 -0.29343534467E+02 -0.22443799377E+02  0.13948123757E+03  0.12499800929E+03 0.  0.
          2    1    1    2  501    0  0.78728051566E+02 -0.44489037011E+02 -0.16043395231E+04  0.16068860214E+04  0.00000000000E+00 0. -1.
          1    1    1    2  502    0 -0.29071771373E+02  0.73832571478E+02  0.27313223258E+03  0.28442509203E+03  0.00000000000E+00 0. -1.
         22    1    3    3    0    0 -0.82289786885E+02 -0.44849422603E+02 -0.36689829649E+02  0.10064404271E+03  0.00000000000E+00 0. -1.
         22    1    3    3    0    0  0.32633506692E+02  0.15505888136E+02  0.14246030271E+02  0.38837194858E+02  0.00000000000E+00 0. -1.
</event>
<event>
 7    1  0.6278987E-006  0.8989554E+02  0.7818608E-02  0.1375545E+00
          2   -1    0    0  502    0  0.00000000000E+00  0.00000000000E+00  0.37966115123E+03  0.37966115123E+03  0.00000000000E+00 0. -1.
          1   -1    0    0  501    0 -0.00000000000E+00 -0.00000000000E+00 -0.46224781104E+03  0.46224781104E+03  0.00000000000E+00 0. -1.
         25    2    1    2    0    0 -0.38212514613E+02  0.54849700206E+02 -0.26103919962E+03  0.29704448092E+03  0.12500109607E+03 0.  0.
          2    1    1    2  501    0  0.49364740799E+02 -0.10147736943E+03 -0.16399894003E+03  0.19907331934E+03  0.00000000000E+00 0. -1.
          1    1    1    2  502    0 -0.11152226186E+02  0.46627669225E+02  0.34245147984E+03  0.34579116202E+03  0.00000000000E+00 0. -1.
         22    1    3    3    0    0 -0.19282595835E+02  0.95226436999E+02 -0.17906431825E+03  0.20372511597E+03  0.00000000000E+00 0.  1.
         22    1    3    3    0    0 -0.18929918778E+02 -0.40376736793E+02 -0.81974881371E+02  0.93319364951E+02  0.00000000000E+00 0.  1.
</event>
<event>
 7    1  0.6278987E-006  0.5958107E+02  0.7818608E-02  0.1517882E+00
          2   -1    0    0  502    0  0.00000000000E+00  0.00000000000E+00  0.14174133164E+03  0.14174133164E+03  0.00000000000E+00 0. -1.
          1   -1    0    0  501    0 -0.00000000000E+00 -0.00000000000E+00 -0.26706720680E+04  0.26706720680E+04  0.00000000000E+00 0. -1.
         25    2    1    2    0    0 -0.32798814989E+02  0.30050033570E+02 -0.11128219298E+04  0.11207033265E+04  0.12499812683E+03 0.  0.
          2    1    1    2  501    0  0.57331361009E+02 -0.24478345780E+02 -0.15521303313E+04  0.15533816786E+04  0.00000000000E+00 0. -1.
          1    1    1    2  502    0 -0.24532546020E+02 -0.55716877900E+01  0.13602152476E+03  0.13832839447E+03  0.00000000000E+00 0. -1.
         22    1    3    3    0    0 -0.36100831667E+02  0.73773061020E+02 -0.54055458121E+03  0.54675862119E+03  0.00000000000E+00 0.  1.
         22    1    3    3    0    0  0.33020166780E+01 -0.43723027450E+02 -0.57226734861E+03  0.57394470529E+03  0.00000000000E+00 0.  1.
</event>
<event>
 7    1  0.6278987E-006  0.4724602E+02  0.7818608E-02  0.1475752E+00
          2   -1    0    0  502    0  0.00000000000E+00  0.00000000000E+00  0.61376791518E+03  0.61376791518E+03  0.00000000000E+00 0. -1.
          1   -1    0    0  501    0 -0.00000000000E+00 -0.00000000000E+00 -0.40008062670E+03  0.40008062670E+03  0.00000000000E+00 0. -1.
         25    2    1    2    0    0  0.13581132795E+02  0.83947677654E+02  0.37161996884E+02  0.15568492152E+03  0.12500048409E+03 0.  0.
          2    1    1    2  501    0  0.59764178645E+01 -0.46290686269E+02 -0.33834424643E+03  0.34154849480E+03  0.00000000000E+00 0. -1.
          1    1    1    2  502    0 -0.19557550659E+02 -0.37656991385E+02  0.51486953802E+03  0.51661512557E+03  0.00000000000E+00 0. -1.
         22    1    3    3    0    0  0.59820691357E+02  0.91248178928E+01  0.29708562824E+02  0.67411987962E+02  0.00000000000E+00 0.  1.
         22    1    3    3    0    0 -0.46239558562E+02  0.74822859761E+02  0.74534340599E+01  0.88272933553E+02  0.00000000000E+00 0.  1.
</event>
<event>
 7    1  0.6278987E-006  0.9886946E+02  0.7818608E-02  0.1416947E+00
          2   -1    0    0  502    0  0.00000000000E+00  0.00000000000E+00  0.32205561152E+04  0.32205561152E+04  0.00000000000E+00 0. -1.
          1   -1    0    0  501    0 -0.00000000000E+00 -0.00000000000E+00 -0.95378041564E+01  0.95378041564E+01  0.00000000000E+00 0. -1.
         25    2    1    2    0    0 -0.57564970056E+02  0.43315213660E+02  0.74480461337E+03  0.75864954648E+03  0.12500115505E+03 0.  0.
          2    1    1    2  501    0 -0.25783767043E+02  0.17830190286E+02  0.16754267218E+03  0.17045018430E+03  0.00000000000E+00 0. -1.
          1    1    1    2  502    0  0.83348737099E+02 -0.61145403946E+02  0.22986710255E+04  0.23009941885E+04  0.00000000000E+00 0. -1.
         22    1    3    3    0    0 -0.53549886866E+02  0.28802092779E+02  0.74049431016E+03  0.74298652364E+03  0.00000000000E+00 0.  1.
         22    1    3    3    0    0 -0.40150831902E+01  0.14513120881E+02  0.43103032129E+01  0.15663022841E+02  0.00000000000E+00 0.  1.
</event>
<event>
 7    1  0.6278987E-006  0.1319588E+03  0.7818608E-02  0.1307988E+00
          2   -1    0    0  502    0  0.00000000000E+00  0.00000000000E+00  0.31592813836E+03  0.31592813836E+03  0.00000000000E+00 0. -1.
          1   -1    0    0  501    0 -0.00000000000E+00 -0.00000000000E+00 -0.65033409476E+03  0.65033409476E+03  0.00000000000E+00 0. -1.
         25    2    1    2    0    0 -0.38731648472E+02 -0.13443312230E+03 -0.19339541838E+03  0.26944305435E+03  0.12500146689E+03 0.  0.
          2    1    1    2  501    0 -0.19737408871E+02  0.13103229435E+03 -0.40514747138E+03  0.42626693637E+03  0.00000000000E+00 0. -1.
          1    1    1    2  502    0  0.58469057343E+02  0.34008279452E+01  0.26413693336E+03  0.27055224239E+03  0.00000000000E+00 0. -1.
         22    1    3    3    0    0  0.29569083769E+02 -0.11869799881E+01 -0.70983188590E+01  0.30432314520E+02  0.00000000000E+00 0. -1.
         22    1    3    3    0    0 -0.68300732241E+02 -0.13324614231E+03 -0.18629709952E+03  0.23901073983E+03  0.00000000000E+00 0. -1.
</event>
<event>
 7    1  0.6278987E-006  0.9332269E+02  0.7818608E-02  0.1333519E+00
          2   -1    0    0  502    0  0.00000000000E+00  0.00000000000E+00  0.29295512791E+03  0.29295512791E+03  0.00000000000E+00 0. -1.
          1   -1    0    0  501    0 -0.00000000000E+00 -0.00000000000E+00 -0.92674714609E+03  0.92674714609E+03  0.00000000000E+00 0. -1.
         25    2    1    2    0    0  0.51432798892E+02  0.12739588743E+03 -0.36614128356E+02  0.18932638931E+03  0.12501536849E+03 0.  0.
          2    1    1    2  501    0 -0.67034405056E+02 -0.63326417265E+02 -0.80606750496E+03  0.81132525484E+03  0.00000000000E+00 0. -1.
          1    1    1    2  502    0  0.15601606164E+02 -0.64069470170E+02  0.20888961514E+03  0.21905062985E+03  0.00000000000E+00 0. -1.
         22    1    3    3    0    0  0.82425347526E+02  0.43218489174E+02 -0.35524782450E+02  0.99618200593E+02  0.00000000000E+00 0.  1.
         22    1    3    3    0    0 -0.30992548634E+02  0.84177398261E+02 -0.10893459057E+01  0.89708188719E+02  0.00000000000E+00 0.  1.
</event>
<event>
 7    1  0.6278987E-006  0.2515240E+03  0.7818608E-02  0.1190035E+00
          2   -1    0    0  502    0  0.00000000000E+00  0.00000000000E+00  0.11362124213E+04  0.11362124213E+04  0.00000000000E+00 0. -1.
          1   -1    0    0  501    0 -0.00000000000E+00 -0.00000000000E+00 -0.22441892812E+03  0.22441892812E+03  0.00000000000E+00 0. -1.
         25    2    1    2    0    0  0.15612344382E+03  0.26985478688E+03  0.40569487460E+03  0.52669668668E+03  0.12499973106E+03 0.  0.
          2    1    1    2  501    0 -0.17073101879E+03 -0.17063958825E+03 -0.68288197920E+02  0.25085897997E+03  0.00000000000E+00 0. -1.
          1    1    1    2  502    0  0.14607574968E+02 -0.99215198634E+02  0.57438681646E+03  0.58307568275E+03  0.00000000000E+00 0. -1.
         22    1    3    3    0    0  0.13066158322E+03  0.24954516230E+03  0.28122486094E+03  0.39803600310E+03  0.00000000000E+00 0. -1.
         22    1    3    3    0    0  0.25461860601E+02  0.20309624581E+02  0.12447001366E+03  0.12866068357E+03  0.00000000000E+00 0. -1.
</event>
<event>
 7    1  0.6278987E-006  0.1002546E+03  0.7818608E-02  0.1351386E+00
          2   -1    0    0  502    0  0.00000000000E+00  0.00000000000E+00  0.43182203584E+03  0.43182203584E+03  0.00000000000E+00 0. -1.
          1   -1    0    0  501    0 -0.00000000000E+00 -0.00000000000E+00 -0.38382865585E+03  0.38382865585E+03  0.00000000000E+00 0. -1.
         25    2    1    2    0    0  0.21133322423E+02 -0.72762910800E+02 -0.17561973431E+03  0.22848973034E+03  0.12499682911E+03 0.  0.
          2    1    1    2  501    0 -0.46025467585E+02 -0.25485605538E+02 -0.17143114143E+03  0.17932232434E+03  0.00000000000E+00 0. -1.
          1    1    1    2  502    0  0.24892145162E+02  0.98248516337E+02  0.39504425573E+03  0.40783863701E+03  0.00000000000E+00 0. -1.
         22    1    3    3    0    0 -0.46199917529E+02 -0.60252314165E+02 -0.10986297657E+03  0.13354642400E+03  0.00000000000E+00 0.  1.
         22    1    3    3    0    0  0.67333239952E+02 -0.12510596635E+02 -0.65756757739E+02  0.94943306341E+02  0.00000000000E+00 0.  1.
</event>
<event>
 7    1  0.6278987E-006  0.1212621E+03  0.7818608E-02  0.1338306E+00
          2   -1    0    0  502    0  0.00000000000E+00  0.00000000000E+00  0.28607641456E+03  0.28607641456E+03  0.00000000000E+00 0. -1.
          1   -1    0    0  501    0 -0.00000000000E+00 -0.00000000000E+00 -0.32514479862E+04  0.32514479862E+04  0.00000000000E+00 0. -1.
         25    2    1    2    0    0 -0.51190710564E+02 -0.13777073281E+03 -0.84988325232E+02  0.21083244377E+03  0.12500416094E+03 0.  0.
          2    1    1    2  501    0  0.44895131233E+02  0.18804447301E+02 -0.30874320995E+04  0.30878157570E+04  0.00000000000E+00 0. -1.
          1    1    1    2  502    0  0.62955793313E+01  0.11896628551E+03  0.20704885304E+03  0.23887620006E+03  0.00000000000E+00 0. -1.
         22    1    3    3    0    0 -0.27902486054E+02 -0.13146055317E+03 -0.11176345905E+03  0.17478986397E+03  0.00000000000E+00 0.  1.
         22    1    3    3    0    0 -0.23288224510E+02 -0.63101796477E+01  0.26775133816E+02  0.36042579804E+02  0.00000000000E+00 0.  1.
</event>
<event>
 7    1  0.6278987E-006  0.5940933E+02  0.7818608E-02  0.1401497E+00
          2   -1    0    0  502    0  0.00000000000E+00  0.00000000000E+00  0.24913454805E+04  0.24913454805E+04  0.00000000000E+00 0. -1.
          1   -1    0    0  501    0 -0.00000000000E+00 -0.00000000000E+00 -0.18389501585E+04  0.18389501585E+04  0.00000000000E+00 0. -1.
         25    2    1    2    0    0  0.18501952271E+02 -0.53325182995E+02  0.96931234990E+02  0.16794514080E+03  0.12499603442E+03 0.  0.
          2    1    1    2  501    0 -0.58217384521E+02  0.86894545019E+01 -0.18025844109E+04  0.18035452112E+04  0.00000000000E+00 0. -1.
          1    1    1    2  502    0  0.39715432250E+02  0.44635728493E+02  0.23580484979E+04  0.23588052870E+04  0.00000000000E+00 0. -1.
         22    1    3    3    0    0  0.37333340692E+01  0.28475190496E+02 -0.11827278596E+02  0.31058956454E+02  0.00000000000E+00 0. -1.
         22    1    3    3    0    0  0.14768618202E+02 -0.81800373491E+02  0.10875851359E+03  0.13688618434E+03  0.00000000000E+00 0. -1.
</event>
<event>
 7    1  0.6278987E-006  0.9133485E+02  0.7818608E-02  0.1374440E+00
          2   -1    0    0  502    0  0.00000000000E+00  0.00000000000E+00  0.30626072403E+04  0.30626072403E+04  0.00000000000E+00 0. -1.
          1   -1    0    0  501    0 -0.00000000000E+00 -0.00000000000E+00 -0.73201992241E+02  0.73201992241E+02  0.00000000000E+00 0. -1.
         25    2    1    2    0    0  0.86800331424E+02  0.68792339514E+02  0.32281822237E+03  0.36345995223E+03  0.12499939469E+03 0.  0.
          2    1    1    2  501    0 -0.45948837936E+02  0.12496175705E+02 -0.41240511987E+02  0.62993888147E+02  0.00000000000E+00 0. -1.
          1    1    1    2  502    0 -0.40851493488E+02 -0.81288515220E+02  0.27078275377E+04  0.27093553922E+04  0.00000000000E+00 0. -1.
         22    1    3    3    0    0  0.19057422877E+02  0.14509210999E+02 -0.48924189307E+01  0.24446642582E+02  0.00000000000E+00 0. -1.
         22    1    3    3    0    0  0.67742908547E+02  0.54283128515E+02  0.32771064130E+03  0.33901330965E+03  0.00000000000E+00 0. -1.
</event>
<event>
 7    1  0.6278987E-006  0.8134506E+02  0.7818608E-02  0.1377096E+00
          2   -1    0    0  502    0  0.00000000000E+00  0.00000000000E+00  0.11446909925E+03  0.11446909925E+03  0.00000000000E+00 0. -1.
          1   -1    0    0  501    0 -0.00000000000E+00 -0.00000000000E+00 -0.12684686358E+04  0.12684686358E+04  0.00000000000E+00 0. -1.
         25    2    1    2    0    0  0.54011207467E+02 -0.55463136784E+02 -0.44359195298E+02  0.15357554949E+03  0.12499736445E+03 0.  0.
          2    1    1    2  501    0 -0.42671892934E+02 -0.30261153655E+02 -0.11373557055E+04  0.11385581358E+04  0.00000000000E+00 0. -1.
          1    1    1    2  502    0 -0.11339314533E+02  0.85724290439E+02  0.27715364265E+02  0.90804049699E+02  0.00000000000E+00 0. -1.
         22    1    3    3    0    0 -0.37516012415E+02 -0.38382451422E+02 -0.11925007037E+02  0.54980628929E+02  0.00000000000E+00 0. -1.
         22    1    3    3    0    0  0.91527219882E+02 -0.17080685362E+02 -0.32434188260E+02  0.98594920558E+02  0.00000000000E+00 0. -1.
</event>
<event>
 7    1  0.6278987E-006  0.6481719E+02  0.7818608E-02  0.1439765E+00
          2   -1    0    0  502    0  0.00000000000E+00  0.00000000000E+00  0.67531402117E+03  0.67531402117E+03  0.00000000000E+00 0. -1.
          1   -1    0    0  501    0 -0.00000000000E+00 -0.00000000000E+00 -0.74614498797E+03  0.74614498797E+03  0.00000000000E+00 0. -1.
         25    2    1    2    0    0  0.20851938736E+02 -0.26100652873E+02 -0.21751928875E+03  0.25308782052E+03  0.12499102563E+03 0.  0.
          2    1    1    2  501    0 -0.60231776058E+02  0.34204527124E+02 -0.50787380294E+03  0.51257547370E+03  0.00000000000E+00 0. -1.
          1    1    1    2  502    0  0.39379837322E+02 -0.81038742507E+01  0.65456212489E+03  0.65579571492E+03  0.00000000000E+00 0. -1.
         22    1    3    3    0    0  0.17425262852E+02 -0.44822881835E+02 -0.22684932174E+03  0.23189080468E+03  0.00000000000E+00 0. -1.
         22    1    3    3    0    0  0.34266758839E+01  0.18722228961E+02  0.93300329909E+01  0.21197015840E+02  0.00000000000E+00 0. -1.
</event>
<event>
 7    1  0.6278987E-006  0.1240154E+03  0.7818608E-02  0.1304554E+00
          2   -1    0    0  502    0  0.00000000000E+00  0.00000000000E+00  0.25050388028E+03  0.25050388028E+03  0.00000000000E+00 0. -1.
          1   -1    0    0  501    0 -0.00000000000E+00 -0.00000000000E+00 -0.17319783379E+04  0.17319783379E+04  0.00000000000E+00 0. -1.
         25    2    1    2    0    0 -0.63283411081E+02 -0.22583105223E+02 -0.20331189372E+03  0.24794520750E+03  0.12500525202E+03 0.  0.
          2    1    1    2  501    0 -0.64145735336E+02  0.45012740140E+01 -0.14874510971E+04  0.14888403887E+04  0.00000000000E+00 0. -1.
          1    1    1    2  502    0  0.12742914642E+03  0.18081831209E+02  0.20928853313E+03  0.24569662203E+03  0.00000000000E+00 0. -1.
         22    1    3    3    0    0 -0.20447609741E+02  0.50106905320E+02 -0.10697023274E+03  0.11988093009E+03  0.00000000000E+00 0. -1.
         22    1    3    3    0    0 -0.42835801340E+02 -0.72690010543E+02 -0.96341660974E+02  0.12806427741E+03  0.00000000000E+00 0. -1.
</event>
<event>
 7    1  0.6278987E-006  0.1333364E+03  0.7818608E-02  0.1356618E+00
          2   -1    0    0  502    0  0.00000000000E+00  0.00000000000E+00  0.62685413749E+03  0.62685413749E+03  0.00000000000E+00 0. -1.
          1   -1    0    0  501    0 -0.00000000000E+00 -0.00000000000E+00 -0.36677718625E+03  0.36677718625E+03  0.00000000000E+00 0. -1.
         25    2    1    2    0    0  0.14721468184E+03 -0.63399188459E+02 -0.32288616802E+03  0.38153050800E+03  0.12497372279E+03 0.  0.
          2    1    1    2  501    0 -0.17889742796E+02  0.33344807130E+02  0.49180879481E+02  0.62053831198E+02  0.00000000000E+00 0. -1.
          1    1    1    2  502    0 -0.12932493905E+03  0.30054381329E+02  0.53378223978E+03  0.55004698454E+03  0.00000000000E+00 0. -1.
         22    1    3    3    0    0  0.64295449347E+02 -0.51143389647E+02 -0.27046652507E+03  0.28266887394E+03  0.00000000000E+00 0. -1.
         22    1    3    3    0    0  0.82919232497E+02 -0.12255798813E+02 -0.52419642956E+02  0.98861634065E+02  0.00000000000E+00 0. -1.
</event>
<event>
 7    1  0.6278987E-006  0.1289647E+03  0.7818608E-02  0.1258411E+00
          2   -1    0    0  502    0  0.00000000000E+00  0.00000000000E+00  0.12265823104E+04  0.12265823104E+04  0.00000000000E+00 0. -1.
          1   -1    0    0  501    0 -0.00000000000E+00 -0.00000000000E+00 -0.32297302772E+03  0.32297302772E+03  0.00000000000E+00 0. -1.
         25    2    1    2    0    0 -0.18989472250E+03  0.87541044704E+02  0.42210585150E+03  0.48736153801E+03  0.12499791485E+03 0.  0.
          2    1    1    2  501    0  0.94091116339E+02 -0.84968224664E+02 -0.27333002306E+03  0.30130057896E+03  0.00000000000E+00 0. -1.
          1    1    1    2  502    0  0.95803606166E+02 -0.25728200399E+01  0.75483345428E+03  0.76089322119E+03  0.00000000000E+00 0. -1.
         22    1    3    3    0    0 -0.10804592551E+03  0.87562018601E+02  0.15618133099E+03  0.20912588857E+03  0.00000000000E+00 0. -1.
         22    1    3    3    0    0 -0.81848796993E+02 -0.20973897414E-01  0.26592452051E+03  0.27823564944E+03  0.00000000000E+00 0. -1.
</event>
<event>
 7    1  0.6278987E-006  0.7583010E+02  0.7818608E-02  0.1376949E+00
          2   -1    0    0  502    0  0.00000000000E+00  0.00000000000E+00  0.78164309998E+03  0.78164309998E+03  0.00000000000E+00 0. -1.
          1   -1    0    0  501    0 -0.00000000000E+00 -0.00000000000E+00 -0.16063191320E+03  0.16063191320E+03  0.00000000000E+00 0. -1.
         25    2    1    2    0    0  0.78321502985E+02 -0.97672819603E+02  0.47974908573E+03  0.51133022886E+03  0.12500072064E+03 0.  0.
          2    1    1    2  501    0 -0.60316567340E+02  0.44451009649E+02 -0.13209937378E+03  0.15186910518E+03  0.00000000000E+00 0. -1.
          1    1    1    2  502    0 -0.18004935645E+02  0.53221809953E+02  0.27336147483E+03  0.27907567914E+03  0.00000000000E+00 0. -1.
         22    1    3    3    0    0  0.57407367697E+02 -0.12031281689E+03  0.29099598195E+03  0.32007724269E+03  0.00000000000E+00 0. -1.
         22    1    3    3    0    0  0.20914135289E+02  0.22639997285E+02  0.18875310378E+03  0.19125298617E+03  0.00000000000E+00 0. -1.
</event>
<event>
 7    1  0.6278987E-006  0.5621771E+02  0.7818608E-02  0.1528347E+00
          2   -1    0    0  502    0  0.00000000000E+00  0.00000000000E+00  0.21586825971E+04  0.21586825971E+04  0.00000000000E+00 0. -1.
          1   -1    0    0  501    0 -0.00000000000E+00 -0.00000000000E+00 -0.27238207377E+02  0.27238207377E+02  0.00000000000E+00 0. -1.
         25    2    1    2    0    0 -0.55497317393E+02 -0.14438646764E+02  0.61700930272E+03  0.63215067136E+03  0.12500225960E+03 0.  0.
          2    1    1    2  501    0  0.55508553873E+02 -0.10429030001E+02  0.21199201260E+02  0.60327194149E+02  0.00000000000E+00 0. -1.
          1    1    1    2  502    0 -0.11236479841E-01  0.24867676765E+02  0.14932358857E+04  0.14934429390E+04  0.00000000000E+00 0. -1.
         22    1    3    3    0    0 -0.93490152376E+02 -0.24257223124E+02  0.39050173685E+03  0.40226909892E+03  0.00000000000E+00 0. -1.
         22    1    3    3    0    0  0.37992834983E+02  0.98185763599E+01  0.22650756587E+03  0.22988157244E+03  0.00000000000E+00 0. -1.
</event>
<event>
 7    1  0.6278987E-006  0.2797367E+03  0.7818608E-02  0.1314995E+00
          2   -1    0    0  502    0  0.00000000000E+00  0.00000000000E+00  0.20271602475E+04  0.20271602475E+04  0.00000000000E+00 0. -1.
          1   -1    0    0  501    0 -0.00000000000E+00 -0.00000000000E+00 -0.93117472668E+03  0.93117472668E+03  0.00000000000E+00 0. -1.
         25    2    1    2    0    0 -0.18284510021E+01 -0.29516103266E+03  0.11517227840E+03  0.34060686975E+03  0.12500003030E+03 0.  0.
          2    1    1    2  501    0  0.20744626991E+02  0.27742594582E+03 -0.79471937207E+03  0.84200616108E+03  0.00000000000E+00 0. -1.
          1    1    1    2  502    0 -0.18916175989E+02  0.17735086841E+02  0.17755326145E+04  0.17757219434E+04  0.00000000000E+00 0. -1.
         22    1    3    3    0    0  0.32064047602E+02 -0.16191703163E+03  0.11831272353E+03  0.20308404376E+03  0.00000000000E+00 0.  1.
         22    1    3    3    0    0 -0.33892498604E+02 -0.13324400103E+03 -0.31404451349E+01  0.13752282599E+03  0.00000000000E+00 0.  1.
</event>
<event>
 7    1  0.6278987E-006  0.6271354E+02  0.7818608E-02  0.1470685E+00
          2   -1    0    0  502    0  0.00000000000E+00  0.00000000000E+00  0.44405510759E+03  0.44405510759E+03  0.00000000000E+00 0. -1.
          1   -1    0    0  501    0 -0.00000000000E+00 -0.00000000000E+00 -0.16175075705E+04  0.16175075705E+04  0.00000000000E+00 0. -1.
         25    2    1    2    0    0  0.38818573068E+02 -0.64615092972E-01  0.82442633880E+02  0.15468655889E+03  0.12499703128E+03 0.  0.
          2    1    1    2  501    0 -0.56110539738E+02  0.28339825576E+02 -0.15799152287E+04  0.15811652881E+04  0.00000000000E+00 0. -1.
          1    1    1    2  502    0  0.17291966670E+02 -0.28275210483E+02  0.32402013189E+03  0.32571083112E+03  0.00000000000E+00 0. -1.
         22    1    3    3    0    0  0.30720392528E+02 -0.26723632246E+02  0.10890069951E+03  0.11626374066E+03  0.00000000000E+00 0. -1.
         22    1    3    3    0    0  0.80981805401E+01  0.26659017153E+02 -0.26458065632E+02  0.38422818229E+02  0.00000000000E+00 0. -1.
</event>
<event>
 7    1  0.6278987E-006  0.1748430E+03  0.7818608E-02  0.1202119E+00
          2   -1    0    0  502    0  0.00000000000E+00  0.00000000000E+00  0.17588880007E+04  0.17588880007E+04  0.00000000000E+00 0. -1.
          1   -1    0    0  501    0 -0.00000000000E+00 -0.00000000000E+00 -0.50085090208E+03  0.50085090208E+03  0.00000000000E+00 0. -1.
         25    2    1    2    0    0  0.28082420701E+03 -0.24248207825E+02 -0.38785772272E+02  0.31077094761E+03  0.12499613963E+03 0.  0.
          2    1    1    2  501    0 -0.11198140390E+03  0.58653669702E+02 -0.30903576881E+03  0.33389099148E+03  0.00000000000E+00 0. -1.
          1    1    1    2  502    0 -0.16884280311E+03 -0.34405461877E+02  0.16058586397E+04  0.16150769637E+04  0.00000000000E+00 0. -1.
         22    1    3    3    0    0  0.22884809698E+03 -0.39432830013E+02 -0.76822506049E+02  0.24459782707E+03  0.00000000000E+00 0.  1.
         22    1    3    3    0    0  0.51976110034E+02  0.15184622188E+02  0.38036733777E+02  0.66173120537E+02  0.00000000000E+00 0.  1.
</event>
<event>
 7    1  0.6278987E-006  0.5303398E+02  0.7818608E-02  0.1431786E+00
          2   -1    0    0  502    0  0.00000000000E+00  0.00000000000E+00  0.29231355329E+03  0.29231355329E+03  0.00000000000E+00 0. -1.
          1   -1    0    0  501    0 -0.00000000000E+00 -0.00000000000E+00 -0.44858767817E+03  0.44858767817E+03  0.00000000000E+00 0. -1.
         25    2    1    2    0    0 -0.63411127716E+01  0.11783632240E+02  0.10862437815E+03  0.16614296641E+03  0.12500066423E+03 0.  0.
          2    1    1    2  501    0  0.25699040944E+02  0.46391408505E+02 -0.41199566612E+03  0.41539503173E+03  0.00000000000E+00 0. -1.
          1    1    1    2  502    0 -0.19357928173E+02 -0.58175040745E+02  0.14709716308E+03  0.15936323332E+03  0.00000000000E+00 0. -1.
         22    1    3    3    0    0 -0.20194058768E+02  0.24170303388E+02  0.13232722700E+03  0.13602388975E+03  0.00000000000E+00 0.  1.
         22    1    3    3    0    0  0.13852945997E+02 -0.12386671148E+02 -0.23702848856E+02  0.30119076659E+02  0.00000000000E+00 0.  1.
</event>
<event>
 7    1  0.6278987E-006  0.5689470E+02  0.7818608E-02  0.1483570E+00
          2   -1    0    0  502    0  0.00000000000E+00  0.00000000000E+00  0.15932136163E+03  0.15932136163E+03  0.00000000000E+00 0. -1.
          1   -1    0    0  501    0 -0.00000000000E+00 -0.00000000000E+00 -0.56450374662E+03  0.56450374662E+03  0.00000000000E+00 0. -1.
         25    2    1    2    0    0  0.13967454924E+02 -0.29432972864E+02 -0.13280629104E+03  0.18526631761E+03  0.12499883124E+03 0.  0.
          2    1    1    2  501    0 -0.17316535665E+02 -0.28493634432E+02 -0.39841372994E+03  0.39980651547E+03  0.00000000000E+00 0. -1.
          1    1    1    2  502    0  0.33490807403E+01  0.57926607296E+02  0.12603763600E+03  0.13875227516E+03  0.00000000000E+00 0. -1.
         22    1    3    3    0    0  0.48891072481E+02 -0.55141977375E+02 -0.42461679565E+02  0.85052741688E+02  0.00000000000E+00 0. -1.
         22    1    3    3    0    0 -0.34923617556E+02  0.25709004511E+02 -0.90344611480E+02  0.10021357592E+03  0.00000000000E+00 0. -1.
</event>
<event>
 7    1  0.6278987E-006  0.5624385E+02  0.7818608E-02  0.1439509E+00
          2   -1    0    0  502    0  0.00000000000E+00  0.00000000000E+00  0.15130363242E+03  0.15130363242E+03  0.00000000000E+00 0. -1.
          1   -1    0    0  501    0 -0.00000000000E+00 -0.00000000000E+00 -0.38295819956E+03  0.38295819956E+03  0.00000000000E+00 0. -1.
         25    2    1    2    0    0 -0.17846193381E+02 -0.53693867928E+02 -0.70434823927E+02  0.15423385074E+03  0.12500199287E+03 0.  0.
          2    1    1    2  501    0 -0.28430110709E+02  0.50014275135E+02 -0.26243918484E+03  0.26867084816E+03  0.00000000000E+00 0. -1.
          1    1    1    2  502    0  0.46276304089E+02  0.36795927938E+01  0.10121944164E+03  0.11135713308E+03  0.00000000000E+00 0. -1.
         22    1    3    3    0    0  0.18407319629E+02  0.34902225335E+02 -0.89461493812E+01  0.40460206846E+02  0.00000000000E+00 0. -1.
         22    1    3    3    0    0 -0.36253513009E+02 -0.88596093263E+02 -0.61488674546E+02  0.11377364389E+03  0.00000000000E+00 0. -1.
</event>
<event>
 7    1  0.6278987E-006  0.6399356E+02  0.7818608E-02  0.1435599E+00
          2   -1    0    0  502    0  0.00000000000E+00  0.00000000000E+00  0.93183168537E+02  0.93183168537E+02  0.00000000000E+00 0. -1.
          1   -1    0    0  501    0 -0.00000000000E+00 -0.00000000000E+00 -0.78913967532E+03  0.78913967532E+03  0.00000000000E+00 0. -1.
         25    2    1    2    0    0 -0.74299544935E+02 -0.72514338086E+02 -0.37709196479E+02  0.16681096031E+03  0.12500064550E+03 0.  0.
          2    1    1    2  501    0  0.50401995102E+02  0.37958155123E+02 -0.66914000547E+03  0.67210827221E+03  0.00000000000E+00 0. -1.
          1    1    1    2  502    0  0.23897549832E+02  0.34556182962E+02  0.10892695169E+02  0.43403611336E+02  0.00000000000E+00 0. -1.
         22    1    3    3    0    0 -0.29355687565E+01  0.14351635644E+02 -0.51503925404E+02  0.53546627733E+02  0.00000000000E+00 0. -1.
         22    1    3    3    0    0 -0.71363976178E+02 -0.86865973729E+02  0.13794728925E+02  0.11326433258E+03  0.00000000000E+00 0. -1.
</event>
<event>
 7    1  0.6278987E-006  0.1321199E+03  0.7818608E-02  0.1312948E+00
          2   -1    0    0  502    0  0.00000000000E+00  0.00000000000E+00  0.11769066009E+03  0.11769066009E+03  0.00000000000E+00 0. -1.
          1   -1    0    0  501    0 -0.00000000000E+00 -0.00000000000E+00 -0.39689990587E+04  0.39689990587E+04  0.00000000000E+00 0. -1.
         25    2    1    2    0    0  0.51579584982E+02 -0.15879258796E+03 -0.19384068629E+04  0.19495954231E+04  0.12500243171E+03 0.  0.
          2    1    1    2  501    0  0.23492987923E+02  0.50749781490E+02 -0.19858649898E+04  0.19866522641E+04  0.00000000000E+00 0. -1.
          1    1    1    2  502    0 -0.75072572904E+02  0.10804280647E+03  0.72963454114E+02  0.15044203159E+03  0.00000000000E+00 0. -1.
         22    1    3    3    0    0  0.28186752816E+02  0.15461277357E+02 -0.24980465524E+03  0.25186486438E+03  0.00000000000E+00 0.  1.
         22    1    3    3    0    0  0.23392832166E+02 -0.17425386532E+03 -0.16886022077E+04  0.16977305587E+04  0.00000000000E+00 0.  1.
</event>
<event>
 7    1  0.6278987E-006  0.8642697E+02  0.7818608E-02  0.1349393E+00
          2   -1    0    0  502    0  0.00000000000E+00  0.00000000000E+00  0.12927807071E+04  0.12927807071E+04  0.00000000000E+00 0. -1.
          1   -1    0    0  501    0 -0.00000000000E+00 -0.00000000000E+00 -0.16080803511E+04  0.16080803511E+04  0.00000000000E+00 0. -1.
         25    2    1    2    0    0  0.98833562316E+02 -0.62030984834E+02 -0.42695038085E+02  0.17625091501E+03  0.12500241055E+03 0.  0.
          2    1    1    2  501    0 -0.12603961280E+02  0.60780633920E+02 -0.14964466035E+04  0.14977334818E+04  0.00000000000E+00 0. -1.
          1    1    1    2  502    0 -0.86229601036E+02  0.12503509140E+01  0.12238419976E+04  0.12268766615E+04  0.00000000000E+00 0. -1.
         22    1    3    3    0    0 -0.33974790112E+01  0.17933393902E+02  0.24139642096E+02  0.30263373920E+02  0.00000000000E+00 0. -1.
         22    1    3    3    0    0  0.10223104133E+03 -0.79964378737E+02 -0.66834680182E+02  0.14598754109E+03  0.00000000000E+00 0. -1.
</event>
<event>
 7    1  0.6278987E-006  0.2238368E+03  0.7818608E-02  0.1305789E+00
          2   -1    0    0  502    0  0.00000000000E+00  0.00000000000E+00  0.10527779536E+04  0.10527779536E+04  0.00000000000E+00 0. -1.
          1   -1    0    0  501    0 -0.00000000000E+00 -0.00000000000E+00 -0.14275307904E+04  0.14275307904E+04  0.00000000000E+00 0. -1.
         25    2    1    2    0    0  0.10261562908E+02  0.24469196696E+03 -0.49934835586E+03  0.57004705451E+03  0.12500162195E+03 0.  0.
          2    1    1    2  501    0 -0.27537542265E+02 -0.21968578452E+02 -0.88021419961E+03  0.88091882252E+03  0.00000000000E+00 0. -1.
          1    1    1    2  502    0  0.17275979356E+02 -0.22272338850E+03  0.10048097186E+04  0.10293428670E+04  0.00000000000E+00 0. -1.
         22    1    3    3    0    0  0.29725546597E+02  0.17804725085E+03 -0.45003449319E+03  0.48488707625E+03  0.00000000000E+00 0.  1.
         22    1    3    3    0    0 -0.19463983689E+02  0.66644716101E+02 -0.49313862670E+02  0.85159978257E+02  0.00000000000E+00 0.  1.
</event>
<event>
 7    1  0.6278987E-006  0.1750725E+03  0.7818608E-02  0.1324409E+00
          2   -1    0    0  502    0  0.00000000000E+00  0.00000000000E+00  0.13761452783E+03  0.13761452783E+03  0.00000000000E+00 0. -1.
          1   -1    0    0  501    0 -0.00000000000E+00 -0.00000000000E+00 -0.93621429574E+03  0.93621429574E+03  0.00000000000E+00 0. -1.
         25    2    1    2    0    0 -0.36685531489E+02  0.14388641133E+03 -0.35152075526E+03  0.40154752411E+03  0.12499778060E+03 0.  0.
          2    1    1    2  501    0  0.14626152253E+02  0.35167521021E+02 -0.48619266679E+03  0.48768226142E+03  0.00000000000E+00 0. -1.
          1    1    1    2  502    0  0.22059379235E+02 -0.17905393236E+03  0.39113654138E+02  0.18459903804E+03  0.00000000000E+00 0. -1.
         22    1    3    3    0    0 -0.66979949721E+02  0.14701487765E+03 -0.27154247283E+03  0.31596677430E+03  0.00000000000E+00 0.  1.
         22    1    3    3    0    0  0.30294418233E+02 -0.31284663109E+01 -0.79978282428E+02  0.85580749807E+02  0.00000000000E+00 0.  1.
</event>
<event>
 7    1  0.6278987E-006  0.4603533E+02  0.7818608E-02  0.1484910E+00
          2   -1    0    0  502    0  0.00000000000E+00  0.00000000000E+00  0.24639907884E+04  0.24639907884E+04  0.00000000000E+00 0. -1.
          1   -1    0    0  501    0 -0.00000000000E+00 -0.00000000000E+00 -0.77047972823E+01  0.77047972823E+01  0.00000000000E+00 0. -1.
         25    2    1    2    0    0 -0.12667627435E+02  0.17651895698E+02  0.20607506143E+04  0.20646527803E+04  0.12500380290E+03 0.  0.
          2    1    1    2  501    0  0.48299300710E+02  0.22689838734E+01  0.13651076865E+03  0.14482113346E+03  0.00000000000E+00 0. -1.
          1    1    1    2  502    0 -0.35631673275E+02 -0.19920879572E+02  0.25902460821E+03  0.26222167195E+03  0.00000000000E+00 0. -1.
         22    1    3    3    0    0 -0.24760155566E+02  0.23878398665E+02  0.15159290400E+03  0.15544662032E+03  0.00000000000E+00 0.  1.
         22    1    3    3    0    0  0.12092528131E+02 -0.62265029666E+01  0.19091577103E+04  0.19092061600E+04  0.00000000000E+00 0.  1.
</event>
<event>
 7    1  0.6278987E-006  0.1537691E+03  0.7818608E-02  0.1415084E+00
          2   -1    0    0  502    0  0.00000000000E+00  0.00000000000E+00  0.10935822389E+03  0.10935822389E+03  0.00000000000E+00 0. -1.
          1   -1    0    0  501    0 -0.00000000000E+00 -0.00000000000E+00 -0.14533261672E+04  0.14533261672E+04  0.00000000000E+00 0. -1.
         25    2    1    2    0    0 -0.13277304252E+03 -0.57907053826E+02 -0.87421908704E+03  0.89491131991E+03  0.12500140259E+03 0.  0.
          2    1    1    2  501    0 -0.32135281354E+00 -0.20446151975E+02 -0.50820166272E+03  0.50861289640E+03  0.00000000000E+00 0. -1.
          1    1    1    2  502    0  0.13309439534E+03  0.78353205800E+02  0.38452806406E+02  0.15916017482E+03  0.00000000000E+00 0. -1.
         22    1    3    3    0    0 -0.14344243247E+03 -0.11729243305E+02 -0.65282958782E+03  0.66850562998E+03  0.00000000000E+00 0. -1.
         22    1    3    3    0    0  0.10669389947E+02 -0.46177810521E+02 -0.22138949923E+03  0.22640568993E+03  0.00000000000E+00 0. -1.
</event>
<event>
 7    1  0.6278987E-006  0.1111268E+03  0.7818608E-02  0.1282362E+00
          2   -1    0    0  502    0  0.00000000000E+00  0.00000000000E+00  0.14239154694E+04  0.14239154694E+04  0.00000000000E+00 0. -1.
          1   -1    0    0  501    0 -0.00000000000E+00 -0.00000000000E+00 -0.73988416237E+03  0.73988416237E+03  0.00000000000E+00 0. -1.
         25    2    1    2    0    0 -0.38834214650E+02 -0.26223638752E+02  0.80546841027E+03  0.81645610553E+03  0.12500174744E+03 0.  0.
          2    1    1    2  501    0  0.13455023954E+02  0.11073400161E+03 -0.72693809580E+03  0.73544683826E+03  0.00000000000E+00 0. -1.
          1    1    1    2  502    0  0.25379190696E+02 -0.84510362859E+02  0.60550099260E+03  0.61189668800E+03  0.00000000000E+00 0. -1.
         22    1    3    3    0    0  0.10833324061E+02  0.30982660040E+02  0.72507323140E+02  0.79590188104E+02  0.00000000000E+00 0.  1.
         22    1    3    3    0    0 -0.49667538711E+02 -0.57206298792E+02  0.73296108713E+03  0.73686591743E+03  0.00000000000E+00 0.  1.
</event>
<event>
 7    1  0.6278987E-006  0.2379792E+03  0.7818608E-02  0.1289577E+00
          2   -1    0    0  502    0  0.00000000000E+00  0.00000000000E+00  0.32837753504E+04  0.32837753504E+04  0.00000000000E+00 0. -1.
          1   -1    0    0  501    0 -0.00000000000E+00 -0.00000000000E+00 -0.69008635229E+03  0.69008635229E+03  0.00000000000E+00 0. -1.
         25    2    1    2    0    0  0.21462659345E+03 -0.12539194212E+03  0.13556004702E+03  0.30949831040E+03  0.12499985611E+03 0.  0.
          2    1    1    2  501    0 -0.30008115064E+02 -0.24112380398E+02 -0.59788842430E+03  0.59912641552E+03  0.00000000000E+00 0. -1.
          1    1    1    2  502    0 -0.18461847839E+03  0.14950432252E+03  0.30560173754E+04  0.30652369768E+04  0.00000000000E+00 0. -1.
         22    1    3    3    0    0 -0.16200875804E+02 -0.94206444838E+01  0.16861693258E+02  0.25209792122E+02  0.00000000000E+00 0.  1.
         22    1    3    3    0    0  0.23082746926E+03 -0.11597129764E+03  0.11869835377E+03  0.28428851828E+03  0.00000000000E+00 0.  1.
</event>
<event>
 7    1  0.6278987E-006  0.7117954E+02  0.7818608E-02  0.1447895E+00
          2   -1    0    0  502    0  0.00000000000E+00  0.00000000000E+00  0.62139559134E+03  0.62139559134E+03  0.00000000000E+00 0. -1.
          1   -1    0    0  501    0 -0.00000000000E+00 -0.00000000000E+00 -0.26330140224E+04  0.26330140224E+04  0.00000000000E+00 0. -1.
         25    2    1    2    0    0  0.80315973463E+02 -0.67464341143E+02 -0.36640920919E+02  0.16724103783E+03  0.12499965892E+03 0.  0.
          2    1    1    2  501    0 -0.26931528254E+02  0.21506151683E+02 -0.25287243882E+04  0.25289592431E+04  0.00000000000E+00 0. -1.
          1    1    1    2  502    0 -0.53384445209E+02  0.45958189460E+02  0.55374687811E+03  0.55820933276E+03  0.00000000000E+00 0. -1.
         22    1    3    3    0    0  0.62426159119E+02 -0.45819463567E+02 -0.82701163598E+02  0.11329576799E+03  0.00000000000E+00 0. -1.
         22    1    3    3    0    0  0.17889814344E+02 -0.21644877576E+02  0.46060242679E+02  0.53945269841E+02  0.00000000000E+00 0. -1.
</event>
<event>
 7    1  0.7553976E-006  0.5074190E+02  0.7818608E-02  0.1453812E+00
          2   -1    0    0  502    0  0.00000000000E+00  0.00000000000E+00  0.96512105470E+03  0.96512105470E+03  0.00000000000E+00 0. -1.
          1   -1    0    0  501    0 -0.00000000000E+00 -0.00000000000E+00 -0.11414460841E+04  0.11414460841E+04  0.00000000000E+00 0. -1.
         25    2    1    2    0    0  0.69438104972E+02 -0.58279033382E+02 -0.25978857428E+03  0.30221268893E+03  0.12499723945E+03 0.  0.
          2    1    1    2  501    0 -0.43958527898E+02  0.14494957576E+02 -0.85914233869E+03  0.86038829264E+03  0.00000000000E+00 0. -1.
          1    1    1    2  502    0 -0.25479577074E+02  0.43784075806E+02  0.94260588361E+03  0.94396615721E+03  0.00000000000E+00 0. -1.
         22    1    3    3    0    0  0.66846652819E+02  0.24026801122E+02 -0.13781582031E+03  0.15504503376E+03  0.00000000000E+00 0. -1.
         22    1    3    3    0    0  0.25914521528E+01 -0.82305834503E+02 -0.12197275397E+03  0.14716765517E+03  0.00000000000E+00 0. -1.
</event>
<event>
 7    1  0.6278987E-006  0.1306028E+03  0.7818608E-02  0.1335835E+00
          2   -1    0    0  502    0  0.00000000000E+00  0.00000000000E+00  0.18302426181E+04  0.18302426181E+04  0.00000000000E+00 0. -1.
          1   -1    0    0  501    0 -0.00000000000E+00 -0.00000000000E+00 -0.79924536073E+03  0.79924536073E+03  0.00000000000E+00 0. -1.
         25    2    1    2    0    0 -0.97444225999E+02  0.49129558055E+02  0.13275090641E+03  0.21250065419E+03  0.12499853689E+03 0.  0.
          2    1    1    2  501    0  0.52236025029E+01  0.45878811301E+02 -0.75602092017E+03  0.75742972154E+03  0.00000000000E+00 0. -1.
          1    1    1    2  502    0  0.92220623496E+02 -0.95008369356E+02  0.16542672712E+04  0.16595576031E+04  0.00000000000E+00 0. -1.
         22    1    3    3    0    0 -0.53425415477E+02  0.90908793989E+01 -0.12428301310E+02  0.55600195869E+02  0.00000000000E+00 0. -1.
         22    1    3    3    0    0 -0.44018810522E+02  0.40038678656E+02  0.14517920772E+03  0.15690045832E+03  0.00000000000E+00 0. -1.
</event>
<event>
 7    1  0.6278987E-006  0.9400304E+02  0.7818608E-02  0.1345914E+00
          2   -1    0    0  502    0  0.00000000000E+00  0.00000000000E+00  0.56906104241E+03  0.56906104241E+03  0.00000000000E+00 0. -1.
          1   -1    0    0  501    0 -0.00000000000E+00 -0.00000000000E+00 -0.74197228820E+03  0.74197228820E+03  0.00000000000E+00 0. -1.
         25    2    1    2    0    0 -0.58109709956E+02 -0.13636856312E+03  0.11271742807E+03  0.22428216131E+03  0.12499658353E+03 0.  0.
          2    1    1    2  501    0  0.50611794521E+02  0.78052114854E+02 -0.68085230800E+03  0.68717796217E+03  0.00000000000E+00 0. -1.
          1    1    1    2  502    0  0.74979154347E+01  0.58316448262E+02  0.39522363413E+03  0.39957320712E+03  0.00000000000E+00 0. -1.
         22    1    3    3    0    0 -0.23857357234E+02 -0.15316314433E+03  0.82374964535E+02  0.17553847743E+03  0.00000000000E+00 0. -1.
         22    1    3    3    0    0 -0.34252352722E+02  0.16794581213E+02  0.30342463539E+02  0.48743683886E+02  0.00000000000E+00 0. -1.
</event>
<event>
 7    1  0.6278987E-006  0.1098080E+03  0.7818608E-02  0.1411296E+00
          2   -1    0    0  502    0  0.00000000000E+00  0.00000000000E+00  0.19923028338E+03  0.19923028338E+03  0.00000000000E+00 0. -1.
          1   -1    0    0  501    0 -0.00000000000E+00 -0.00000000000E+00 -0.68493216651E+03  0.68493216651E+03  0.00000000000E+00 0. -1.
         25    2    1    2    0    0  0.81666471529E+02  0.12253008973E+02 -0.44762589462E+03  0.47203125642E+03  0.12500006683E+03 0.  0.
          2    1    1    2  501    0  0.25991369388E+02  0.13932685639E+02 -0.20756016436E+03  0.20964468236E+03  0.00000000000E+00 0. -1.
          1    1    1    2  502    0 -0.10765784092E+03 -0.26185694611E+02  0.16948417586E+03  0.20248651111E+03  0.00000000000E+00 0. -1.
         22    1    3    3    0    0  0.42438749727E+02  0.10458618964E+02 -0.42390850035E+03  0.42615589502E+03  0.00000000000E+00 0. -1.
         22    1    3    3    0    0  0.39227721802E+02  0.17943900093E+01 -0.23717394268E+02  0.45875361406E+02  0.00000000000E+00 0. -1.
</event>
<event>
 7    1  0.6278987E-006  0.9709484E+02  0.7818608E-02  0.1297301E+00
          2   -1    0    0  502    0  0.00000000000E+00  0.00000000000E+00  0.26157854584E+03  0.26157854584E+03  0.00000000000E+00 0. -1.
          1   -1    0    0  501    0 -0.00000000000E+00 -0.00000000000E+00 -0.12818052579E+04  0.12818052579E+04  0.00000000000E+00 0. -1.
         25    2    1    2    0    0  0.14838644780E+02  0.25260201073E+01 -0.23668942347E+02  0.12810642408E+03  0.12499788359E+03 0.  0.
          2    1    1    2  501    0 -0.77185701946E+02 -0.64349878389E+02 -0.11945081942E+04  0.11987278113E+04  0.00000000000E+00 0. -1.
          1    1    1    2  502    0  0.62347057167E+02  0.61823858282E+02  0.19795042453E+03  0.21654956837E+03  0.00000000000E+00 0. -1.
         22    1    3    3    0    0 -0.44309066472E+02  0.36671689754E+02 -0.84293381846E+01  0.58130542259E+02  0.00000000000E+00 0.  1.
         22    1    3    3    0    0  0.59147711252E+02 -0.34145669647E+02 -0.15239604162E+02  0.69975881824E+02  0.00000000000E+00 0.  1.
</event>
<event>
 7    1  0.6278987E-006  0.1204162E+03  0.7818608E-02  0.1353015E+00
          2   -1    0    0  502    0  0.00000000000E+00  0.00000000000E+00  0.36782438270E+04  0.36782438270E+04  0.00000000000E+00 0. -1.
          1   -1    0    0  501    0 -0.00000000000E+00 -0.00000000000E+00 -0.21475202147E+03  0.21475202147E+03  0.00000000000E+00 0. -1.
         25    2    1    2    0    0 -0.10051582104E+03 -0.10752946938E+03  0.14853945177E+04  0.14978944774E+04  0.12499990126E+03 0.  0.
          2    1    1    2  501    0  0.59280014957E+01  0.42790883830E+02 -0.20474451099E+03  0.20925227770E+03  0.00000000000E+00 0. -1.
          1    1    1    2  502    0  0.94587819548E+02  0.64738585551E+02  0.21828417988E+04  0.21858490933E+04  0.00000000000E+00 0. -1.
         22    1    3    3    0    0 -0.14070805833E+02  0.44872375361E+01  0.16276209835E+02  0.21978122852E+02  0.00000000000E+00 0. -1.
         22    1    3    3    0    0 -0.86445015210E+02 -0.11201670692E+03  0.14691183078E+04  0.14759163546E+04  0.00000000000E+00 0. -1.
</event>
<event>
 7    1  0.6278987E-006  0.3239964E+02  0.7818608E-02  0.1612202E+00
          2   -1    0    0  502    0  0.00000000000E+00  0.00000000000E+00  0.33839912103E+03  0.33839912103E+03  0.00000000000E+00 0. -1.
          1   -1    0    0  501    0 -0.00000000000E+00 -0.00000000000E+00 -0.88128935690E+03  0.88128935690E+03  0.00000000000E+00 0. -1.
         25    2    1    2    0    0 -0.21636624864E+02  0.53167417400E+02 -0.11340029993E+02  0.13801841834E+03  0.12500227883E+03 0.  0.
          2    1    1    2  501    0  0.72746364495E+01 -0.24472700421E+02 -0.80547133588E+03  0.80587586285E+03  0.00000000000E+00 0. -1.
          1    1    1    2  502    0  0.14361988415E+02 -0.28694716979E+02  0.27392113000E+03  0.27579419674E+03  0.00000000000E+00 0. -1.
         22    1    3    3    0    0  0.88273303223E+01 -0.13131253804E+02  0.43795648297E+02  0.46566193712E+02  0.00000000000E+00 0. -1.
         22    1    3    3    0    0 -0.30463955187E+02  0.66298671204E+02 -0.55135678290E+02  0.91452224629E+02  0.00000000000E+00 0. -1.
</event>
<event>
 7    1  0.6278987E-006  0.1821682E+03  0.7818608E-02  0.1287324E+00
          2   -1    0    0  502    0  0.00000000000E+00  0.00000000000E+00  0.54221501207E+03  0.54221501207E+03  0.00000000000E+00 0. -1.
          1   -1    0    0  501    0 -0.00000000000E+00 -0.00000000000E+00 -0.98641589968E+03  0.98641589968E+03  0.00000000000E+00 0. -1.
         25    2    1    2    0    0  0.21732373814E+03  0.22661946743E+02 -0.64637477774E+02  0.25989720241E+03  0.12500152520E+03 0.  0.
          2    1    1    2  501    0 -0.17848050312E+03  0.10945782441E+02 -0.81291453024E+03  0.83234916569E+03  0.00000000000E+00 0. -1.
          1    1    1    2  502    0 -0.38843235020E+02 -0.33607729185E+02  0.43335112041E+03  0.43638454364E+03  0.00000000000E+00 0. -1.
         22    1    3    3    0    0  0.20254664265E+03  0.64368879379E+01 -0.12157290302E+02  0.20301324016E+03  0.00000000000E+00 0. -1.
         22    1    3    3    0    0  0.14777095487E+02  0.16225058805E+02 -0.52480187471E+02  0.56883962250E+02  0.00000000000E+00 0. -1.
</event>
<event>
 7    1  0.6278987E-006  0.8450716E+02  0.7818608E-02  0.1342783E+00
          2   -1    0    0  502    0  0.00000000000E+00  0.00000000000E+00  0.25126321228E+03  0.25126321228E+03  0.00000000000E+00 0. -1.
          1   -1    0    0  501    0 -0.00000000000E+00 -0.00000000000E+00 -0.23999863755E+04  0.23999863755E+04  0.00000000000E+00 0. -1.
         25    2    1    2    0    0 -0.12822869699E+03 -0.47439246381E+02  0.97045989454E+02  0.20913271091E+03  0.12500194347E+03 0.  0.
          2    1    1    2  501    0  0.66510823497E+02  0.95260020524E+01 -0.23300322587E+04  0.23310008068E+04  0.00000000000E+00 0. -1.
          1    1    1    2  502    0  0.61717873496E+02  0.37913244329E+02  0.84263106032E+02  0.11111607014E+03  0.00000000000E+00 0. -1.
         22    1    3    3    0    0  0.20233118959E+02 -0.29121308379E+02  0.14790595934E+02  0.38421236739E+02  0.00000000000E+00 0. -1.
         22    1    3    3    0    0 -0.14846181595E+03 -0.18317938003E+02  0.82255393520E+02  0.17071147417E+03  0.00000000000E+00 0. -1.
</event>
<event>
 7    1  0.6278987E-006  0.1421631E+03  0.7818608E-02  0.1214880E+00
          2   -1    0    0  502    0  0.00000000000E+00  0.00000000000E+00  0.24835294390E+04  0.24835294390E+04  0.00000000000E+00 0. -1.
          1   -1    0    0  501    0 -0.00000000000E+00 -0.00000000000E+00 -0.89341063141E+02  0.89341063141E+02  0.00000000000E+00 0. -1.
         25    2    1    2    0    0  0.74661003627E+02  0.67214670809E+02  0.37255753707E+03  0.40560660619E+03  0.12500209245E+03 0.  0.
          2    1    1    2  501    0 -0.15648167218E+03  0.40945427962E+02  0.22231999050E+02  0.16327064519E+03  0.00000000000E+00 0. -1.
          1    1    1    2  502    0  0.81820668556E+02 -0.10816009877E+03  0.19993988397E+04  0.20039932508E+04  0.00000000000E+00 0. -1.
         22    1    3    3    0    0 -0.18369710564E+02 -0.16621515616E+02  0.21227583429E+02  0.32624091495E+02  0.00000000000E+00 0.  1.
         22    1    3    3    0    0  0.93030714191E+02  0.83836186425E+02  0.35132995364E+03  0.37298251469E+03  0.00000000000E+00 0.  1.
</event>
<event>
 7    1  0.6278987E-006  0.1165565E+03  0.7818608E-02  0.1378520E+00
          2   -1    0    0  502    0  0.00000000000E+00  0.00000000000E+00  0.23858132434E+03  0.23858132434E+03  0.00000000000E+00 0. -1.
          1   -1    0    0  501    0 -0.00000000000E+00 -0.00000000000E+00 -0.25935476491E+04  0.25935476491E+04  0.00000000000E+00 0. -1.
         25    2    1    2    0    0 -0.13468250205E+03  0.60054497985E+02 -0.65459298451E+02  0.20409644590E+03  0.12499808154E+03 0.  0.
          2    1    1    2  501    0  0.29408477222E+02 -0.20912996592E+02 -0.24399898649E+04  0.24402566981E+04  0.00000000000E+00 0. -1.
          1    1    1    2  502    0  0.10527402483E+03 -0.39141501393E+02  0.15048283853E+03  0.18777582946E+03  0.00000000000E+00 0. -1.
         22    1    3    3    0    0 -0.37539814034E+02  0.14860920424E+02  0.37791443545E+02  0.55301697974E+02  0.00000000000E+00 0.  1.
         22    1    3    3    0    0 -0.97142688020E+02  0.45193577561E+02 -0.10325074200E+03  0.14879474793E+03  0.00000000000E+00 0.  1.
</event>
<event>
 7    1  0.6278987E-006  0.8407453E+02  0.7818608E-02  0.1469247E+00
          2   -1    0    0  502    0  0.00000000000E+00  0.00000000000E+00  0.29373632843E+04  0.29373632843E+04  0.00000000000E+00 0. -1.
          1   -1    0    0  501    0 -0.00000000000E+00 -0.00000000000E+00 -0.66090954943E+03  0.66090954943E+03  0.00000000000E+00 0. -1.
         25    2    1    2    0    0 -0.37954208581E+02 -0.80189575799E+02  0.47551504808E+03  0.49961002512E+03  0.12499890493E+03 0.  0.
          2    1    1    2  501    0 -0.17884495710E+02  0.17437710198E+02 -0.64790129575E+03  0.64838261695E+03  0.00000000000E+00 0. -1.
          1    1    1    2  502    0  0.55838704291E+02  0.62751865601E+02  0.24488399826E+04  0.24502801917E+04  0.00000000000E+00 0. -1.
         22    1    3    3    0    0  0.42273187802E+02 -0.37193594755E+01  0.12881835761E+03  0.13562826143E+03  0.00000000000E+00 0.  1.
         22    1    3    3    0    0 -0.80227396382E+02 -0.76470216323E+02  0.34669669047E+03  0.36398176369E+03  0.00000000000E+00 0.  1.
</event>
<event>
 7    1  0.6278987E-006  0.5577495E+02  0.7818608E-02  0.1519364E+00
          2   -1    0    0  502    0  0.00000000000E+00  0.00000000000E+00  0.25837155124E+03  0.25837155124E+03  0.00000000000E+00 0. -1.
          1   -1    0    0  501    0 -0.00000000000E+00 -0.00000000000E+00 -0.61927336333E+03  0.61927336333E+03  0.00000000000E+00 0. -1.
         25    2    1    2    0    0 -0.47967694306E+02  0.22242327603E+02 -0.56190268362E+03  0.57805948376E+03  0.12499007988E+03 0.  0.
          2    1    1    2  501    0  0.14408170119E+02  0.22369971608E+02 -0.42294006900E+02  0.49967929871E+02  0.00000000000E+00 0. -1.
          1    1    1    2  502    0  0.33559524186E+02 -0.44612299210E+02  0.24329487843E+03  0.24961750094E+03  0.00000000000E+00 0. -1.
         22    1    3    3    0    0 -0.16899917275E+02 -0.30150802767E+02 -0.41078034322E+02  0.53685035300E+02  0.00000000000E+00 0. -1.
         22    1    3    3    0    0 -0.31067777031E+02  0.52393130369E+02 -0.52082464930E+03  0.52437444846E+03  0.00000000000E+00 0. -1.
</event>
<event>
 7    1  0.6278987E-006  0.9857251E+02  0.7818608E-02  0.1352230E+00
          2   -1    0    0  502    0  0.00000000000E+00  0.00000000000E+00  0.23654901931E+04  0.23654901931E+04  0.00000000000E+00 0. -1.
          1   -1    0    0  501    0 -0.00000000000E+00 -0.00000000000E+00 -0.16235519255E+02  0.16235519255E+02  0.00000000000E+00 0. -1.
         25    2    1    2    0    0 -0.62932112968E+02  0.51532160618E+01  0.75470596602E+03  0.76758869071E+03  0.12499718591E+03 0.  0.
          2    1    1    2  501    0 -0.39761102527E+02  0.35233278865E+02  0.82873696364E+02  0.98439721469E+02  0.00000000000E+00 0. -1.
          1    1    1    2  502    0  0.10269321549E+03 -0.40386494927E+02  0.15116750115E+04  0.15156973002E+04  0.00000000000E+00 0. -1.
         22    1    3    3    0    0 -0.41328425428E+02 -0.14187574785E+02  0.72414015531E+03  0.72545729754E+03  0.00000000000E+00 0. -1.
         22    1    3    3    0    0 -0.21603687540E+02  0.19340790847E+02  0.30565810707E+02  0.42131393165E+02  0.00000000000E+00 0. -1.
</event>
<event>
 7    1  0.6278987E-006  0.6884914E+02  0.7818608E-02  0.1481704E+00
          2   -1    0    0  502    0  0.00000000000E+00  0.00000000000E+00  0.14699433038E+04  0.14699433038E+04  0.00000000000E+00 0. -1.
          1   -1    0    0  501    0 -0.00000000000E+00 -0.00000000000E+00 -0.16248279928E+02  0.16248279928E+02  0.00000000000E+00 0. -1.
         25    2    1    2    0    0  0.46063243816E+00 -0.61379991705E+02  0.44162922386E+03  0.46306537349E+03  0.12500181277E+03 0.  0.
          2    1    1    2  501    0  0.26043272566E+02  0.70151377702E+02  0.26030257889E+03  0.27084479027E+03  0.00000000000E+00 0. -1.
          1    1    1    2  502    0 -0.26503905005E+02 -0.87713859969E+01  0.75176322108E+03  0.75228141992E+03  0.00000000000E+00 0. -1.
         22    1    3    3    0    0  0.91366909658E+01  0.33604668379E+02  0.57084739794E+02  0.66868680083E+02  0.00000000000E+00 0. -1.
         22    1    3    3    0    0 -0.86760585276E+01 -0.94984660084E+02  0.38454448407E+03  0.39619669341E+03  0.00000000000E+00 0. -1.
</event>
<event>
 7    1  0.6278987E-006  0.1605588E+03  0.7818608E-02  0.1333599E+00
          2   -1    0    0  502    0  0.00000000000E+00  0.00000000000E+00  0.44666491893E+04  0.44666491893E+04  0.00000000000E+00 0. -1.
          1   -1    0    0  501    0 -0.00000000000E+00 -0.00000000000E+00 -0.26903181416E+04  0.26903181416E+04  0.00000000000E+00 0. -1.
         25    2    1    2    0    0 -0.13690403692E+02  0.13104686378E+03  0.75731073698E+03  0.77878422520E+03  0.12499843769E+03 0.  0.
          2    1    1    2  501    0 -0.23199992526E+02  0.30474853110E+02 -0.26775889275E+04  0.26778628458E+04  0.00000000000E+00 0. -1.
          1    1    1    2  502    0  0.36890396218E+02 -0.16152171689E+03  0.36966092382E+04  0.37003202600E+04  0.00000000000E+00 0. -1.
         22    1    3    3    0    0 -0.39847801627E+02  0.14003677850E+03  0.52439014883E+03  0.54422713532E+03  0.00000000000E+00 0.  1.
         22    1    3    3    0    0  0.26157397935E+02 -0.89899147114E+01  0.23292058815E+03  0.23455708989E+03  0.00000000000E+00 0.  1.
</event>
<event>
 7    1  0.6278987E-006  0.5601928E+02  0.7818608E-02  0.1479980E+00
          2   -1    0    0  502    0  0.00000000000E+00  0.00000000000E+00  0.17250957294E+04  0.17250957294E+04  0.00000000000E+00 0. -1.
          1   -1    0    0  501    0 -0.00000000000E+00 -0.00000000000E+00 -0.95981951295E+02  0.95981951295E+02  0.00000000000E+00 0. -1.
         25    2    1    2    0    0  0.83126103204E+02  0.13991883138E+02  0.15975882063E+03  0.21966670315E+03  0.12499943150E+03 0.  0.
          2    1    1    2  501    0 -0.49518707260E+02 -0.22756705430E+02 -0.54551229407E+02  0.77109056800E+02  0.00000000000E+00 0. -1.
          1    1    1    2  502    0 -0.33607395943E+02  0.87648222926E+01  0.15239061869E+04  0.15243019208E+04  0.00000000000E+00 0. -1.
         22    1    3    3    0    0 -0.24780608413E+02 -0.24488747499E+02  0.25508482816E+02  0.43179393268E+02  0.00000000000E+00 0. -1.
         22    1    3    3    0    0  0.10790671162E+03  0.38480630637E+02  0.13425033781E+03  0.17648730988E+03  0.00000000000E+00 0. -1.
</event>
<event>
 7    1  0.6278987E-006  0.7251861E+02  0.7818608E-02  0.1475956E+00
          2   -1    0    0  502    0  0.00000000000E+00  0.00000000000E+00  0.11663664321E+03  0.11663664321E+03  0.00000000000E+00 0. -1.
          1   -1    0    0  501    0 -0.00000000000E+00 -0.00000000000E+00 -0.52456567192E+03  0.52456567192E+03  0.00000000000E+00 0. -1.
         25    2    1    2    0    0  0.17477528606E+02 -0.50057172990E+02  0.33497885907E+02  0.13984560766E+03  0.12499400404E+03 0.  0.
          2    1    1    2  501    0 -0.24387492488E+01  0.73206244551E+02 -0.46146729681E+03  0.46724422710E+03  0.00000000000E+00 0. -1.
          1    1    1    2  502    0 -0.15038779357E+02 -0.23149071560E+02  0.20040382189E+02  0.34112480369E+02  0.00000000000E+00 0. -1.
         22    1    3    3    0    0  0.37944508361E+02 -0.55604826747E+02 -0.29408541880E+02  0.73461178916E+02  0.00000000000E+00 0.  1.
         22    1    3    3    0    0 -0.20466979755E+02  0.55476537561E+01  0.62906427786E+02  0.66384428741E+02  0.00000000000E+00 0.  1.
</event>
<event>
 7    1  0.6278987E-006  0.4308153E+02  0.7818608E-02  0.1506702E+00
          2   -1    0    0  502    0  0.00000000000E+00  0.00000000000E+00  0.58236241656E+02  0.58236241656E+02  0.00000000000E+00 0. -1.
          1   -1    0    0  501    0 -0.00000000000E+00 -0.00000000000E+00 -0.46001110639E+03  0.46001110639E+03  0.00000000000E+00 0. -1.
         25    2    1    2    0    0  0.15375931136E+02  0.17192093935E+02 -0.21017795249E+03  0.24562546599E+03  0.12500044191E+03 0.  0.
          2    1    1    2  501    0  0.28907192674E+02 -0.23922304377E+02 -0.21761218196E+03  0.22082337777E+03  0.00000000000E+00 0. -1.
          1    1    1    2  502    0 -0.44283123810E+02  0.67302104421E+01  0.26015269719E+02  0.51798504279E+02  0.00000000000E+00 0. -1.
         22    1    3    3    0    0  0.33610732429E+01 -0.32348430584E+02 -0.34498997090E+01  0.32705039101E+02  0.00000000000E+00 0. -1.
         22    1    3    3    0    0  0.12014857893E+02  0.49540524518E+02 -0.20672805278E+03  0.21292042689E+03  0.00000000000E+00 0. -1.
</event>
<event>
 7    1  0.6278987E-006  0.8526824E+02  0.7818608E-02  0.1407567E+00
          2   -1    0    0  502    0  0.00000000000E+00  0.00000000000E+00  0.25303225891E+04  0.25303225891E+04  0.00000000000E+00 0. -1.
          1   -1    0    0  501    0 -0.00000000000E+00 -0.00000000000E+00 -0.29650830741E+02  0.29650830741E+02  0.00000000000E+00 0. -1.
         25    2    1    2    0    0  0.69941629703E+02 -0.91106539776E+02  0.10309339382E+04  0.10448167539E+04  0.12500012453E+03 0.  0.
          2    1    1    2  501    0 -0.34466972633E+02  0.18460362507E+02 -0.39086991585E+01  0.39294212239E+02  0.00000000000E+00 0. -1.
          1    1    1    2  502    0 -0.35474657070E+02  0.72646177269E+02  0.14736465193E+04  0.14758624537E+04  0.00000000000E+00 0. -1.
         22    1    3    3    0    0  0.52277129443E+02 -0.11002105083E+03  0.98138916138E+03  0.98891972170E+03  0.00000000000E+00 0. -1.
         22    1    3    3    0    0  0.17664500260E+02  0.18914511058E+02  0.49544776796E+02  0.55897032174E+02  0.00000000000E+00 0. -1.
</event>
<event>
 7    1  0.6278987E-006  0.1095729E+03  0.7818608E-02  0.1261613E+00
          2   -1    0    0  502    0  0.00000000000E+00  0.00000000000E+00  0.43300226617E+03  0.43300226617E+03  0.00000000000E+00 0. -1.
          1   -1    0    0  501    0 -0.00000000000E+00 -0.00000000000E+00 -0.10660169803E+04  0.10660169803E+04  0.00000000000E+00 0. -1.
         25    2    1    2    0    0 -0.12309328356E+03 -0.27601651856E+02 -0.71024983262E+03  0.73211630193E+03  0.12500258870E+03 0.  0.
          2    1    1    2  501    0  0.81081378506E+02 -0.73702314243E+02 -0.32866445777E+03  0.34644847650E+03  0.00000000000E+00 0. -1.
          1    1    1    2  502    0  0.42011905053E+02  0.10130396610E+03  0.40589957625E+03  0.42045446806E+03  0.00000000000E+00 0. -1.
         22    1    3    3    0    0 -0.86431512820E+02  0.21764197421E+01 -0.17916404063E+03  0.19893440292E+03  0.00000000000E+00 0.  1.
         22    1    3    3    0    0 -0.36661770739E+02 -0.29778071598E+02 -0.53108579199E+03  0.53318189901E+03  0.00000000000E+00 0.  1.
</event>
<event>
 7    1  0.6278987E-006  0.1556597E+03  0.7818608E-02  0.1350603E+00
          2   -1    0    0  502    0  0.00000000000E+00  0.00000000000E+00  0.13042663417E+04  0.13042663417E+04  0.00000000000E+00 0. -1.
          1   -1    0    0  501    0 -0.00000000000E+00 -0.00000000000E+00 -0.56365950472E+02  0.56365950472E+02  0.00000000000E+00 0. -1.
         25    2    1    2    0    0 -0.12025595761E+03 -0.83086354516E+02  0.77692314815E+03  0.80037548487E+03  0.12500600389E+03 0.  0.
          2    1    1    2  501    0  0.14581924302E+03  0.60501186931E+02  0.98199101167E+02  0.18592124334E+03  0.00000000000E+00 0. -1.
          1    1    1    2  502    0 -0.25563285418E+02  0.22585167585E+02  0.37277814187E+03  0.37433556391E+03  0.00000000000E+00 0. -1.
         22    1    3    3    0    0 -0.91016052925E+02 -0.58188928437E+02  0.25366123274E+03  0.27570617381E+03  0.00000000000E+00 0.  1.
         22    1    3    3    0    0 -0.29239904681E+02 -0.24897426079E+02  0.52326191541E+03  0.52466931106E+03  0.00000000000E+00 0.  1.
</event>
<event>
 7    1  0.6278987E-006  0.8646053E+02  0.7818608E-02  0.1448953E+00
          2   -1    0    0  502    0  0.00000000000E+00  0.00000000000E+00  0.11175913595E+04  0.11175913595E+04  0.00000000000E+00 0. -1.
          1   -1    0    0  501    0 -0.00000000000E+00 -0.00000000000E+00 -0.89380703046E+02  0.89380703046E+02  0.00000000000E+00 0. -1.
         25    2    1    2    0    0 -0.34428713488E+02 -0.10428456500E+03  0.19312320387E+02  0.16750620076E+03  0.12499901905E+03 0.  0.
          2    1    1    2  501    0  0.20261995858E+02  0.19545620234E+02  0.12700175345E+01  0.28181424574E+02  0.00000000000E+00 0. -1.
          1    1    1    2  502    0  0.14166717630E+02  0.84738944765E+02  0.10076283185E+04  0.10112844372E+04  0.00000000000E+00 0. -1.
         22    1    3    3    0    0  0.16286737243E+02 -0.13956559570E+02 -0.41978806981E+02  0.47140890961E+02  0.00000000000E+00 0. -1.
         22    1    3    3    0    0 -0.50715450731E+02 -0.90328005430E+02  0.61291127368E+02  0.12036530979E+03  0.00000000000E+00 0. -1.
</event>
<event>
 7    1  0.6278987E-006  0.1268881E+03  0.7818608E-02  0.1291245E+00
          2   -1    0    0  502    0  0.00000000000E+00  0.00000000000E+00  0.26444674943E+03  0.26444674943E+03  0.00000000000E+00 0. -1.
          1   -1    0    0  501    0 -0.00000000000E+00 -0.00000000000E+00 -0.14814508422E+04  0.14814508422E+04  0.00000000000E+00 0. -1.
         25    2    1    2    0    0 -0.50584018250E+02  0.88699087247E+02 -0.86390230210E+02  0.18307119144E+03  0.12500207309E+03 0.  0.
          2    1    1    2  501    0 -0.66282284650E+02 -0.25671802769E+02 -0.13252822014E+04  0.13271869861E+04  0.00000000000E+00 0. -1.
          1    1    1    2  502    0  0.11686630290E+03 -0.63027284478E+02  0.19466833882E+03  0.23563941411E+03  0.00000000000E+00 0. -1.
         22    1    3    3    0    0 -0.51610376983E+01 -0.22875069673E+02  0.13075137519E+02  0.26848916995E+02  0.00000000000E+00 0. -1.
         22    1    3    3    0    0 -0.45422980552E+02  0.11157415692E+03 -0.99465367728E+02  0.15622227444E+03  0.00000000000E+00 0. -1.
</event>
<event>
 7    1  0.6278987E-006  0.5508147E+02  0.7818608E-02  0.1523970E+00
          2   -1    0    0  502    0  0.00000000000E+00  0.00000000000E+00  0.18614044112E+04  0.18614044112E+04  0.00000000000E+00 0. -1.
          1   -1    0    0  501    0 -0.00000000000E+00 -0.00000000000E+00 -0.78500181385E+02  0.78500181385E+02  0.00000000000E+00 0. -1.
         25    2    1    2    0    0 -0.28735532333E+02  0.38535217867E+02  0.53031489801E+03  0.54696355153E+03  0.12499816727E+03 0.  0.
          2    1    1    2  501    0  0.50101504469E+02 -0.23495951757E+02 -0.59116395594E+02  0.80975111775E+02  0.00000000000E+00 0. -1.
          1    1    1    2  502    0 -0.21365972136E+02 -0.15039266110E+02  0.13117057274E+04  0.13119659292E+04  0.00000000000E+00 0. -1.
         22    1    3    3    0    0  0.30855684543E+02 -0.13803129054E+02  0.32674849360E+03  0.32849227953E+03  0.00000000000E+00 0.  1.
         22    1    3    3    0    0 -0.59591216876E+02  0.52338346921E+02  0.20356640441E+03  0.21847127200E+03  0.00000000000E+00 0.  1.
</event>
<event>
 7    1  0.6278987E-006  0.6538923E+02  0.7818608E-02  0.1389495E+00
          2   -1    0    0  502    0  0.00000000000E+00  0.00000000000E+00  0.13237828709E+04  0.13237828709E+04  0.00000000000E+00 0. -1.
          1   -1    0    0  501    0 -0.00000000000E+00 -0.00000000000E+00 -0.21506471734E+03  0.21506471734E+03  0.00000000000E+00 0. -1.
         25    2    1    2    0    0 -0.87581680617E+02  0.65356742773E+02  0.14989251056E+03  0.22368690542E+03  0.12500404925E+03 0.  0.
          2    1    1    2  501    0  0.63266886623E+02 -0.11766672344E+02 -0.17156630182E+03  0.18323795852E+03  0.00000000000E+00 0. -1.
          1    1    1    2  502    0  0.24314793994E+02 -0.53590070430E+02  0.11303919448E+04  0.11319227243E+04  0.00000000000E+00 0. -1.
         22    1    3    3    0    0 -0.10317894664E+03  0.77388435686E+02  0.15660202659E+03  0.20287695714E+03  0.00000000000E+00 0. -1.
         22    1    3    3    0    0  0.15597266028E+02 -0.12031692913E+02 -0.67095160282E+01  0.20809948275E+02  0.00000000000E+00 0. -1.
</event>
<event>
 7    1  0.6278987E-006  0.1084192E+03  0.7818608E-02  0.1416025E+00
          2   -1    0    0  502    0  0.00000000000E+00  0.00000000000E+00  0.12703005912E+04  0.12703005912E+04  0.00000000000E+00 0. -1.
          1   -1    0    0  501    0 -0.00000000000E+00 -0.00000000000E+00 -0.21209304475E+03  0.21209304475E+03  0.00000000000E+00 0. -1.
         25    2    1    2    0    0  0.13556780688E+03 -0.15232981144E+02 -0.20747261134E+01  0.18504197649E+03  0.12500221837E+03 0.  0.
          2    1    1    2  501    0 -0.28742928102E+02  0.16701960316E+01 -0.11428640827E+03  0.11785723816E+03  0.00000000000E+00 0. -1.
          1    1    1    2  502    0 -0.10682487878E+03  0.13562785113E+02  0.11745686809E+04  0.11794944213E+04  0.00000000000E+00 0. -1.
         22    1    3    3    0    0  0.64140147468E+02  0.51136316288E+02 -0.23260849702E+02  0.85263992925E+02  0.00000000000E+00 0. -1.
         22    1    3    3    0    0  0.71427659415E+02 -0.66369297432E+02  0.21186123589E+02  0.99777983563E+02  0.00000000000E+00 0. -1.
</event>
<event>
 7    1  0.6278987E-006  0.1301014E+03  0.7818608E-02  0.1301928E+00
          2   -1    0    0  502    0  0.00000000000E+00  0.00000000000E+00  0.40531739437E+03  0.40531739437E+03  0.00000000000E+00 0. -1.
          1   -1    0    0  501    0 -0.00000000000E+00 -0.00000000000E+00 -0.53239050861E+03  0.53239050861E+03  0.00000000000E+00 0. -1.
         25    2    1    2    0    0  0.51599194061E+02  0.16474453025E+03 -0.81498807206E+02  0.22816035103E+03  0.12494740146E+03 0.  0.
          2    1    1    2  501    0  0.19976819889E+02 -0.59526791408E+02 -0.36256792499E+03  0.36796468915E+03  0.00000000000E+00 0. -1.
          1    1    1    2  502    0 -0.71576013950E+02 -0.10521773884E+03  0.31699361795E+03  0.34158286280E+03  0.00000000000E+00 0. -1.
         22    1    3    3    0    0  0.62326863606E+02  0.43990719305E+02 -0.74653514930E+02  0.10673784991E+03  0.00000000000E+00 0. -1.
         22    1    3    3    0    0 -0.10727669545E+02  0.12075381095E+03 -0.68452922762E+01  0.12142250112E+03  0.00000000000E+00 0. -1.
</event>
<event>
 7    1  0.6278987E-006  0.5245209E+02  0.7818608E-02  0.1569833E+00
          2   -1    0    0  502    0  0.00000000000E+00  0.00000000000E+00  0.12267022954E+03  0.12267022954E+03  0.00000000000E+00 0. -1.
          1   -1    0    0  501    0 -0.00000000000E+00 -0.00000000000E+00 -0.54502547066E+03  0.54502547066E+03  0.00000000000E+00 0. -1.
         25    2    1    2    0    0 -0.27895050785E+02 -0.45527813339E+02  0.35169029814E+02  0.14040314026E+03  0.12500106196E+03 0.  0.
          2    1    1    2  501    0  0.42311739586E+02  0.31079198849E+02 -0.48788895254E+03  0.49070544109E+03  0.00000000000E+00 0. -1.
          1    1    1    2  502    0 -0.14416688801E+02  0.14448614490E+02  0.30364681601E+02  0.36587118846E+02  0.00000000000E+00 0. -1.
         22    1    3    3    0    0  0.29401951360E+02  0.16720033891E+02 -0.20101412292E+02  0.39345915330E+02  0.00000000000E+00 0.  1.
         22    1    3    3    0    0 -0.57297002145E+02 -0.62247847230E+02  0.55270442105E+02  0.10105722493E+03  0.00000000000E+00 0.  1.
</event>
<event>
 7    1  0.6278987E-006  0.4424839E+02  0.7818608E-02  0.1549714E+00
          2   -1    0    0  502    0  0.00000000000E+00  0.00000000000E+00  0.26652040213E+03  0.26652040213E+03  0.00000000000E+00 0. -1.
          1   -1    0    0  501    0 -0.00000000000E+00 -0.00000000000E+00 -0.45871029887E+03  0.45871029887E+03  0.00000000000E+00 0. -1.
         25    2    1    2    0    0 -0.20166620491E+02  0.36207916669E+02  0.15078159311E+02  0.13255039601E+03  0.12499820312E+03 0.  0.
          2    1    1    2  501    0  0.40669331357E+02 -0.17899869851E+02 -0.39775053779E+03  0.40022479954E+03  0.00000000000E+00 0. -1.
          1    1    1    2  502    0 -0.20502710865E+02 -0.18308046819E+02  0.19048248173E+03  0.19245550545E+03  0.00000000000E+00 0. -1.
         22    1    3    3    0    0 -0.54467009423E+02 -0.13140664063E+02  0.38572187301E+02  0.68023126955E+02  0.00000000000E+00 0. -1.
         22    1    3    3    0    0  0.34300388932E+02  0.49348580732E+02 -0.23494027990E+02  0.64527269060E+02  0.00000000000E+00 0. -1.
</event>
<event>
 7    1  0.6278987E-006  0.3972821E+02  0.7818608E-02  0.1572540E+00
          2   -1    0    0  502    0  0.00000000000E+00  0.00000000000E+00  0.25688077420E+03  0.25688077420E+03  0.00000000000E+00 0. -1.
          1   -1    0    0  501    0 -0.00000000000E+00 -0.00000000000E+00 -0.78977076805E+03  0.78977076805E+03  0.00000000000E+00 0. -1.
         25    2    1    2    0    0  0.34328275981E+02  0.24033408970E+02  0.18381580419E+03  0.22620664104E+03  0.12500063721E+03 0.  0.
          2    1    1    2  501    0  0.69461799242E+01 -0.25569483255E+02 -0.76008549059E+03  0.76054717204E+03  0.00000000000E+00 0. -1.
          1    1    1    2  502    0 -0.41274455905E+02  0.15360742847E+01  0.43379692553E+02  0.59897729176E+02  0.00000000000E+00 0. -1.
         22    1    3    3    0    0  0.72576516786E+02 -0.17809366425E+02  0.11336067565E+03  0.13577616546E+03  0.00000000000E+00 0.  1.
         22    1    3    3    0    0 -0.38248240805E+02  0.41842775395E+02  0.70455128536E+02  0.90430475584E+02  0.00000000000E+00 0.  1.
</event>
<event>
 7    1  0.6278987E-006  0.5528410E+02  0.7818608E-02  0.1554114E+00
          2   -1    0    0  502    0  0.00000000000E+00  0.00000000000E+00  0.17799303972E+03  0.17799303972E+03  0.00000000000E+00 0. -1.
          1   -1    0    0  501    0 -0.00000000000E+00 -0.00000000000E+00 -0.95410373495E+03  0.95410373495E+03  0.00000000000E+00 0. -1.
         25    2    1    2    0    0 -0.64832539030E+01 -0.35906642793E+02 -0.21189122261E+03  0.24872118885E+03  0.12503207583E+03 0.  0.
          2    1    1    2  501    0 -0.14569713236E+02 -0.15658916125E+02 -0.71877353923E+03  0.71909170409E+03  0.00000000000E+00 0. -1.
          1    1    1    2  502    0  0.21052967139E+02  0.51565558918E+02  0.15455406661E+03  0.16428388173E+03  0.00000000000E+00 0. -1.
         22    1    3    3    0    0 -0.17743950247E+02  0.41420754161E+02 -0.11950855783E+03  0.12772165847E+03  0.00000000000E+00 0. -1.
         22    1    3    3    0    0  0.11260696344E+02 -0.77327396953E+02 -0.92382664775E+02  0.12099953038E+03  0.00000000000E+00 0. -1.
</event>
<event>
 7    1  0.6278987E-006  0.5816077E+02  0.7818608E-02  0.1480543E+00
          2   -1    0    0  502    0  0.00000000000E+00  0.00000000000E+00  0.14997584831E+03  0.14997584831E+03  0.00000000000E+00 0. -1.
          1   -1    0    0  501    0 -0.00000000000E+00 -0.00000000000E+00 -0.27904066701E+03  0.27904066701E+03  0.00000000000E+00 0. -1.
         25    2    1    2    0    0 -0.72847233532E+02  0.40761921182E+02  0.18563702108E+02  0.15145178381E+03  0.12499911252E+03 0.  0.
          2    1    1    2  501    0  0.33064984201E+02 -0.41129648178E+01 -0.19971354069E+03  0.20247396869E+03  0.00000000000E+00 0. -1.
          1    1    1    2  502    0  0.39782249332E+02 -0.36648956364E+02  0.52085019884E+02  0.75090762819E+02  0.00000000000E+00 0. -1.
         22    1    3    3    0    0 -0.90508956645E+02  0.18101276173E+02 -0.28247574410E+02  0.96526954226E+02  0.00000000000E+00 0. -1.
         22    1    3    3    0    0  0.17661723113E+02  0.22660645009E+02  0.46811276517E+02  0.54924829583E+02  0.00000000000E+00 0. -1.
</event>
<event>
 7    1  0.6278987E-006  0.1173817E+03  0.7818608E-02  0.1332421E+00
          2   -1    0    0  502    0  0.00000000000E+00  0.00000000000E+00  0.17376982397E+04  0.17376982397E+04  0.00000000000E+00 0. -1.
          1   -1    0    0  501    0 -0.00000000000E+00 -0.00000000000E+00 -0.71368426414E+02  0.71368426414E+02  0.00000000000E+00 0. -1.
         25    2    1    2    0    0  0.10261055056E+03 -0.11507930931E+02  0.14710945240E+03  0.21892314143E+03  0.12499917323E+03 0.  0.
          2    1    1    2  501    0 -0.11384751848E+03  0.63234022610E+02  0.86262283790E+02  0.15620813258E+03  0.00000000000E+00 0. -1.
          1    1    1    2  502    0  0.11236967927E+02 -0.51726091678E+02  0.14329580771E+04  0.14339353921E+04  0.00000000000E+00 0. -1.
         22    1    3    3    0    0  0.17362298488E+02  0.30950094581E+02  0.11189061450E+03  0.11738342036E+03  0.00000000000E+00 0.  1.
         22    1    3    3    0    0  0.85248252068E+02 -0.42458025513E+02  0.35218837902E+02  0.10153972107E+03  0.00000000000E+00 0.  1.
</event>
<event>
 7    1  0.6278987E-006  0.2459317E+03  0.7818608E-02  0.1258355E+00
          2   -1    0    0  502    0  0.00000000000E+00  0.00000000000E+00  0.10741206292E+04  0.10741206292E+04  0.00000000000E+00 0. -1.
          1   -1    0    0  501    0 -0.00000000000E+00 -0.00000000000E+00 -0.62446666897E+03  0.62446666897E+03  0.00000000000E+00 0. -1.
         25    2    1    2    0    0  0.25023921331E+03 -0.62202355459E+01 -0.44993279751E+00  0.27979201168E+03  0.12500004861E+03 0.  0.
          2    1    1    2  501    0 -0.81456301658E+01  0.49620197509E+02 -0.46678788398E+03  0.46948849179E+03  0.00000000000E+00 0. -1.
          1    1    1    2  502    0 -0.24209358315E+03 -0.43399961963E+02  0.91689177703E+03  0.94930679471E+03  0.00000000000E+00 0. -1.
         22    1    3    3    0    0  0.98361948045E+02 -0.61564489745E+02 -0.17087406015E+02  0.11729125571E+03  0.00000000000E+00 0. -1.
         22    1    3    3    0    0  0.15187726527E+03  0.55344254199E+02  0.16637473218E+02  0.16250075598E+03  0.00000000000E+00 0. -1.
</event>
<event>
 7    1  0.6278987E-006  0.1364639E+03  0.7818608E-02  0.1335595E+00
          2   -1    0    0  502    0  0.00000000000E+00  0.00000000000E+00  0.39254176268E+03  0.39254176268E+03  0.00000000000E+00 0. -1.
          1   -1    0    0  501    0 -0.00000000000E+00 -0.00000000000E+00 -0.41818653447E+03  0.41818653447E+03  0.00000000000E+00 0. -1.
         25    2    1    2    0    0  0.11733418157E+03  0.87016667523E+02  0.43325858494E+02  0.19708616938E+03  0.12500647005E+03 0.  0.
          2    1    1    2  501    0 -0.37929714650E+02  0.22857506070E+02 -0.32283042457E+03  0.32585366633E+03  0.00000000000E+00 0. -1.
          1    1    1    2  502    0 -0.79404466918E+02 -0.10987417359E+03  0.25385979427E+03  0.28778846144E+03  0.00000000000E+00 0. -1.
         22    1    3    3    0    0  0.69228727871E+02  0.58156341875E+02  0.87394644707E+02  0.12574816415E+03  0.00000000000E+00 0. -1.
         22    1    3    3    0    0  0.48105453698E+02  0.28860325648E+02 -0.44068786214E+02  0.71338005231E+02  0.00000000000E+00 0. -1.
</event>
<event>
 7    1  0.6278987E-006  0.1111460E+03  0.7818608E-02  0.1278141E+00
          2   -1    0    0  502    0  0.00000000000E+00  0.00000000000E+00  0.14607587166E+04  0.14607587166E+04  0.00000000000E+00 0. -1.
          1   -1    0    0  501    0 -0.00000000000E+00 -0.00000000000E+00 -0.11131829503E+03  0.11131829503E+03  0.00000000000E+00 0. -1.
         25    2    1    2    0    0 -0.66090406229E+01  0.95126106163E+02  0.16404776178E+03  0.22722047208E+03  0.12499927719E+03 0.  0.
          2    1    1    2  501    0  0.96104100020E+02 -0.74514364691E+02 -0.30601947197E+02  0.12539883476E+03  0.00000000000E+00 0. -1.
          1    1    1    2  502    0 -0.89495059397E+02 -0.20611741472E+02  0.12159946070E+04  0.12194577048E+04  0.00000000000E+00 0. -1.
         22    1    3    3    0    0  0.27255142718E+02  0.11076893596E+03  0.93811027678E+02  0.14769261624E+03  0.00000000000E+00 0.  1.
         22    1    3    3    0    0 -0.33864183341E+02 -0.15642829800E+02  0.70236734099E+02  0.79527855840E+02  0.00000000000E+00 0.  1.
</event>
<event>
 7    1  0.6278987E-006  0.7818981E+02  0.7818608E-02  0.1483790E+00
          2   -1    0    0  502    0  0.00000000000E+00  0.00000000000E+00  0.30279282590E+03  0.30279282590E+03  0.00000000000E+00 0. -1.
          1   -1    0    0  501    0 -0.00000000000E+00 -0.00000000000E+00 -0.57446572641E+03  0.57446572641E+03  0.00000000000E+00 0. -1.
         25    2    1    2    0    0 -0.46261622958E+02  0.84377654234E+02 -0.36727419283E+02  0.16197517819E+03  0.12500931458E+03 0.  0.
          2    1    1    2  501    0  0.48502424553E+02 -0.60257046188E+02 -0.47134295219E+03  0.47764796177E+03  0.00000000000E+00 0. -1.
          1    1    1    2  502    0 -0.22408015948E+01 -0.24120608045E+02  0.23639747097E+03  0.23763541235E+03  0.00000000000E+00 0. -1.
         22    1    3    3    0    0 -0.43696538540E+02  0.67710378897E+02  0.35315817273E+02  0.87984600019E+02  0.00000000000E+00 0.  1.
         22    1    3    3    0    0 -0.25650844176E+01  0.16667275337E+02 -0.72043236556E+02  0.73990578175E+02  0.00000000000E+00 0.  1.
</event>
<event>
 7    1  0.6278987E-006  0.2938625E+02  0.7818608E-02  0.1664897E+00
          2   -1    0    0  502    0  0.00000000000E+00  0.00000000000E+00  0.73591708596E+03  0.73591708596E+03  0.00000000000E+00 0. -1.
          1   -1    0    0  501    0 -0.00000000000E+00 -0.00000000000E+00 -0.47356312528E+03  0.47356312528E+03  0.00000000000E+00 0. -1.
         25    2    1    2    0    0 -0.63500935620E+01  0.14920480609E+02  0.17167609529E+03  0.21297679064E+03  0.12499394876E+03 0.  0.
          2    1    1    2  501    0  0.26936305977E+02 -0.11855596029E+02 -0.45223508430E+03  0.45319167160E+03  0.00000000000E+00 0. -1.
          1    1    1    2  502    0 -0.20586212415E+02 -0.30648845794E+01  0.54291294968E+03  0.54331174899E+03  0.00000000000E+00 0. -1.
         22    1    3    3    0    0 -0.64730856148E+02 -0.32976266300E+01  0.84798022630E+02  0.10673173249E+03  0.00000000000E+00 0. -1.
         22    1    3    3    0    0  0.58380762586E+02  0.18218107239E+02  0.86878072664E+02  0.10624505815E+03  0.00000000000E+00 0. -1.
</event>
<event>
 7    1  0.6278987E-006  0.1301069E+03  0.7818608E-02  0.1309376E+00
          2   -1    0    0  502    0  0.00000000000E+00  0.00000000000E+00  0.22929124934E+03  0.22929124934E+03  0.00000000000E+00 0. -1.
          1   -1    0    0  501    0 -0.00000000000E+00 -0.00000000000E+00 -0.96742482038E+03  0.96742482038E+03  0.00000000000E+00 0. -1.
         25    2    1    2    0    0 -0.14025357544E+03  0.11659271989E+03 -0.16929398850E+03  0.27848235069E+03  0.12500814914E+03 0.  0.
          2    1    1    2  501    0  0.38314481655E+02 -0.44413706943E+02 -0.71986391057E+03  0.72224969824E+03  0.00000000000E+00 0. -1.
          1    1    1    2  502    0  0.10193909378E+03 -0.72179012948E+02  0.15102432802E+03  0.19598402079E+03  0.00000000000E+00 0. -1.
         22    1    3    3    0    0 -0.96256757458E+00 -0.12693268653E+01 -0.71395697708E+02  0.71413467765E+02  0.00000000000E+00 0.  1.
         22    1    3    3    0    0 -0.13929100786E+03  0.11786204676E+03 -0.97898290790E+02  0.20706888293E+03  0.00000000000E+00 0.  1.
</event>
<event>
 7    1  0.6278987E-006  0.4783394E+02  0.7818608E-02  0.1565595E+00
          2   -1    0    0  502    0  0.00000000000E+00  0.00000000000E+00  0.88191776086E+03  0.88191776086E+03  0.00000000000E+00 0. -1.
          1   -1    0    0  501    0 -0.00000000000E+00 -0.00000000000E+00 -0.58282337194E+02  0.58282337194E+02  0.00000000000E+00 0. -1.
         25    2    1    2    0    0 -0.95590234910E+01  0.26537061636E+02  0.27859594357E+03  0.30665765164E+03  0.12501049944E+03 0.  0.
          2    1    1    2  501    0  0.44727362227E+01  0.22545258438E+02 -0.40156769680E+02  0.46269430496E+02  0.00000000000E+00 0. -1.
          1    1    1    2  502    0  0.50862872683E+01 -0.49082320074E+02  0.58519624978E+03  0.58727301591E+03  0.00000000000E+00 0. -1.
         22    1    3    3    0    0 -0.17156092063E+02 -0.44894525999E+02  0.16833159825E+03  0.17505821011E+03  0.00000000000E+00 0. -1.
         22    1    3    3    0    0  0.75970685719E+01  0.71431587635E+02  0.11026434532E+03  0.13159944153E+03  0.00000000000E+00 0. -1.
</event>
<event>
 7    1  0.6278987E-006  0.1158366E+03  0.7818608E-02  0.1440713E+00
          2   -1    0    0  502    0  0.00000000000E+00  0.00000000000E+00  0.23511465671E+04  0.23511465671E+04  0.00000000000E+00 0. -1.
          1   -1    0    0  501    0 -0.00000000000E+00 -0.00000000000E+00 -0.25848661936E+03  0.25848661936E+03  0.00000000000E+00 0. -1.
         25    2    1    2    0    0 -0.99829852971E+02  0.83435557162E+02  0.11289043565E+04  0.11432310904E+04  0.12499915267E+03 0.  0.
          2    1    1    2  501    0  0.77615226226E+02 -0.85782545968E+02 -0.23790163973E+03  0.26453725394E+03  0.00000000000E+00 0. -1.
          1    1    1    2  502    0  0.22214626745E+02  0.23469888060E+01  0.12016572310E+04  0.12018648421E+04  0.00000000000E+00 0. -1.
         22    1    3    3    0    0 -0.13496642029E+02 -0.29945153459E+02  0.12418205979E+03  0.12845254195E+03  0.00000000000E+00 0. -1.
         22    1    3    3    0    0 -0.86333210942E+02  0.11338071062E+03  0.10047222967E+04  0.10147785484E+04  0.00000000000E+00 0. -1.
</event>
<event>
 7    1  0.6278987E-006  0.7658115E+02  0.7818608E-02  0.1390241E+00
          2   -1    0    0  502    0  0.00000000000E+00  0.00000000000E+00  0.25929442231E+04  0.25929442231E+04  0.00000000000E+00 0. -1.
          1   -1    0    0  501    0 -0.00000000000E+00 -0.00000000000E+00 -0.15624356692E+04  0.15624356692E+04  0.00000000000E+00 0. -1.
         25    2    1    2    0    0  0.28887767725E+02 -0.89426257302E+02  0.45211703960E+01  0.15644916360E+03  0.12499736473E+03 0.  0.
          2    1    1    2  501    0  0.18689877639E+02  0.74224051629E+02 -0.14852378671E+04  0.14872088096E+04  0.00000000000E+00 0. -1.
          1    1    1    2  502    0 -0.47577645365E+02  0.15202205673E+02  0.25112252507E+04  0.25117219191E+04  0.00000000000E+00 0. -1.
         22    1    3    3    0    0  0.75164311538E+02 -0.44671582385E+02 -0.15981339728E+02  0.88885472498E+02  0.00000000000E+00 0. -1.
         22    1    3    3    0    0 -0.46276543812E+02 -0.44754674917E+02  0.20502510124E+02  0.67563691103E+02  0.00000000000E+00 0. -1.
</event>
<event>
 7    1  0.6278987E-006  0.5940697E+02  0.7818608E-02  0.1464089E+00
          2   -1    0    0  502    0  0.00000000000E+00  0.00000000000E+00  0.87501292742E+03  0.87501292742E+03  0.00000000000E+00 0. -1.
          1   -1    0    0  501    0 -0.00000000000E+00 -0.00000000000E+00 -0.58982078534E+03  0.58982078534E+03  0.00000000000E+00 0. -1.
         25    2    1    2    0    0  0.59863989683E+02 -0.52558142830E+02 -0.14927406149E+03  0.21036726915E+03  0.12500234741E+03 0.  0.
          2    1    1    2  501    0 -0.27193472612E+01  0.36586339499E+02 -0.40813404731E+03  0.40977964281E+03  0.00000000000E+00 0. -1.
          1    1    1    2  502    0 -0.57144642422E+02  0.15971803331E+02  0.84260025087E+03  0.84468680079E+03  0.00000000000E+00 0. -1.
         22    1    3    3    0    0 -0.27356841990E+02 -0.51151863110E+02 -0.80820144169E+02  0.99482689986E+02  0.00000000000E+00 0. -1.
         22    1    3    3    0    0  0.87220831673E+02 -0.14062797197E+01 -0.68453917316E+02  0.11088457916E+03  0.00000000000E+00 0. -1.
</event>
<event>
 7    1  0.6278987E-006  0.9621966E+02  0.7818608E-02  0.1328564E+00
          2   -1    0    0  502    0  0.00000000000E+00  0.00000000000E+00  0.11209948882E+03  0.11209948882E+03  0.00000000000E+00 0. -1.
          1   -1    0    0  501    0 -0.00000000000E+00 -0.00000000000E+00 -0.11949429960E+04  0.11949429960E+04  0.00000000000E+00 0. -1.
         25    2    1    2    0    0 -0.22464264501E+02 -0.75296111545E+02 -0.34482864685E+03  0.37510884620E+03  0.12500281283E+03 0.  0.
          2    1    1    2  501    0  0.65366314849E+02 -0.13768565608E+02 -0.80803366367E+03  0.81079018872E+03  0.00000000000E+00 0. -1.
          1    1    1    2  502    0 -0.42902050348E+02  0.89064677153E+02  0.70018803308E+02  0.12114344991E+03  0.00000000000E+00 0. -1.
         22    1    3    3    0    0 -0.38872521424E+02  0.17006309277E+02 -0.49186285334E+02  0.64958280012E+02  0.00000000000E+00 0.  1.
         22    1    3    3    0    0  0.16408256923E+02 -0.92302420821E+02 -0.29564236151E+03  0.31015056619E+03  0.00000000000E+00 0.  1.
</event>
<event>
 7    1  0.6278987E-006  0.1034863E+03  0.7818608E-02  0.1467500E+00
          2   -1    0    0  502    0  0.00000000000E+00  0.00000000000E+00  0.99085603332E+03  0.99085603332E+03  0.00000000000E+00 0. -1.
          1   -1    0    0  501    0 -0.00000000000E+00 -0.00000000000E+00 -0.12872265997E+04  0.12872265997E+04  0.00000000000E+00 0. -1.
         25    2    1    2    0    0 -0.82601128669E+02  0.49337885835E+02  0.14733890808E+03  0.21585365802E+03  0.12500749742E+03 0.  0.
          2    1    1    2  501    0  0.46318127442E+01  0.20020552366E+02 -0.12495202655E+04  0.12496892294E+04  0.00000000000E+00 0. -1.
          1    1    1    2  502    0  0.77969315925E+02 -0.69358438202E+02  0.80581079105E+03  0.81253974558E+03  0.00000000000E+00 0. -1.
         22    1    3    3    0    0 -0.80715988150E+02 -0.11569941766E+02  0.12828630887E+03  0.15200760290E+03  0.00000000000E+00 0. -1.
         22    1    3    3    0    0 -0.18851405191E+01  0.60907827601E+02  0.19052599205E+02  0.63846055120E+02  0.00000000000E+00 0. -1.
</event>
<event>
 7    1  0.6278987E-006  0.6494224E+02  0.7818608E-02  0.1423054E+00
          2   -1    0    0  502    0  0.00000000000E+00  0.00000000000E+00  0.24029418815E+04  0.24029418815E+04  0.00000000000E+00 0. -1.
          1   -1    0    0  501    0 -0.00000000000E+00 -0.00000000000E+00 -0.83933534037E+02  0.83933534037E+02  0.00000000000E+00 0. -1.
         25    2    1    2    0    0 -0.22631895415E+02  0.88920474018E+02  0.42423512519E+02  0.16076015378E+03  0.12500007696E+03 0.  0.
          2    1    1    2  501    0 -0.20584235362E+02 -0.40617576801E+02 -0.29763568016E+01  0.45632849905E+02  0.00000000000E+00 0. -1.
          1    1    1    2  502    0  0.43216130777E+02 -0.48302897217E+02  0.22795611917E+04  0.22804824118E+04  0.00000000000E+00 0. -1.
         22    1    3    3    0    0 -0.21944254127E+02  0.34785940289E+02  0.83314870831E+02  0.92913829070E+02  0.00000000000E+00 0.  1.
         22    1    3    3    0    0 -0.68764128772E+00  0.54134533729E+02 -0.40891358312E+02  0.67846324714E+02  0.00000000000E+00 0.  1.
</event>
<event>
 7    1  0.6278987E-006  0.9152998E+02  0.7818608E-02  0.1365323E+00
          2   -1    0    0  502    0  0.00000000000E+00  0.00000000000E+00  0.10856973095E+03  0.10856973095E+03  0.00000000000E+00 0. -1.
          1   -1    0    0  501    0 -0.00000000000E+00 -0.00000000000E+00 -0.22339772638E+04  0.22339772638E+04  0.00000000000E+00 0. -1.
         25    2    1    2    0    0 -0.12590148295E+03 -0.17024254374E+02 -0.12417975526E+03  0.21723118939E+03  0.12501107703E+03 0.  0.
          2    1    1    2  501    0  0.80886520833E+02  0.41505870234E+02 -0.20515105780E+04  0.20535240486E+04  0.00000000000E+00 0. -1.
          1    1    1    2  502    0  0.45014962117E+02 -0.24481615860E+02  0.50282800387E+02  0.71791756799E+02  0.00000000000E+00 0. -1.
         22    1    3    3    0    0 -0.11020153503E+03  0.40536172756E+02 -0.70403648765E+02  0.13690958105E+03  0.00000000000E+00 0. -1.
         22    1    3    3    0    0 -0.15699947924E+02 -0.57560427130E+02 -0.53776106496E+02  0.80321608338E+02  0.00000000000E+00 0. -1.
</event>
<event>
 7    1  0.6278987E-006  0.9427084E+02  0.7818608E-02  0.1358619E+00
          2   -1    0    0  502    0  0.00000000000E+00  0.00000000000E+00  0.12442518987E+04  0.12442518987E+04  0.00000000000E+00 0. -1.
          1   -1    0    0  501    0 -0.00000000000E+00 -0.00000000000E+00 -0.46154875303E+03  0.46154875303E+03  0.00000000000E+00 0. -1.
         25    2    1    2    0    0  0.43859617937E+02  0.15977730152E+02 -0.13921696980E+01  0.13343829401E+03  0.12499954490E+03 0.  0.
          2    1    1    2  501    0 -0.88479763715E+02 -0.43880606658E+02 -0.38734637898E+03  0.39973915687E+03  0.00000000000E+00 0. -1.
          1    1    1    2  502    0  0.44620145778E+02  0.27902876506E+02  0.11714416943E+04  0.11726232008E+04  0.00000000000E+00 0. -1.
         22    1    3    3    0    0 -0.41238155397E+02  0.17559769237E+02  0.13975874010E+02  0.46949504902E+02  0.00000000000E+00 0.  1.
         22    1    3    3    0    0  0.85097773333E+02 -0.15820390852E+01 -0.15368043708E+02  0.86488789108E+02  0.00000000000E+00 0.  1.
</event>
<event>
 7    1  0.6278987E-006  0.2307091E+03  0.7818608E-02  0.1164684E+00
          2   -1    0    0  502    0  0.00000000000E+00  0.00000000000E+00  0.26709517659E+04  0.26709517659E+04  0.00000000000E+00 0. -1.
          1   -1    0    0  501    0 -0.00000000000E+00 -0.00000000000E+00 -0.76276828074E+02  0.76276828074E+02  0.00000000000E+00 0. -1.
         25    2    1    2    0    0 -0.20259800235E+03  0.10061406650E+03  0.13448621588E+04  0.13694675470E+04  0.12497197724E+03 0.  0.
          2    1    1    2  501    0  0.75630548891E+02  0.12438137905E+03  0.55445243682E+02  0.15577189229E+03  0.00000000000E+00 0. -1.
          1    1    1    2  502    0  0.12696745346E+03 -0.22499544555E+03  0.11943675353E+04  0.12219891547E+04  0.00000000000E+00 0. -1.
         22    1    3    3    0    0 -0.10312433884E+03  0.53349221091E+02  0.10169194999E+04  0.10235262761E+04  0.00000000000E+00 0.  1.
         22    1    3    3    0    0 -0.99473663509E+02  0.47264845405E+02  0.32794265892E+03  0.34594127086E+03  0.00000000000E+00 0.  1.
</event>
<event>
 7    1  0.6278987E-006  0.1456242E+03  0.7818608E-02  0.1359277E+00
          2   -1    0    0  502    0  0.00000000000E+00  0.00000000000E+00  0.18198696694E+04  0.18198696694E+04  0.00000000000E+00 0. -1.
          1   -1    0    0  501    0 -0.00000000000E+00 -0.00000000000E+00 -0.15589069863E+03  0.15589069863E+03  0.00000000000E+00 0. -1.
         25    2    1    2    0    0  0.15660434513E+03 -0.52969711744E+02  0.98771724939E+03  0.10092277428E+04  0.12499824357E+03 0.  0.
          2    1    1    2  501    0 -0.24123351329E+02  0.23788993772E+02 -0.13746356431E+03  0.14157713028E+03  0.00000000000E+00 0. -1.
          1    1    1    2  502    0 -0.13248099380E+03  0.29180717972E+02  0.81372528568E+03  0.82495549491E+03  0.00000000000E+00 0. -1.
         22    1    3    3    0    0  0.10090234012E+02 -0.37910013374E+00  0.43204354512E+03  0.43216152238E+03  0.00000000000E+00 0. -1.
         22    1    3    3    0    0  0.14651411112E+03 -0.52590611610E+02  0.55567370427E+03  0.57706622046E+03  0.00000000000E+00 0. -1.
</event>
<event>
 7    1  0.6278987E-006  0.1984047E+03  0.7818608E-02  0.1204143E+00
          2   -1    0    0  502    0  0.00000000000E+00  0.00000000000E+00  0.17979581378E+03  0.17979581378E+03  0.00000000000E+00 0. -1.
          1   -1    0    0  501    0 -0.00000000000E+00 -0.00000000000E+00 -0.92922432714E+03  0.92922432714E+03  0.00000000000E+00 0. -1.
         25    2    1    2    0    0 -0.37617212858E+02 -0.97645359287E+02 -0.47908857879E+03  0.50606476888E+03  0.12500405227E+03 0.  0.
          2    1    1    2  501    0 -0.13414224751E+02 -0.10816248359E+03 -0.35746646342E+03  0.37371290686E+03  0.00000000000E+00 0. -1.
          1    1    1    2  502    0  0.51031437608E+02  0.20580784287E+03  0.87126528854E+02  0.22924246518E+03  0.00000000000E+00 0. -1.
         22    1    3    3    0    0  0.12900524873E+02  0.15988015624E+02 -0.14563356954E+02  0.25181968774E+02  0.00000000000E+00 0. -1.
         22    1    3    3    0    0 -0.50517737731E+02 -0.11363337491E+03 -0.46452522184E+03  0.48088280011E+03  0.00000000000E+00 0. -1.
</event>
<event>
 7    1  0.6278987E-006  0.1679851E+03  0.7818608E-02  0.1266921E+00
          2   -1    0    0  502    0  0.00000000000E+00  0.00000000000E+00  0.32902910843E+04  0.32902910843E+04  0.00000000000E+00 0. -1.
          1   -1    0    0  501    0 -0.00000000000E+00 -0.00000000000E+00 -0.96166219423E+03  0.96166219423E+03  0.00000000000E+00 0. -1.
         25    2    1    2    0    0 -0.91219983944E+02 -0.19307595432E+03  0.65688778836E+03  0.70194504193E+03  0.12500346310E+03 0.  0.
          2    1    1    2  501    0 -0.12269468385E+02  0.66576195051E+02 -0.93535125829E+03  0.93779790253E+03  0.00000000000E+00 0. -1.
          1    1    1    2  502    0  0.10348945233E+03  0.12649975927E+03  0.26070923600E+04  0.26122103341E+04  0.00000000000E+00 0. -1.
         22    1    3    3    0    0 -0.11343863623E+03 -0.98791748003E+02  0.41118885269E+03  0.43784061739E+03  0.00000000000E+00 0.  1.
         22    1    3    3    0    0  0.22218652286E+02 -0.94284206318E+02  0.24569893567E+03  0.26410442454E+03  0.00000000000E+00 0.  1.
</event>
<event>
 7    1  0.6278987E-006  0.1145397E+03  0.7818608E-02  0.1280267E+00
          2   -1    0    0  502    0  0.00000000000E+00  0.00000000000E+00  0.21005279902E+04  0.21005279902E+04  0.00000000000E+00 0. -1.
          1   -1    0    0  501    0 -0.00000000000E+00 -0.00000000000E+00 -0.51402001650E+03  0.51402001650E+03  0.00000000000E+00 0. -1.
         25    2    1    2    0    0 -0.17699205632E+03 -0.70496491213E+02  0.40674021124E+03  0.46621670934E+03  0.12499790939E+03 0.  0.
          2    1    1    2  501    0  0.87059477187E+02  0.68676139000E+01 -0.47850214924E+03  0.48640602743E+03  0.00000000000E+00 0. -1.
          1    1    1    2  502    0  0.89932579133E+02  0.63628877313E+02  0.16582699117E+04  0.16619252700E+04  0.00000000000E+00 0. -1.
         22    1    3    3    0    0 -0.16854520287E+03 -0.92287439842E+02  0.29504219628E+03  0.35209992125E+03  0.00000000000E+00 0. -1.
         22    1    3    3    0    0 -0.84468534489E+01  0.21790948629E+02  0.11169801497E+03  0.11411678808E+03  0.00000000000E+00 0. -1.
</event>
<event>
 7    1  0.6278987E-006  0.6237422E+02  0.7818608E-02  0.1443105E+00
          2   -1    0    0  502    0  0.00000000000E+00  0.00000000000E+00  0.27615609456E+03  0.27615609456E+03  0.00000000000E+00 0. -1.
          1   -1    0    0  501    0 -0.00000000000E+00 -0.00000000000E+00 -0.13033229655E+04  0.13033229655E+04  0.00000000000E+00 0. -1.
         25    2    1    2    0    0 -0.48893459029E+01 -0.34112567678E+02 -0.12170336141E+03  0.17783160550E+03  0.12499919503E+03 0.  0.
          2    1    1    2  501    0 -0.39131744802E+02 -0.11377362683E+02 -0.11491504027E+04  0.11498727694E+04  0.00000000000E+00 0. -1.
          1    1    1    2  502    0  0.44021090705E+02  0.45489930360E+02  0.24368689315E+03  0.25177468516E+03  0.00000000000E+00 0. -1.
         22    1    3    3    0    0  0.13165264356E+02 -0.62223251692E+02 -0.12882697601E+03  0.14367131580E+03  0.00000000000E+00 0. -1.
         22    1    3    3    0    0 -0.18054610259E+02  0.28110684014E+02  0.71236145966E+01  0.34160289698E+02  0.00000000000E+00 0. -1.
</event>
<event>
 7    1  0.6278987E-006  0.1397472E+03  0.7818608E-02  0.1316126E+00
          2   -1    0    0  502    0  0.00000000000E+00  0.00000000000E+00  0.41146939566E+04  0.41146939566E+04  0.00000000000E+00 0. -1.
          1   -1    0    0  501    0 -0.00000000000E+00 -0.00000000000E+00 -0.13680281485E+02  0.13680281485E+02  0.00000000000E+00 0. -1.
         25    2    1    2    0    0 -0.41885152893E+02  0.11589642284E+03  0.11508095063E+04  0.11641188378E+04  0.12499520811E+03 0.  0.
          2    1    1    2  501    0 -0.51269450505E+02 -0.33554024026E+01  0.12327176341E+03  0.13355052578E+03  0.00000000000E+00 0. -1.
          1    1    1    2  502    0  0.93154603398E+02 -0.11254102043E+03  0.28269324054E+04  0.28307048745E+04  0.00000000000E+00 0. -1.
         22    1    3    3    0    0 -0.55253002890E+02  0.39166577378E+02  0.22329702313E+03  0.23334197147E+03  0.00000000000E+00 0. -1.
         22    1    3    3    0    0  0.13367849997E+02  0.76729845458E+02  0.92751248313E+03  0.93077686636E+03  0.00000000000E+00 0. -1.
</event>
<event>
 7    1  0.6278987E-006  0.7300131E+02  0.7818608E-02  0.1454995E+00
          2   -1    0    0  502    0  0.00000000000E+00  0.00000000000E+00  0.11815469252E+04  0.11815469252E+04  0.00000000000E+00 0. -1.
          1   -1    0    0  501    0 -0.00000000000E+00 -0.00000000000E+00 -0.14671356449E+04  0.14671356449E+04  0.00000000000E+00 0. -1.
         25    2    1    2    0    0  0.61569475395E+02 -0.12847202647E+02  0.33204635594E+03  0.36032582673E+03  0.12499627194E+03 0.  0.
          2    1    1    2  501    0 -0.57900947373E+02  0.44530955880E+02 -0.14517729056E+04  0.14536093338E+04  0.00000000000E+00 0. -1.
          1    1    1    2  502    0 -0.36685280222E+01 -0.31683753234E+02  0.83413783004E+03  0.83474740959E+03  0.00000000000E+00 0. -1.
         22    1    3    3    0    0  0.88433028299E+02 -0.41152855931E+02  0.26945528877E+03  0.28656606689E+03  0.00000000000E+00 0. -1.
         22    1    3    3    0    0 -0.26863552904E+02  0.28305653284E+02  0.62591067161E+02  0.73759759834E+02  0.00000000000E+00 0. -1.
</event>
<event>
 7    1  0.6278987E-006  0.1419212E+03  0.7818608E-02  0.1290393E+00
          2   -1    0    0  502    0  0.00000000000E+00  0.00000000000E+00  0.54813213168E+03  0.54813213168E+03  0.00000000000E+00 0. -1.
          1   -1    0    0  501    0 -0.00000000000E+00 -0.00000000000E+00 -0.12647122959E+04  0.12647122959E+04  0.00000000000E+00 0. -1.
         25    2    1    2    0    0 -0.71342787131E+02 -0.13040293447E+03  0.46895459434E+03  0.50758033455E+03  0.12499866350E+03 0.  0.
          2    1    1    2  501    0  0.63999490107E+02  0.27648740191E+01 -0.11752580821E+04  0.11770026079E+04  0.00000000000E+00 0. -1.
          1    1    1    2  502    0  0.73432970237E+01  0.12763806045E+03 -0.10276676370E+02  0.12826148512E+03  0.00000000000E+00 0. -1.
         22    1    3    3    0    0 -0.97433551309E+02 -0.63831604190E+02  0.34908189190E+03  0.36800263296E+03  0.00000000000E+00 0.  1.
         22    1    3    3    0    0  0.26090764178E+02 -0.66571330281E+02  0.11987270244E+03  0.13957770159E+03  0.00000000000E+00 0.  1.
</event>
<event>
 7    1  0.6278987E-006  0.8722869E+02  0.7818608E-02  0.1480071E+00
          2   -1    0    0  502    0  0.00000000000E+00  0.00000000000E+00  0.95447466099E+03  0.95447466099E+03  0.00000000000E+00 0. -1.
          1   -1    0    0  501    0 -0.00000000000E+00 -0.00000000000E+00 -0.53038860608E+03  0.53038860608E+03  0.00000000000E+00 0. -1.
         25    2    1    2    0    0  0.79940822680E+02 -0.16602201724E+02 -0.33843737607E+03  0.36990708682E+03  0.12500090850E+03 0.  0.
          2    1    1    2  501    0 -0.17747774940E+01 -0.22219808573E+02 -0.17347316424E+03  0.17489942378E+03  0.00000000000E+00 0. -1.
          1    1    1    2  502    0 -0.78166045186E+02  0.38822010298E+02  0.93599659522E+03  0.94005675646E+03  0.00000000000E+00 0. -1.
         22    1    3    3    0    0  0.25259444702E+02 -0.68943474204E+02 -0.17581370736E+03  0.19053005505E+03  0.00000000000E+00 0. -1.
         22    1    3    3    0    0  0.54681377979E+02  0.52341272479E+02 -0.16262366872E+03  0.17937703178E+03  0.00000000000E+00 0. -1.
</event>
<event>
 7    1  0.6278987E-006  0.1559923E+03  0.7818608E-02  0.1264100E+00
          2   -1    0    0  502    0  0.00000000000E+00  0.00000000000E+00  0.13215422356E+03  0.13215422356E+03  0.00000000000E+00 0. -1.
          1   -1    0    0  501    0 -0.00000000000E+00 -0.00000000000E+00 -0.54197589585E+03  0.54197589585E+03  0.00000000000E+00 0. -1.
         25    2    1    2    0    0  0.12548046827E+03  0.32605804250E+02 -0.85426974556E+02  0.19932808748E+03  0.12500172834E+03 0.  0.
          2    1    1    2  501    0  0.55615834415E+02 -0.50217555765E+02 -0.27675251244E+03  0.28671741678E+03  0.00000000000E+00 0. -1.
          1    1    1    2  502    0 -0.18109630268E+03  0.17611751515E+02 -0.47642185300E+02  0.18808461515E+03  0.00000000000E+00 0. -1.
         22    1    3    3    0    0  0.10895561816E+03 -0.17210676345E+02 -0.95477633997E+02  0.14588869971E+03  0.00000000000E+00 0. -1.
         22    1    3    3    0    0  0.16524850108E+02  0.49816480595E+02  0.10050659441E+02  0.53439387770E+02  0.00000000000E+00 0. -1.
</event>
<event>
 7    1  0.6278987E-006  0.8804596E+02  0.7818608E-02  0.1374879E+00
          2   -1    0    0  502    0  0.00000000000E+00  0.00000000000E+00  0.13685919212E+04  0.13685919212E+04  0.00000000000E+00 0. -1.
          1   -1    0    0  501    0 -0.00000000000E+00 -0.00000000000E+00 -0.51096051529E+02  0.51096051529E+02  0.00000000000E+00 0. -1.
         25    2    1    2    0    0 -0.12179813427E+03 -0.26398352251E+02  0.20667844226E+03  0.27179482798E+03  0.12499916604E+03 0.  0.
          2    1    1    2  501    0  0.72864471118E+02  0.21110800409E+02  0.62143480786E+02  0.98064821671E+02  0.00000000000E+00 0. -1.
          1    1    1    2  502    0  0.48933663153E+02  0.52875518419E+01  0.10486739467E+04  0.10498283231E+04  0.00000000000E+00 0. -1.
         22    1    3    3    0    0  0.13079452147E+02 -0.16885187828E+02 -0.37347714745E+01  0.21682484969E+02  0.00000000000E+00 0.  1.
         22    1    3    3    0    0 -0.13487758642E+03 -0.95131644229E+01  0.21041321373E+03  0.25011234301E+03  0.00000000000E+00 0.  1.
</event>
<event>
 7    1  0.6278987E-006  0.1013405E+03  0.7818608E-02  0.1417565E+00
          2   -1    0    0  502    0  0.00000000000E+00  0.00000000000E+00  0.25725680451E+03  0.25725680451E+03  0.00000000000E+00 0. -1.
          1   -1    0    0  501    0 -0.00000000000E+00 -0.00000000000E+00 -0.12254048606E+04  0.12254048606E+04  0.00000000000E+00 0. -1.
         25    2    1    2    0    0  0.43571211771E+02 -0.61302729085E+02 -0.92266495113E+02  0.17261124698E+03  0.12500024550E+03 0.  0.
          2    1    1    2  501    0  0.26058740343E+02 -0.15729941253E+02 -0.10803221121E+04  0.10807508292E+04  0.00000000000E+00 0. -1.
          1    1    1    2  502    0 -0.69629952114E+02  0.77032670337E+02  0.20444055111E+03  0.22929958890E+03  0.00000000000E+00 0. -1.
         22    1    3    3    0    0  0.30522272937E+02 -0.11186932316E+02 -0.11243170652E+03  0.11703693960E+03  0.00000000000E+00 0. -1.
         22    1    3    3    0    0  0.13048938833E+02 -0.50115796768E+02  0.20165211403E+02  0.55574307385E+02  0.00000000000E+00 0. -1.
</event>
<event>
 7    1  0.6278987E-006  0.6276918E+02  0.7818608E-02  0.1407192E+00
          2   -1    0    0  502    0  0.00000000000E+00  0.00000000000E+00  0.85659900604E+03  0.85659900604E+03  0.00000000000E+00 0. -1.
          1   -1    0    0  501    0 -0.00000000000E+00 -0.00000000000E+00 -0.42897540108E+03  0.42897540108E+03  0.00000000000E+00 0. -1.
         25    2    1    2    0    0  0.25293844101E+02 -0.56605333954E+02 -0.95297612598E+01  0.13985529095E+03  0.12499897469E+03 0.  0.
          2    1    1    2  501    0  0.27972240377E+02  0.57285935107E+02 -0.35050806374E+03  0.35625837161E+03  0.00000000000E+00 0. -1.
          1    1    1    2  502    0 -0.53266084479E+02 -0.68060115320E+00  0.78766142996E+03  0.78946074457E+03  0.00000000000E+00 0. -1.
         22    1    3    3    0    0  0.64113444643E+02 -0.68528261080E+02  0.10761262151E+02  0.94458779972E+02  0.00000000000E+00 0.  1.
         22    1    3    3    0    0 -0.38819600542E+02  0.11922927126E+02 -0.20291023411E+02  0.45396510973E+02  0.00000000000E+00 0.  1.
</event>
<event>
 7    1  0.6278987E-006  0.8235348E+02  0.7818608E-02  0.1352742E+00
          2   -1    0    0  502    0  0.00000000000E+00  0.00000000000E+00  0.98335439671E+02  0.98335439671E+02  0.00000000000E+00 0. -1.
          1   -1    0    0  501    0 -0.00000000000E+00 -0.00000000000E+00 -0.13564013989E+04  0.13564013989E+04  0.00000000000E+00 0. -1.
         25    2    1    2    0    0  0.73495361537E+02 -0.52481003944E+02 -0.10804120911E+04  0.10913624874E+04  0.12500387328E+03 0.  0.
          2    1    1    2  501    0  0.84937615207E+01  0.62740009915E+02 -0.24732077755E+03  0.25529594559E+03  0.00000000000E+00 0. -1.
          1    1    1    2  502    0 -0.81989123057E+02 -0.10259005971E+02  0.69666909375E+02  0.10807840564E+03  0.00000000000E+00 0. -1.
         22    1    3    3    0    0 -0.18932607847E+02  0.20045632146E+02 -0.39440792754E+03  0.39537056581E+03  0.00000000000E+00 0. -1.
         22    1    3    3    0    0  0.92427969384E+02 -0.72526636090E+02 -0.68600416356E+03  0.69599192157E+03  0.00000000000E+00 0. -1.
</event>
<event>
 7    1  0.6278987E-006  0.9394432E+02  0.7818608E-02  0.1307757E+00
          2   -1    0    0  502    0  0.00000000000E+00  0.00000000000E+00  0.30015327836E+03  0.30015327836E+03  0.00000000000E+00 0. -1.
          1   -1    0    0  501    0 -0.00000000000E+00 -0.00000000000E+00 -0.11720714355E+04  0.11720714355E+04  0.00000000000E+00 0. -1.
         25    2    1    2    0    0  0.16226235239E+03  0.40642353199E+02 -0.53514908482E+02  0.21557060099E+03  0.12500386676E+03 0.  0.
          2    1    1    2  501    0 -0.82436190891E+02 -0.84564036921E+00 -0.10267305176E+04  0.10300349491E+04  0.00000000000E+00 0. -1.
          1    1    1    2  502    0 -0.79826161502E+02 -0.39796712830E+02  0.20832726891E+03  0.22661916376E+03  0.00000000000E+00 0. -1.
         22    1    3    3    0    0 -0.11458521631E+02 -0.21181648173E+00 -0.34199022204E+02  0.36068209048E+02  0.00000000000E+00 0.  1.
         22    1    3    3    0    0  0.17372087402E+03  0.40854169681E+02 -0.19315886278E+02  0.17950239195E+03  0.00000000000E+00 0.  1.
</event>
<event>
 7    1  0.6278987E-006  0.1383044E+03  0.7818608E-02  0.1328962E+00
          2   -1    0    0  502    0  0.00000000000E+00  0.00000000000E+00  0.16037041090E+04  0.16037041090E+04  0.00000000000E+00 0. -1.
          1   -1    0    0  501    0 -0.00000000000E+00 -0.00000000000E+00 -0.18989157688E+03  0.18989157688E+03  0.00000000000E+00 0. -1.
         25    2    1    2    0    0  0.10259855217E+03  0.52648267540E+02  0.15709542704E+03  0.23151968442E+03  0.12499635232E+03 0.  0.
          2    1    1    2  501    0 -0.10324384376E+03 -0.98954988109E+02 -0.11871658576E+03  0.18586287601E+03  0.00000000000E+00 0. -1.
          1    1    1    2  502    0  0.64529158581E+00  0.46306720569E+02  0.13754336908E+04  0.13762131254E+04  0.00000000000E+00 0. -1.
         22    1    3    3    0    0 -0.28238289482E+01  0.46067004706E+02  0.51122933662E+01  0.46435745670E+02  0.00000000000E+00 0.  1.
         22    1    3    3    0    0  0.10542238112E+03  0.65812628343E+01  0.15198313368E+03  0.18508393875E+03  0.00000000000E+00 0.  1.
</event>
<event>
 7    1  0.6278987E-006  0.5574432E+02  0.7818608E-02  0.1496530E+00
          2   -1    0    0  502    0  0.00000000000E+00  0.00000000000E+00  0.17459582474E+04  0.17459582474E+04  0.00000000000E+00 0. -1.
          1   -1    0    0  501    0 -0.00000000000E+00 -0.00000000000E+00 -0.15188824315E+02  0.15188824315E+02  0.00000000000E+00 0. -1.
         25    2    1    2    0    0  0.24526721124E+02  0.27983777243E+02  0.93233558261E+03  0.94141490718E+03  0.12501094757E+03 0.  0.
          2    1    1    2  501    0  0.31033247332E+02 -0.19290068397E+01  0.16135257319E+02  0.35030415871E+02  0.00000000000E+00 0. -1.
          1    1    1    2  502    0 -0.55559968456E+02 -0.26054770403E+02  0.78229858315E+03  0.78470174866E+03  0.00000000000E+00 0. -1.
         22    1    3    3    0    0  0.22521445856E+02 -0.40839225710E+02  0.18030298302E+03  0.18623700912E+03  0.00000000000E+00 0.  1.
         22    1    3    3    0    0  0.20052752682E+01  0.68823002953E+02  0.75203259960E+03  0.75517789806E+03  0.00000000000E+00 0.  1.
</event>
<event>
 7    1  0.6278987E-006  0.2372355E+03  0.7818608E-02  0.1256049E+00
          2   -1    0    0  502    0  0.00000000000E+00  0.00000000000E+00  0.12910402120E+04  0.12910402120E+04  0.00000000000E+00 0. -1.
          1   -1    0    0  501    0 -0.00000000000E+00 -0.00000000000E+00 -0.61723330917E+03  0.61723330917E+03  0.00000000000E+00 0. -1.
         25    2    1    2    0    0 -0.26624349262E+03 -0.74218943922E+02  0.86574441118E+03  0.91734995316E+03  0.12499400810E+03 0.  0.
          2    1    1    2  501    0  0.21673849041E+03  0.94045881343E+02 -0.56586765075E+03  0.61320991445E+03  0.00000000000E+00 0. -1.
          1    1    1    2  502    0  0.49505002217E+02 -0.19826937421E+02  0.37393014241E+03  0.37771365357E+03  0.00000000000E+00 0. -1.
         22    1    3    3    0    0 -0.18156427210E+03  0.11826191624E+02  0.54990429983E+03  0.57922377600E+03  0.00000000000E+00 0. -1.
         22    1    3    3    0    0 -0.84679220528E+02 -0.86045135547E+02  0.31584011135E+03  0.33812617716E+03  0.00000000000E+00 0. -1.
</event>
<event>
 7    1  0.6278987E-006  0.1208249E+03  0.7818608E-02  0.1316853E+00
          2   -1    0    0  502    0  0.00000000000E+00  0.00000000000E+00  0.57164709688E+03  0.57164709688E+03  0.00000000000E+00 0. -1.
          1   -1    0    0  501    0 -0.00000000000E+00 -0.00000000000E+00 -0.23663023920E+04  0.23663023920E+04  0.00000000000E+00 0. -1.
         25    2    1    2    0    0  0.38265097564E+02  0.14046921159E+03 -0.18487022133E+03  0.26645451357E+03  0.12500076789E+03 0.  0.
          2    1    1    2  501    0 -0.55090113197E+02 -0.21228924029E+02 -0.21333971576E+04  0.21342139114E+04  0.00000000000E+00 0. -1.
          1    1    1    2  502    0  0.16825015633E+02 -0.11924028756E+03  0.52361208378E+03  0.53728106388E+03  0.00000000000E+00 0. -1.
         22    1    3    3    0    0 -0.14017591626E+02  0.92839834997E+02 -0.16996668684E+03  0.19417621501E+03  0.00000000000E+00 0. -1.
         22    1    3    3    0    0  0.52282689190E+02  0.47629376591E+02 -0.14903534484E+02  0.72278298565E+02  0.00000000000E+00 0. -1.
</event>
<event>
 7    1  0.6278987E-006  0.1824270E+03  0.7818608E-02  0.1264935E+00
          2   -1    0    0  502    0  0.00000000000E+00  0.00000000000E+00  0.34252225162E+04  0.34252225162E+04  0.00000000000E+00 0. -1.
          1   -1    0    0  501    0 -0.00000000000E+00 -0.00000000000E+00 -0.12032919858E+04  0.12032919858E+04  0.00000000000E+00 0. -1.
         25    2    1    2    0    0  0.20430734414E+03 -0.69728640499E+02 -0.96855626060E+02  0.26759877178E+03  0.12499806471E+03 0.  0.
          2    1    1    2  501    0 -0.54156023084E+02 -0.33261561955E+02 -0.10175910928E+04  0.10195738514E+04  0.00000000000E+00 0. -1.
          1    1    1    2  502    0 -0.15015132106E+03  0.10299020245E+03  0.33363772493E+04  0.33413418788E+04  0.00000000000E+00 0. -1.
         22    1    3    3    0    0  0.13527930810E+03 -0.10512849634E+03 -0.58328493664E+02  0.18098260999E+03  0.00000000000E+00 0. -1.
         22    1    3    3    0    0  0.69028036038E+02  0.35399855844E+02 -0.38527132396E+02  0.86616161793E+02  0.00000000000E+00 0. -1.
</event>
<event>
 7    1  0.6278987E-006  0.8984884E+02  0.7818608E-02  0.1325232E+00
          2   -1    0    0  502    0  0.00000000000E+00  0.00000000000E+00  0.35544397437E+03  0.35544397437E+03  0.00000000000E+00 0. -1.
          1   -1    0    0  501    0 -0.00000000000E+00 -0.00000000000E+00 -0.32342828504E+03  0.32342828504E+03  0.00000000000E+00 0. -1.
         25    2    1    2    0    0 -0.10653845409E+03  0.11129264339E+03  0.51112148778E+02  0.20487493588E+03  0.12499917170E+03 0.  0.
          2    1    1    2  501    0  0.42361031031E+02 -0.75108051831E+02 -0.23263713455E+03  0.24810423772E+03  0.00000000000E+00 0. -1.
          1    1    1    2  502    0  0.64177423056E+02 -0.36184591559E+02  0.21354067510E+03  0.22589308581E+03  0.00000000000E+00 0. -1.
         22    1    3    3    0    0  0.25279244644E+01  0.39426767861E+02  0.62311946405E+02  0.73781021211E+02  0.00000000000E+00 0. -1.
         22    1    3    3    0    0 -0.10906637855E+03  0.71865875529E+02 -0.11199797627E+02  0.13109391467E+03  0.00000000000E+00 0. -1.
</event>
<event>
 7    1  0.6278987E-006  0.7188948E+02  0.7818608E-02  0.1414512E+00
          2   -1    0    0  502    0  0.00000000000E+00  0.00000000000E+00  0.51984017087E+03  0.51984017087E+03  0.00000000000E+00 0. -1.
          1   -1    0    0  501    0 -0.00000000000E+00 -0.00000000000E+00 -0.10617214969E+04  0.10617214969E+04  0.00000000000E+00 0. -1.
         25    2    1    2    0    0 -0.11420370602E+02  0.10879898340E+03 -0.17961244337E+03  0.24464817378E+03  0.12499782185E+03 0.  0.
          2    1    1    2  501    0  0.21874596728E+02 -0.38100341827E+02 -0.84639817131E+03  0.84753760886E+03  0.00000000000E+00 0. -1.
          1    1    1    2  502    0 -0.10454226127E+02 -0.70698641574E+02  0.48412928868E+03  0.48937588510E+03  0.00000000000E+00 0. -1.
         22    1    3    3    0    0  0.53942547299E+02  0.62650051170E+02 -0.11591659381E+03  0.14237796192E+03  0.00000000000E+00 0.  1.
         22    1    3    3    0    0 -0.65362917901E+02  0.46148932231E+02 -0.63695849555E+02  0.10227021186E+03  0.00000000000E+00 0.  1.
</event>
<event>
 7    1  0.6278987E-006  0.9628457E+02  0.7818608E-02  0.1371401E+00
          2   -1    0    0  502    0  0.00000000000E+00  0.00000000000E+00  0.72317764823E+03  0.72317764823E+03  0.00000000000E+00 0. -1.
          1   -1    0    0  501    0 -0.00000000000E+00 -0.00000000000E+00 -0.72716288475E+03  0.72716288475E+03  0.00000000000E+00 0. -1.
         25    2    1    2    0    0 -0.57872287659E+01 -0.11640491040E+03  0.20284570735E+03  0.26524562216E+03  0.12500105559E+03 0.  0.
          2    1    1    2  501    0 -0.34424937782E+02  0.30984592956E+02 -0.69062419651E+03  0.69217548508E+03  0.00000000000E+00 0. -1.
          1    1    1    2  502    0  0.40212166548E+02  0.85420317443E+02  0.48379325264E+03  0.49291942574E+03  0.00000000000E+00 0. -1.
         22    1    3    3    0    0  0.42935881678E+02 -0.63452412357E+02  0.16934991230E+03  0.18587385875E+03  0.00000000000E+00 0.  1.
         22    1    3    3    0    0 -0.48723110444E+02 -0.52952498042E+02  0.33495795050E+02  0.79371763406E+02  0.00000000000E+00 0.  1.
</event>
<event>
 7    1  0.6278987E-006  0.2250649E+03  0.7818608E-02  0.1266194E+00
          2   -1    0    0  502    0  0.00000000000E+00  0.00000000000E+00  0.14880915299E+04  0.14880915299E+04  0.00000000000E+00 0. -1.
          1   -1    0    0  501    0 -0.00000000000E+00 -0.00000000000E+00 -0.97689669569E+02  0.97689669569E+02  0.00000000000E+00 0. -1.
         25    2    1    2    0    0  0.21197369426E+03  0.15610886811E+03  0.48102690859E+03  0.56241878857E+03  0.12500072473E+03 0.  0.
          2    1    1    2  501    0 -0.33438852043E+02 -0.38357910083E+02 -0.30590062538E+02  0.59373714874E+02  0.00000000000E+00 0. -1.
          1    1    1    2  502    0 -0.17853484222E+03 -0.11775095803E+03  0.93996501423E+03  0.96398869598E+03  0.00000000000E+00 0. -1.
         22    1    3    3    0    0  0.21688796792E+03  0.16845920333E+03  0.47284562055E+03  0.54681063879E+03  0.00000000000E+00 0. -1.
         22    1    3    3    0    0 -0.49142736575E+01 -0.12350335219E+02  0.81812880426E+01  0.15608149783E+02  0.00000000000E+00 0. -1.
</event>
<event>
 7    1  0.6278987E-006  0.7357812E+02  0.7818608E-02  0.1511530E+00
          2   -1    0    0  502    0  0.00000000000E+00  0.00000000000E+00  0.14430888269E+04  0.14430888269E+04  0.00000000000E+00 0. -1.
          1   -1    0    0  501    0 -0.00000000000E+00 -0.00000000000E+00 -0.10476904113E+02  0.10476904113E+02  0.00000000000E+00 0. -1.
         25    2    1    2    0    0 -0.55886030849E+02 -0.18713445608E+02  0.93712946214E+03  0.94726438966E+03  0.12499901448E+03 0.  0.
          2    1    1    2  501    0  0.77017317619E+02  0.16361045571E+02  0.32039935410E+03  0.32993195834E+03  0.00000000000E+00 0. -1.
          1    1    1    2  502    0 -0.21131286769E+02  0.23524000373E+01  0.17508310655E+03  0.17636938302E+03  0.00000000000E+00 0. -1.
         22    1    3    3    0    0 -0.91585212662E+02 -0.31342223080E+02  0.75947895271E+03  0.76562292660E+03  0.00000000000E+00 0. -1.
         22    1    3    3    0    0  0.35699181813E+02  0.12628777472E+02  0.17765050943E+03  0.18164146306E+03  0.00000000000E+00 0. -1.
</event>
<event>
 7    1  0.6278987E-006  0.7965407E+02  0.7818608E-02  0.1416787E+00
          2   -1    0    0  502    0  0.00000000000E+00  0.00000000000E+00  0.94759429370E+03  0.94759429370E+03  0.00000000000E+00 0. -1.
          1   -1    0    0  501    0 -0.00000000000E+00 -0.00000000000E+00 -0.71984242607E+02  0.71984242607E+02  0.00000000000E+00 0. -1.
         25    2    1    2    0    0  0.56658793714E+02 -0.57985721776E+02  0.11055991690E+03  0.18553421165E+03  0.12500754229E+03 0.  0.
          2    1    1    2  501    0 -0.34101949259E+02 -0.18836920045E+02 -0.20774429061E+02  0.44151437155E+02  0.00000000000E+00 0. -1.
          1    1    1    2  502    0 -0.22556844455E+02  0.76822641821E+02  0.78582456325E+03  0.78989288750E+03  0.00000000000E+00 0. -1.
         22    1    3    3    0    0  0.68872830697E+01 -0.84713955595E+02  0.93859013184E+02  0.12662307569E+03  0.00000000000E+00 0. -1.
         22    1    3    3    0    0  0.49771510644E+02  0.26728233818E+02  0.16700903721E+02  0.58911135959E+02  0.00000000000E+00 0. -1.
</event>
<event>
 7    1  0.6278987E-006  0.6779026E+02  0.7818608E-02  0.1459717E+00
          2   -1    0    0  502    0  0.00000000000E+00  0.00000000000E+00  0.50297402440E+03  0.50297402440E+03  0.00000000000E+00 0. -1.
          1   -1    0    0  501    0 -0.00000000000E+00 -0.00000000000E+00 -0.44891013760E+02  0.44891013760E+02  0.00000000000E+00 0. -1.
         25    2    1    2    0    0  0.14322068488E+02 -0.71569715513E+02  0.21513067712E+03  0.25929745405E+03  0.12500646229E+03 0.  0.
          2    1    1    2  501    0 -0.42130787984E+02  0.53461423883E+02  0.32344018599E+02  0.75360882949E+02  0.00000000000E+00 0. -1.
          1    1    1    2  502    0  0.27808719495E+02  0.18108291630E+02  0.21060831493E+03  0.21320670117E+03  0.00000000000E+00 0. -1.
         22    1    3    3    0    0 -0.28390407902E+02 -0.70807183210E+02  0.19987058644E+03  0.21393439129E+03  0.00000000000E+00 0.  1.
         22    1    3    3    0    0  0.42712476390E+02 -0.76253230276E+00  0.15260090679E+02  0.45363062754E+02  0.00000000000E+00 0.  1.
</event>
<event>
 7    1  0.6278987E-006  0.1089354E+03  0.7818608E-02  0.1292319E+00
          2   -1    0    0  502    0  0.00000000000E+00  0.00000000000E+00  0.27095480878E+04  0.27095480878E+04  0.00000000000E+00 0. -1.
          1   -1    0    0  501    0 -0.00000000000E+00 -0.00000000000E+00 -0.42032448780E+03  0.42032448780E+03  0.00000000000E+00 0. -1.
         25    2    1    2    0    0  0.16369155536E+02 -0.31224684461E+02  0.15686358082E+03  0.20365116719E+03  0.12499873894E+03 0.  0.
          2    1    1    2  501    0 -0.40836099820E+01  0.11226638051E+03 -0.38830239296E+03  0.40422662510E+03  0.00000000000E+00 0. -1.
          1    1    1    2  502    0 -0.12285545554E+02 -0.81041696045E+02  0.25206624122E+04  0.25219947833E+04  0.00000000000E+00 0. -1.
         22    1    3    3    0    0 -0.19439370314E+02 -0.56522892754E+02  0.14703444588E+03  0.15871942162E+03  0.00000000000E+00 0.  1.
         22    1    3    3    0    0  0.35808525850E+02  0.25298208293E+02  0.98291349409E+01  0.44931745571E+02  0.00000000000E+00 0.  1.
</event>
<event>
 7    1  0.6278987E-006  0.6944720E+02  0.7818608E-02  0.1422722E+00
          2   -1    0    0  502    0  0.00000000000E+00  0.00000000000E+00  0.41769954580E+03  0.41769954580E+03  0.00000000000E+00 0. -1.
          1   -1    0    0  501    0 -0.00000000000E+00 -0.00000000000E+00 -0.11374339278E+04  0.11374339278E+04  0.00000000000E+00 0. -1.
         25    2    1    2    0    0 -0.68890565155E+01  0.28239654225E+02 -0.41669317947E+03  0.43600541989E+03  0.12499033237E+03 0.  0.
          2    1    1    2  501    0 -0.28273635053E+02  0.31985032441E+02 -0.70745677157E+03  0.70874362387E+03  0.00000000000E+00 0. -1.
          1    1    1    2  502    0  0.35162691569E+02 -0.60224686666E+02  0.40441556905E+03  0.41038442983E+03  0.00000000000E+00 0. -1.
         22    1    3    3    0    0  0.41064150789E+02  0.10487084765E+01 -0.47840481573E+02  0.63056133299E+02  0.00000000000E+00 0. -1.
         22    1    3    3    0    0 -0.47953207305E+02  0.27190945748E+02 -0.36885269790E+03  0.37294928659E+03  0.00000000000E+00 0. -1.
</event>
<event>
 7    1  0.6278987E-006  0.8964386E+02  0.7818608E-02  0.1320695E+00
          2   -1    0    0  502    0  0.00000000000E+00  0.00000000000E+00  0.21734880282E+03  0.21734880282E+03  0.00000000000E+00 0. -1.
          1   -1    0    0  501    0 -0.00000000000E+00 -0.00000000000E+00 -0.16811222634E+04  0.16811222634E+04  0.00000000000E+00 0. -1.
         25    2    1    2    0    0  0.55414202066E+02 -0.11035102165E+03 -0.10440254047E+03  0.20438570374E+03  0.12500217464E+03 0.  0.
          2    1    1    2  501    0 -0.81022246411E+02  0.37856836313E+02 -0.15165106029E+04  0.15191452048E+04  0.00000000000E+00 0. -1.
          1    1    1    2  502    0  0.25608044345E+02  0.72494185342E+02  0.15713968283E+03  0.17494015767E+03  0.00000000000E+00 0. -1.
         22    1    3    3    0    0  0.46768014417E+02 -0.79803239815E+02 -0.13276793236E+03  0.16181201476E+03  0.00000000000E+00 0.  1.
         22    1    3    3    0    0  0.86461876492E+01 -0.30547781840E+02  0.28365391891E+02  0.42573688979E+02  0.00000000000E+00 0.  1.
</event>
<event>
 7    1  0.6278987E-006  0.9376683E+02  0.7818608E-02  0.1381220E+00
          2   -1    0    0  502    0  0.00000000000E+00  0.00000000000E+00  0.24442257919E+03  0.24442257919E+03  0.00000000000E+00 0. -1.
          1   -1    0    0  501    0 -0.00000000000E+00 -0.00000000000E+00 -0.28682958700E+04  0.28682958700E+04  0.00000000000E+00 0. -1.
         25    2    1    2    0    0 -0.51568411510E+02 -0.32408700281E+02 -0.59287494723E+03  0.60897084682E+03  0.12504065060E+03 0.  0.
          2    1    1    2  501    0  0.94972182442E+02  0.25962208996E+02 -0.22642574853E+04  0.22663970772E+04  0.00000000000E+00 0. -1.
          1    1    1    2  502    0 -0.43403770932E+02  0.64464912857E+01  0.23325914175E+03  0.23735052515E+03  0.00000000000E+00 0. -1.
         22    1    3    3    0    0 -0.70145874739E+02  0.25451722808E+02 -0.39454811367E+03  0.40154258546E+03  0.00000000000E+00 0.  1.
         22    1    3    3    0    0  0.18577463229E+02 -0.57860423090E+02 -0.19832683355E+03  0.20742826135E+03  0.00000000000E+00 0.  1.
</event>
<event>
 7    1  0.6278987E-006  0.1088229E+03  0.7818608E-02  0.1280508E+00
          2   -1    0    0  502    0  0.00000000000E+00  0.00000000000E+00  0.89819682716E+02  0.89819682716E+02  0.00000000000E+00 0. -1.
          1   -1    0    0  501    0 -0.00000000000E+00 -0.00000000000E+00 -0.10080937754E+04  0.10080937754E+04  0.00000000000E+00 0. -1.
         25    2    1    2    0    0  0.15279121563E+03  0.10876917274E+03 -0.44595166587E+03  0.49967425049E+03  0.12500231917E+03 0.  0.
          2    1    1    2  501    0 -0.58233218057E+02 -0.70846227565E+02 -0.48677638875E+03  0.49533983111E+03  0.00000000000E+00 0. -1.
          1    1    1    2  502    0 -0.94557997569E+02 -0.37922945171E+02  0.14453961920E+02  0.10289937653E+03  0.00000000000E+00 0. -1.
         22    1    3    3    0    0  0.79523720159E+02  0.11723991381E+03 -0.35725709940E+03  0.38431998976E+03  0.00000000000E+00 0. -1.
         22    1    3    3    0    0  0.73267495467E+02 -0.84707410772E+01 -0.88694566470E+02  0.11535426073E+03  0.00000000000E+00 0. -1.
</event>
<event>
 7    1  0.6278987E-006  0.9064092E+02  0.7818608E-02  0.1437901E+00
          2   -1    0    0  502    0  0.00000000000E+00  0.00000000000E+00  0.46639559144E+03  0.46639559144E+03  0.00000000000E+00 0. -1.
          1   -1    0    0  501    0 -0.00000000000E+00 -0.00000000000E+00 -0.13627007099E+03  0.13627007099E+03  0.00000000000E+00 0. -1.
         25    2    1    2    0    0  0.28248740606E+02  0.59141111759E+02  0.62616092543E+02  0.15440756090E+03  0.12500102949E+03 0.  0.
          2    1    1    2  501    0  0.18671045042E+02  0.22391516898E+02 -0.81623659025E+02  0.86674157998E+02  0.00000000000E+00 0. -1.
          1    1    1    2  502    0 -0.46919785648E+02 -0.81532628657E+02  0.34913308694E+03  0.36158394353E+03  0.00000000000E+00 0. -1.
         22    1    3    3    0    0  0.22440658341E+02  0.92978504080E+02  0.70935621312E+02  0.11908168515E+03  0.00000000000E+00 0. -1.
         22    1    3    3    0    0  0.58080822649E+01 -0.33837392321E+02 -0.83195287696E+01  0.35325875752E+02  0.00000000000E+00 0. -1.
</event>
<event>
 7    1  0.6278987E-006  0.6778025E+02  0.7818608E-02  0.1404756E+00
          2   -1    0    0  502    0  0.00000000000E+00  0.00000000000E+00  0.23196882497E+02  0.23196882497E+02  0.00000000000E+00 0. -1.
          1   -1    0    0  501    0 -0.00000000000E+00 -0.00000000000E+00 -0.21722946107E+04  0.21722946107E+04  0.00000000000E+00 0. -1.
         25    2    1    2    0    0  0.12967553278E+01 -0.23357976372E+02 -0.48677899817E+03  0.50311682062E+03  0.12500186197E+03 0.  0.
          2    1    1    2  501    0  0.17077324755E+02  0.70165310148E+02 -0.16321244427E+04  0.16337212132E+04  0.00000000000E+00 0. -1.
          1    1    1    2  502    0 -0.18374080083E+02 -0.46807333776E+02 -0.30194287268E+02  0.58653459384E+02  0.00000000000E+00 0. -1.
         22    1    3    3    0    0  0.52191255918E+02 -0.47472061210E+02 -0.28779218816E+03  0.29631379879E+03  0.00000000000E+00 0. -1.
         22    1    3    3    0    0 -0.50894500591E+02  0.24114084838E+02 -0.19898681002E+03  0.20680302183E+03  0.00000000000E+00 0. -1.
</event>
<event>
 7    1  0.6278987E-006  0.2343773E+03  0.7818608E-02  0.1303618E+00
          2   -1    0    0  502    0  0.00000000000E+00  0.00000000000E+00  0.16348873683E+04  0.16348873683E+04  0.00000000000E+00 0. -1.
          1   -1    0    0  501    0 -0.00000000000E+00 -0.00000000000E+00 -0.13182111460E+03  0.13182111460E+03  0.00000000000E+00 0. -1.
         25    2    1    2    0    0 -0.19683302136E+03  0.55568357801E+02  0.12529839162E+03  0.27047643742E+03  0.12500694210E+03 0.  0.
          2    1    1    2  501    0 -0.31121982240E+02  0.14461196822E+02 -0.43324885898E+02  0.55269790394E+02  0.00000000000E+00 0. -1.
          1    1    1    2  502    0  0.22795500360E+03 -0.70029554624E+02  0.14210927480E+04  0.14409622551E+04  0.00000000000E+00 0. -1.
         22    1    3    3    0    0 -0.17824972099E+03  0.79918006434E+02  0.13600570552E+03  0.23802815531E+03  0.00000000000E+00 0.  1.
         22    1    3    3    0    0 -0.18583300373E+02 -0.24349648633E+02 -0.10707313904E+02  0.32448282117E+02  0.00000000000E+00 0.  1.
</event>
<event>
 7    1  0.6278987E-006  0.1181615E+03  0.7818608E-02  0.1441600E+00
          2   -1    0    0  502    0  0.00000000000E+00  0.00000000000E+00  0.50182030845E+02  0.50182030845E+02  0.00000000000E+00 0. -1.
          1   -1    0    0  501    0 -0.00000000000E+00 -0.00000000000E+00 -0.14558610149E+04  0.14558610149E+04  0.00000000000E+00 0. -1.
         25    2    1    2    0    0  0.13044317984E+03  0.14061698139E+02 -0.23697355984E+03  0.29832019851E+03  0.12500127302E+03 0.  0.
          2    1    1    2  501    0 -0.21375317343E+02  0.40429171950E+01 -0.10305296282E+04  0.10307592172E+04  0.00000000000E+00 0. -1.
          1    1    1    2  502    0 -0.10906786249E+03 -0.18104615334E+02 -0.13817579598E+03  0.17696362994E+03  0.00000000000E+00 0. -1.
         22    1    3    3    0    0  0.96514027974E+02 -0.48745220557E+02 -0.16226171833E+03  0.19498697228E+03  0.00000000000E+00 0. -1.
         22    1    3    3    0    0  0.33929151863E+02  0.62806918696E+02 -0.74711841510E+02  0.10333322623E+03  0.00000000000E+00 0. -1.
</event>
<event>
 7    1  0.6278987E-006  0.1219229E+03  0.7818608E-02  0.1338009E+00
          2   -1    0    0  502    0  0.00000000000E+00  0.00000000000E+00  0.14858759979E+04  0.14858759979E+04  0.00000000000E+00 0. -1.
          1   -1    0    0  501    0 -0.00000000000E+00 -0.00000000000E+00 -0.10010754258E+04  0.10010754258E+04  0.00000000000E+00 0. -1.
         25    2    1    2    0    0 -0.15395904646E+03 -0.52763587396E+02  0.43179825720E+03  0.47808137581E+03  0.12499873133E+03 0.  0.
          2    1    1    2  501    0  0.40764473453E+02  0.26343163362E+02 -0.97405130166E+03  0.97525978223E+03  0.00000000000E+00 0. -1.
          1    1    1    2  502    0  0.11319457300E+03  0.26420424034E+02  0.10270536165E+04  0.10336102657E+04  0.00000000000E+00 0. -1.
         22    1    3    3    0    0 -0.98981607313E+02 -0.67456817507E+02  0.15712709894E+03  0.19757708884E+03  0.00000000000E+00 0.  1.
         22    1    3    3    0    0 -0.54977439144E+02  0.14693230111E+02  0.27467115827E+03  0.28050428697E+03  0.00000000000E+00 0.  1.
</event>
<event>
 7    1  0.6278987E-006  0.1642671E+03  0.7818608E-02  0.1402580E+00
          2   -1    0    0  502    0  0.00000000000E+00  0.00000000000E+00  0.12755337850E+04  0.12755337850E+04  0.00000000000E+00 0. -1.
          1   -1    0    0  501    0 -0.00000000000E+00 -0.00000000000E+00 -0.10313519193E+04  0.10313519193E+04  0.00000000000E+00 0. -1.
         25    2    1    2    0    0  0.15317360176E+03 -0.10155206779E+03 -0.49468443789E+03  0.54232292940E+03  0.12500596750E+03 0.  0.
          2    1    1    2  501    0 -0.12621784994E+02  0.16917591910E+02 -0.50725162775E+03  0.50769058316E+03  0.00000000000E+00 0. -1.
          1    1    1    2  502    0 -0.14055181676E+03  0.84634475884E+02  0.12461179313E+04  0.12568721917E+04  0.00000000000E+00 0. -1.
         22    1    3    3    0    0 -0.19193381857E+00  0.18467937986E+02 -0.10581433010E+03  0.10741403086E+03  0.00000000000E+00 0.  1.
         22    1    3    3    0    0  0.15336553557E+03 -0.12002000578E+03 -0.38887010779E+03  0.43490889853E+03  0.00000000000E+00 0.  1.
</event>
<event>
 7    1  0.6278987E-006  0.5016694E+02  0.7818608E-02  0.1486349E+00
          2   -1    0    0  502    0  0.00000000000E+00  0.00000000000E+00  0.26938649136E+04  0.26938649136E+04  0.00000000000E+00 0. -1.
          1   -1    0    0  501    0 -0.00000000000E+00 -0.00000000000E+00 -0.20174583267E+02  0.20174583267E+02  0.00000000000E+00 0. -1.
         25    2    1    2    0    0  0.45553003402E+02  0.55437300618E+02  0.78976977289E+03  0.80282044004E+03  0.12504396969E+03 0.  0.
          2    1    1    2  501    0  0.41976762370E+00 -0.37082037964E+02  0.12486053314E+02  0.39129979195E+02  0.00000000000E+00 0. -1.
          1    1    1    2  502    0 -0.45972771026E+02 -0.18355262654E+02  0.18714345041E+04  0.18720890776E+04  0.00000000000E+00 0. -1.
         22    1    3    3    0    0  0.90848364317E+01  0.15450424041E+02  0.68190336241E+03  0.68213887554E+03  0.00000000000E+00 0.  1.
         22    1    3    3    0    0  0.36468166970E+02  0.39986876577E+02  0.10786641048E+03  0.12068156450E+03  0.00000000000E+00 0.  1.
</event>
<event>
 7    1  0.6278987E-006  0.7522468E+02  0.7818608E-02  0.1421419E+00
          2   -1    0    0  502    0  0.00000000000E+00  0.00000000000E+00  0.69457940560E+03  0.69457940560E+03  0.00000000000E+00 0. -1.
          1   -1    0    0  501    0 -0.00000000000E+00 -0.00000000000E+00 -0.52919506626E+03  0.52919506626E+03  0.00000000000E+00 0. -1.
         25    2    1    2    0    0  0.47031156282E+02  0.26370330337E+02  0.38397187257E+02  0.14144500442E+03  0.12500008521E+03 0.  0.
          2    1    1    2  501    0 -0.73919410635E+01  0.39114729844E+02 -0.47441156763E+03  0.47607871028E+03  0.00000000000E+00 0. -1.
          1    1    1    2  502    0 -0.39639215218E+02 -0.65485060181E+02  0.60139871971E+03  0.60625075716E+03  0.00000000000E+00 0. -1.
         22    1    3    3    0    0  0.75081930462E+02  0.20726548450E+02 -0.16426779082E+02  0.79603549944E+02  0.00000000000E+00 0. -1.
         22    1    3    3    0    0 -0.28050774180E+02  0.56437818866E+01  0.54823966339E+02  0.61841454472E+02  0.00000000000E+00 0. -1.
</event>
<event>
 7    1  0.6278987E-006  0.1095510E+03  0.7818608E-02  0.1305979E+00
          2   -1    0    0  502    0  0.00000000000E+00  0.00000000000E+00  0.10806902995E+03  0.10806902995E+03  0.00000000000E+00 0. -1.
          1   -1    0    0  501    0 -0.00000000000E+00 -0.00000000000E+00 -0.11458662150E+04  0.11458662150E+04  0.00000000000E+00 0. -1.
         25    2    1    2    0    0  0.86316450195E+02 -0.11417792838E+02 -0.40331492428E+03  0.43112551616E+03  0.12500154788E+03 0.  0.
          2    1    1    2  501    0 -0.90506156415E+02  0.83147191307E+02 -0.70883599750E+03  0.71941176744E+03  0.00000000000E+00 0. -1.
          1    1    1    2  502    0  0.41897062205E+01 -0.71729398469E+02  0.74353736734E+02  0.10339796134E+03  0.00000000000E+00 0. -1.
         22    1    3    3    0    0 -0.20768206680E+01 -0.39178175488E+02 -0.24147843061E+03  0.24464479366E+03  0.00000000000E+00 0.  1.
         22    1    3    3    0    0  0.88393270863E+02  0.27760382651E+02 -0.16183649367E+03  0.18648072249E+03  0.00000000000E+00 0.  1.
</event>
<event>
 7    1  0.6278987E-006  0.8611178E+02  0.7818608E-02  0.1342676E+00
          2   -1    0    0  502    0  0.00000000000E+00  0.00000000000E+00  0.44229422205E+03  0.44229422205E+03  0.00000000000E+00 0. -1.
          1   -1    0    0  501    0 -0.00000000000E+00 -0.00000000000E+00 -0.65557326390E+03  0.65557326390E+03  0.00000000000E+00 0. -1.
         25    2    1    2    0    0  0.14732741780E+03  0.13710163151E+02 -0.36875346775E+03  0.41652791223E+03  0.12499218006E+03 0.  0.
          2    1    1    2  501    0 -0.65236498392E+02  0.99999405819E+01 -0.25431362631E+03  0.26273793038E+03  0.00000000000E+00 0. -1.
          1    1    1    2  502    0 -0.82090919412E+02 -0.23710103733E+02  0.40978805222E+03  0.41860164334E+03  0.00000000000E+00 0. -1.
         22    1    3    3    0    0  0.14401912792E+03  0.38284723617E+02 -0.36099856234E+03  0.39054729711E+03  0.00000000000E+00 0. -1.
         22    1    3    3    0    0  0.33082898864E+01 -0.24574560465E+02 -0.77549054136E+01  0.25980615120E+02  0.00000000000E+00 0. -1.
</event>
<event>
 7    1  0.6278987E-006  0.5925334E+02  0.7818608E-02  0.1437375E+00
          2   -1    0    0  502    0  0.00000000000E+00  0.00000000000E+00  0.39642105990E+03  0.39642105990E+03  0.00000000000E+00 0. -1.
          1   -1    0    0  501    0 -0.00000000000E+00 -0.00000000000E+00 -0.10699880656E+04  0.10699880656E+04  0.00000000000E+00 0. -1.
         25    2    1    2    0    0  0.61697450945E+02 -0.73079384703E+02 -0.12308423074E+03  0.19980541165E+03  0.12500121097E+03 0.  0.
          2    1    1    2  501    0 -0.40967831280E+02  0.18066341097E+02 -0.90557329307E+03  0.90667951615E+03  0.00000000000E+00 0. -1.
          1    1    1    2  502    0 -0.20729619665E+02  0.55013043606E+02  0.35509051807E+03  0.35992419775E+03  0.00000000000E+00 0. -1.
         22    1    3    3    0    0  0.27832418043E+02  0.21824176865E+02 -0.85033323248E+02  0.92095625588E+02  0.00000000000E+00 0. -1.
         22    1    3    3    0    0  0.33865032903E+02 -0.94903561569E+02 -0.38050907494E+02  0.10770978606E+03  0.00000000000E+00 0. -1.
</event>
<event>
 7    1  0.6278987E-006  0.5759534E+02  0.7818608E-02  0.1425794E+00
          2   -1    0    0  502    0  0.00000000000E+00  0.00000000000E+00  0.42086372605E+04  0.42086372605E+04  0.00000000000E+00 0. -1.
          1   -1    0    0  501    0 -0.00000000000E+00 -0.00000000000E+00 -0.16137098739E+04  0.16137098739E+04  0.00000000000E+00 0. -1.
         25    2    1    2    0    0 -0.42332920371E+02 -0.98729158923E+02 -0.62310294324E+03  0.64453213959E+03  0.12499951246E+03 0.  0.
          2    1    1    2  501    0  0.15269956559E+02  0.47905496547E+02 -0.97904972996E+03  0.98033998281E+03  0.00000000000E+00 0. -1.
          1    1    1    2  502    0  0.27062963812E+02  0.50823662376E+02  0.41970800597E+04  0.41974750120E+04  0.00000000000E+00 0. -1.
         22    1    3    3    0    0 -0.44102622410E+02 -0.12804518910E+03 -0.50822898127E+03  0.52596322034E+03  0.00000000000E+00 0. -1.
         22    1    3    3    0    0  0.17697020387E+01  0.29316030175E+02 -0.11487396198E+03  0.11856891924E+03  0.00000000000E+00 0. -1.
</event>
<event>
 7    1  0.6278987E-006  0.6059827E+02  0.7818608E-02  0.1537215E+00
          2   -1    0    0  502    0  0.00000000000E+00  0.00000000000E+00  0.16312874346E+04  0.16312874346E+04  0.00000000000E+00 0. -1.
          1   -1    0    0  501    0 -0.00000000000E+00 -0.00000000000E+00 -0.31686916026E+04  0.31686916026E+04  0.00000000000E+00 0. -1.
         25    2    1    2    0    0 -0.14672421554E+02  0.46601422932E+02  0.76136555945E+03  0.77310450480E+03  0.12500435048E+03 0.  0.
          2    1    1    2  501    0  0.36354331193E+02 -0.48488956776E+02 -0.31623947113E+04  0.31629753597E+04  0.00000000000E+00 0. -1.
          1    1    1    2  502    0 -0.21681909639E+02  0.18875338446E+01  0.86362498379E+03  0.86389917271E+03  0.00000000000E+00 0. -1.
         22    1    3    3    0    0  0.45707652107E+02  0.30401443378E+02  0.54874432795E+03  0.55148324968E+03  0.00000000000E+00 0.  1.
         22    1    3    3    0    0 -0.60380073660E+02  0.16199979554E+02  0.21262123150E+03  0.22162125511E+03  0.00000000000E+00 0.  1.
</event>
<event>
 7    1  0.6278987E-006  0.9486851E+02  0.7818608E-02  0.1314243E+00
          2   -1    0    0  502    0  0.00000000000E+00  0.00000000000E+00  0.16348564859E+04  0.16348564859E+04  0.00000000000E+00 0. -1.
          1   -1    0    0  501    0 -0.00000000000E+00 -0.00000000000E+00 -0.79360734745E+02  0.79360734745E+02  0.00000000000E+00 0. -1.
         25    2    1    2    0    0 -0.30670112602E+02  0.12143023211E+03  0.15421588658E+03  0.23472018888E+03  0.12500028126E+03 0.  0.
          2    1    1    2  501    0 -0.36637658753E+02 -0.84076013128E+02  0.17240284031E+02  0.93318387341E+02  0.00000000000E+00 0. -1.
          1    1    1    2  502    0  0.67307771355E+02 -0.37354218984E+02  0.13840395805E+04  0.13861786444E+04  0.00000000000E+00 0. -1.
         22    1    3    3    0    0  0.46751884401E+02  0.24226562043E+02  0.47687682786E+02  0.71040693219E+02  0.00000000000E+00 0.  1.
         22    1    3    3    0    0 -0.77421997003E+02  0.97203670069E+02  0.10652820380E+03  0.16367949566E+03  0.00000000000E+00 0.  1.
</event>
<event>
 7    1  0.6278987E-006  0.1379593E+03  0.7818608E-02  0.1330469E+00
          2   -1    0    0  502    0  0.00000000000E+00  0.00000000000E+00  0.49105034436E+03  0.49105034436E+03  0.00000000000E+00 0. -1.
          1   -1    0    0  501    0 -0.00000000000E+00 -0.00000000000E+00 -0.12570248219E+04  0.12570248219E+04  0.00000000000E+00 0. -1.
         25    2    1    2    0    0  0.16197145042E+03 -0.54594667455E+02  0.53472986331E+02  0.21840340333E+03  0.12500143141E+03 0.  0.
          2    1    1    2  501    0 -0.44901116485E+02 -0.91069184435E+01 -0.11615866488E+04  0.11624898231E+04  0.00000000000E+00 0. -1.
          1    1    1    2  502    0 -0.11707033393E+03  0.63701585899E+02  0.34213918486E+03  0.36718193985E+03  0.00000000000E+00 0. -1.
         22    1    3    3    0    0  0.90898865441E+01 -0.51835965481E+02  0.37592544390E+02  0.64674513902E+02  0.00000000000E+00 0.  1.
         22    1    3    3    0    0  0.15288156387E+03 -0.27587019746E+01  0.15880441940E+02  0.15372888943E+03  0.00000000000E+00 0.  1.
</event>
<event>
 7    1  0.6278987E-006  0.3957757E+02  0.7818608E-02  0.1551564E+00
          2   -1    0    0  502    0  0.00000000000E+00  0.00000000000E+00  0.12378347223E+03  0.12378347223E+03  0.00000000000E+00 0. -1.
          1   -1    0    0  501    0 -0.00000000000E+00 -0.00000000000E+00 -0.19740621362E+04  0.19740621362E+04  0.00000000000E+00 0. -1.
         25    2    1    2    0    0 -0.73911896854E+01 -0.36754997073E+02 -0.21405446376E+03  0.25069833961E+03  0.12499913813E+03 0.  0.
          2    1    1    2  501    0  0.30094227871E+02  0.40710878948E+01 -0.17377942114E+04  0.17380595379E+04  0.00000000000E+00 0. -1.
          1    1    1    2  502    0 -0.22703038185E+02  0.32683909179E+02  0.10157001116E+03  0.10908773088E+03  0.00000000000E+00 0. -1.
         22    1    3    3    0    0 -0.47264100072E+02 -0.20938077406E+02 -0.19841848313E+03  0.20504192910E+03  0.00000000000E+00 0.  1.
         22    1    3    3    0    0  0.39872910386E+02 -0.15816919667E+02 -0.15635980625E+02  0.45656410509E+02  0.00000000000E+00 0.  1.
</event>
<event>
 7    1  0.6278987E-006  0.4688158E+02  0.7818608E-02  0.1528293E+00
          2   -1    0    0  502    0  0.00000000000E+00  0.00000000000E+00  0.13877522983E+03  0.13877522983E+03  0.00000000000E+00 0. -1.
          1   -1    0    0  501    0 -0.00000000000E+00 -0.00000000000E+00 -0.22182935829E+03  0.22182935829E+03  0.00000000000E+00 0. -1.
         25    2    1    2    0    0  0.27849905319E-01  0.46008359835E+02  0.40274013302E+01  0.13326085842E+03  0.12500186589E+03 0.  0.
          2    1    1    2  501    0 -0.28688751689E+02 -0.37737154155E+02 -0.15021516309E+03  0.15751740380E+03  0.00000000000E+00 0. -1.
          1    1    1    2  502    0  0.28660901784E+02 -0.82712056798E+01  0.63133633305E+02  0.69826325900E+02  0.00000000000E+00 0. -1.
         22    1    3    3    0    0 -0.31589230869E+00  0.78917729531E+01 -0.59041657515E+02  0.59567585064E+02  0.00000000000E+00 0.  1.
         22    1    3    3    0    0  0.34374221401E+00  0.38116586882E+02  0.63069058845E+02  0.73693273355E+02  0.00000000000E+00 0.  1.
</event>
<event>
 7    1  0.6278987E-006  0.1259870E+03  0.7818608E-02  0.1250523E+00
          2   -1    0    0  502    0  0.00000000000E+00  0.00000000000E+00  0.20461680962E+03  0.20461680962E+03  0.00000000000E+00 0. -1.
          1   -1    0    0  501    0 -0.00000000000E+00 -0.00000000000E+00 -0.57717151288E+03  0.57717151288E+03  0.00000000000E+00 0. -1.
         25    2    1    2    0    0  0.90010553354E+02 -0.35088563363E+02  0.98928279727E+02  0.18639993202E+03  0.12500009253E+03 0.  0.
          2    1    1    2  501    0 -0.11029328415E+03 -0.69039167161E+02 -0.47168512003E+03  0.48930345144E+03  0.00000000000E+00 0. -1.
          1    1    1    2  502    0  0.20282730793E+02  0.10412773052E+03  0.20213704509E+00  0.10608493904E+03  0.00000000000E+00 0. -1.
         22    1    3    3    0    0 -0.22764401274E+02  0.21883990631E+02  0.17831525442E+02  0.36264173931E+02  0.00000000000E+00 0.  1.
         22    1    3    3    0    0  0.11277495463E+03 -0.56972553994E+02  0.81096754285E+02  0.15013575809E+03  0.00000000000E+00 0.  1.
</event>
<event>
 7    1  0.6278987E-006  0.5572831E+02  0.7818608E-02  0.1420890E+00
          2   -1    0    0  502    0  0.00000000000E+00  0.00000000000E+00  0.31249297205E+03  0.31249297205E+03  0.00000000000E+00 0. -1.
          1   -1    0    0  501    0 -0.00000000000E+00 -0.00000000000E+00 -0.57499968134E+03  0.57499968134E+03  0.00000000000E+00 0. -1.
         25    2    1    2    0    0 -0.43033848586E+02  0.85782525903E+02 -0.37724610655E+03  0.40884006635E+03  0.12500008428E+03 0.  0.
          2    1    1    2  501    0 -0.24352819951E+01 -0.53897397497E+02 -0.17526370059E+03  0.18338000109E+03  0.00000000000E+00 0. -1.
          1    1    1    2  502    0  0.45469130581E+02 -0.31885128406E+02  0.29000309785E+03  0.29527258595E+03  0.00000000000E+00 0. -1.
         22    1    3    3    0    0 -0.14535171383E+02  0.10247938581E+03 -0.35301279442E+03  0.36787406642E+03  0.00000000000E+00 0.  1.
         22    1    3    3    0    0 -0.28498677203E+02 -0.16696859907E+02 -0.24233312128E+02  0.40965999924E+02  0.00000000000E+00 0.  1.
</event>
<event>
 7    1  0.6278987E-006  0.5595064E+02  0.7818608E-02  0.1473926E+00
          2   -1    0    0  502    0  0.00000000000E+00  0.00000000000E+00  0.30582289770E+03  0.30582289770E+03  0.00000000000E+00 0. -1.
          1   -1    0    0  501    0 -0.00000000000E+00 -0.00000000000E+00 -0.62438955755E+03  0.62438955755E+03  0.00000000000E+00 0. -1.
         25    2    1    2    0    0 -0.76245401287E+02  0.11241408821E+02 -0.20320505510E+03  0.25071565650E+03  0.12500526192E+03 0.  0.
          2    1    1    2  501    0  0.52383800857E+02  0.16113815052E+02 -0.39435834880E+03  0.39814849604E+03  0.00000000000E+00 0. -1.
          1    1    1    2  502    0  0.23861600430E+02 -0.27355223873E+02  0.27899674405E+03  0.28134830271E+03  0.00000000000E+00 0. -1.
         22    1    3    3    0    0  0.15260313971E+02  0.41726681182E+02 -0.10017167200E+03  0.10958264906E+03  0.00000000000E+00 0.  1.
         22    1    3    3    0    0 -0.91505715258E+02 -0.30485272361E+02 -0.10303338310E+03  0.14113300744E+03  0.00000000000E+00 0.  1.
</event>
<event>
 7    1  0.6278987E-006  0.9217658E+02  0.7818608E-02  0.1388790E+00
          2   -1    0    0  502    0  0.00000000000E+00  0.00000000000E+00  0.66679551309E+03  0.66679551309E+03  0.00000000000E+00 0. -1.
          1   -1    0    0  501    0 -0.00000000000E+00 -0.00000000000E+00 -0.74361441734E+03  0.74361441734E+03  0.00000000000E+00 0. -1.
         25    2    1    2    0    0 -0.37567083265E+02 -0.62177631502E+02 -0.28408763034E+03  0.31876049504E+03  0.12500051153E+03 0.  0.
          2    1    1    2  501    0  0.79515859140E+02  0.60467188068E+02 -0.43585532495E+03  0.44715647930E+03  0.00000000000E+00 0. -1.
          1    1    1    2  502    0 -0.41948775875E+02  0.17104434339E+01  0.64312405105E+03  0.64449295609E+03  0.00000000000E+00 0. -1.
         22    1    3    3    0    0 -0.11246708557E+02 -0.87716528714E+02 -0.26063285377E+03  0.27522747379E+03  0.00000000000E+00 0.  1.
         22    1    3    3    0    0 -0.26320374708E+02  0.25538897213E+02 -0.23454776569E+02  0.43533021254E+02  0.00000000000E+00 0.  1.
</event>
<event>
 7    1  0.6278987E-006  0.9367979E+02  0.7818608E-02  0.1322940E+00
          2   -1    0    0  502    0  0.00000000000E+00  0.00000000000E+00  0.12635161749E+04  0.12635161749E+04  0.00000000000E+00 0. -1.
          1   -1    0    0  501    0 -0.00000000000E+00 -0.00000000000E+00 -0.52712580739E+02  0.52712580739E+02  0.00000000000E+00 0. -1.
         25    2    1    2    0    0  0.28409149129E+02  0.11196385967E+03  0.27743914974E+03  0.32548502417E+03  0.12500013409E+03 0.  0.
          2    1    1    2  501    0  0.46293431936E+02 -0.55294405113E+02  0.23189297322E+02  0.75751545116E+02  0.00000000000E+00 0. -1.
          1    1    1    2  502    0 -0.74702581065E+02 -0.56669454553E+02  0.91017514713E+03  0.91499218638E+03  0.00000000000E+00 0. -1.
         22    1    3    3    0    0  0.10839267913E+02  0.49206382062E+02  0.24957024898E+03  0.25460570877E+03  0.00000000000E+00 0.  1.
         22    1    3    3    0    0  0.17569881216E+02  0.62757477604E+02  0.27868900761E+02  0.70879315394E+02  0.00000000000E+00 0.  1.
</event>
<event>
 7    1  0.6278987E-006  0.3699506E+02  0.7818608E-02  0.1581824E+00
          2   -1    0    0  502    0  0.00000000000E+00  0.00000000000E+00  0.11820473685E+04  0.11820473685E+04  0.00000000000E+00 0. -1.
          1   -1    0    0  501    0 -0.00000000000E+00 -0.00000000000E+00 -0.95220634590E+03  0.95220634590E+03  0.00000000000E+00 0. -1.
         25    2    1    2    0    0  0.37069438176E+02 -0.16685193649E+02  0.51241576704E+03  0.52901678542E+03  0.12504519989E+03 0.  0.
          2    1    1    2  501    0 -0.35583570264E+02 -0.10136502819E+02 -0.94327022172E+03  0.94399557750E+03  0.00000000000E+00 0. -1.
          1    1    1    2  502    0 -0.14858679125E+01  0.26821696467E+02  0.66069547727E+03  0.66124135147E+03  0.00000000000E+00 0. -1.
         22    1    3    3    0    0 -0.10958060063E+02  0.47336048106E+02  0.14294178942E+03  0.15097395700E+03  0.00000000000E+00 0. -1.
         22    1    3    3    0    0  0.48027498239E+02 -0.64021241754E+02  0.36947397762E+03  0.37804282842E+03  0.00000000000E+00 0. -1.
</event>
<event>
 7    1  0.6278987E-006  0.1249801E+03  0.7818608E-02  0.1252762E+00
          2   -1    0    0  502    0  0.00000000000E+00  0.00000000000E+00  0.23591796512E+04  0.23591796512E+04  0.00000000000E+00 0. -1.
          1   -1    0    0  501    0 -0.00000000000E+00 -0.00000000000E+00 -0.46525240384E+03  0.46525240384E+03  0.00000000000E+00 0. -1.
         25    2    1    2    0    0 -0.14107338067E+03  0.44877887381E+01  0.78128562253E+01  0.18869925701E+03  0.12499811956E+03 0.  0.
          2    1    1    2  501    0  0.56372805322E+02  0.88086419724E+02 -0.36573336899E+03  0.38039191331E+03  0.00000000000E+00 0. -1.
          1    1    1    2  502    0  0.84700575350E+02 -0.92574208462E+02  0.22518477602E+04  0.22553408848E+04  0.00000000000E+00 0. -1.
         22    1    3    3    0    0 -0.10133352042E+03  0.59798793507E+02  0.20460538929E+02  0.11942785152E+03  0.00000000000E+00 0.  1.
         22    1    3    3    0    0 -0.39739860255E+02 -0.55311004769E+02 -0.12647682703E+02  0.69271405496E+02  0.00000000000E+00 0.  1.
</event>
<event>
 7    1  0.6278987E-006  0.1357994E+03  0.7818608E-02  0.1427043E+00
          2   -1    0    0  502    0  0.00000000000E+00  0.00000000000E+00  0.29804141939E+04  0.29804141939E+04  0.00000000000E+00 0. -1.
          1   -1    0    0  501    0 -0.00000000000E+00 -0.00000000000E+00 -0.21702665071E+02  0.21702665071E+02  0.00000000000E+00 0. -1.
         25    2    1    2    0    0  0.10219909090E+03 -0.96420643120E+02  0.15900506748E+04  0.16011330957E+04  0.12499778808E+03 0.  0.
          2    1    1    2  501    0 -0.11097769040E+03  0.77208318995E+02  0.26845240622E+03  0.30057256477E+03  0.00000000000E+00 0. -1.
          1    1    1    2  502    0  0.87785995019E+01  0.19212324126E+02  0.11002084478E+04  0.11004111985E+04  0.00000000000E+00 0. -1.
         22    1    3    3    0    0 -0.21483853811E+02 -0.52551259588E+02  0.46290354896E+03  0.46637204730E+03  0.00000000000E+00 0.  1.
         22    1    3    3    0    0  0.12368294471E+03 -0.43869383532E+02  0.11271471258E+04  0.11347610484E+04  0.00000000000E+00 0.  1.
</event>
<event>
 7    1  0.6278987E-006  0.1588688E+03  0.7818608E-02  0.1354504E+00
          2   -1    0    0  502    0  0.00000000000E+00  0.00000000000E+00  0.18073932478E+04  0.18073932478E+04  0.00000000000E+00 0. -1.
          1   -1    0    0  501    0 -0.00000000000E+00 -0.00000000000E+00 -0.76969403391E+03  0.76969403391E+03  0.00000000000E+00 0. -1.
         25    2    1    2    0    0 -0.40109204314E+02  0.15560060624E+03 -0.36761141260E+03  0.42021543153E+03  0.12499024478E+03 0.  0.
          2    1    1    2  501    0  0.32185074678E+02  0.30833568371E+01 -0.37153386746E+03  0.37293806563E+03  0.00000000000E+00 0. -1.
          1    1    1    2  502    0  0.79241296359E+01 -0.15868396307E+03  0.17768444940E+04  0.17839337846E+04  0.00000000000E+00 0. -1.
         22    1    3    3    0    0 -0.15653943498E+02 -0.20483840264E+02 -0.48551969016E+02  0.54972059761E+02  0.00000000000E+00 0. -1.
         22    1    3    3    0    0 -0.24455260816E+02  0.17608444650E+03 -0.31905944358E+03  0.36524337177E+03  0.00000000000E+00 0. -1.
</event>
<event>
 7    1  0.6278987E-006  0.9897764E+02  0.7818608E-02  0.1372157E+00
          2   -1    0    0  502    0  0.00000000000E+00  0.00000000000E+00  0.17563166188E+03  0.17563166188E+03  0.00000000000E+00 0. -1.
          1   -1    0    0  501    0 -0.00000000000E+00 -0.00000000000E+00 -0.40042672006E+03  0.40042672006E+03  0.00000000000E+00 0. -1.
         25    2    1    2    0    0 -0.62186792983E+02  0.73012563689E+02 -0.19562564540E+02  0.15875927512E+03  0.12499512722E+03 0.  0.
          2    1    1    2  501    0  0.24595322467E+02 -0.97336778347E+02 -0.29791022520E+03  0.31437220071E+03  0.00000000000E+00 0. -1.
          1    1    1    2  502    0  0.37591470516E+02  0.24324214658E+02  0.92677731558E+02  0.10292690611E+03  0.00000000000E+00 0. -1.
         22    1    3    3    0    0 -0.12009467802E+02  0.39283766994E+02  0.51228162032E+02  0.65664040779E+02  0.00000000000E+00 0. -1.
         22    1    3    3    0    0 -0.50177325181E+02  0.33728796694E+02 -0.70790726572E+02  0.93095234343E+02  0.00000000000E+00 0. -1.
</event>
<event>
 7    1  0.6278987E-006  0.1053091E+03  0.7818608E-02  0.1285232E+00
          2   -1    0    0  502    0  0.00000000000E+00  0.00000000000E+00  0.20036342227E+04  0.20036342227E+04  0.00000000000E+00 0. -1.
          1   -1    0    0  501    0 -0.00000000000E+00 -0.00000000000E+00 -0.53320480741E+03  0.53320480741E+03  0.00000000000E+00 0. -1.
         25    2    1    2    0    0  0.60406594164E+02 -0.19372175019E+02  0.66265469468E+01  0.14033556665E+03  0.12500368939E+03 0.  0.
          2    1    1    2  501    0 -0.34076713847E+02  0.10608330442E+03 -0.45861233903E+03  0.47195356489E+03  0.00000000000E+00 0. -1.
          1    1    1    2  502    0 -0.26329880317E+02 -0.86711129398E+02  0.19224152073E+04  0.19245498985E+04  0.00000000000E+00 0. -1.
         22    1    3    3    0    0  0.95462959300E+02 -0.35159130257E+02  0.46898038336E+01  0.10183975304E+03  0.00000000000E+00 0. -1.
         22    1    3    3    0    0 -0.35056365136E+02  0.15786955237E+02  0.19367431132E+01  0.38495813617E+02  0.00000000000E+00 0. -1.
</event>
<event>
 7    1  0.6278987E-006  0.7391034E+02  0.7818608E-02  0.1376048E+00
          2   -1    0    0  502    0  0.00000000000E+00  0.00000000000E+00  0.10078635796E+04  0.10078635796E+04  0.00000000000E+00 0. -1.
          1   -1    0    0  501    0 -0.00000000000E+00 -0.00000000000E+00 -0.65654754650E+02  0.65654754650E+02  0.00000000000E+00 0. -1.
         25    2    1    2    0    0  0.15364458927E+02  0.25698548715E+02  0.39710498234E+03  0.41738939296E+03  0.12500022540E+03 0.  0.
          2    1    1    2  501    0  0.13226439337E+02 -0.76244253308E+02 -0.26339219881E+02  0.81742763373E+02  0.00000000000E+00 0. -1.
          1    1    1    2  502    0 -0.28590898264E+02  0.50545704593E+02  0.57144306244E+03  0.57438617787E+03  0.00000000000E+00 0. -1.
         22    1    3    3    0    0 -0.29118895257E+02 -0.31576841257E+02  0.68315861105E+02  0.80697359581E+02  0.00000000000E+00 0.  1.
         22    1    3    3    0    0  0.44483354184E+02  0.57275389972E+02  0.32878912124E+03  0.33669203338E+03  0.00000000000E+00 0.  1.
</event>
<event>
 7    1  0.6278987E-006  0.4901526E+02  0.7818608E-02  0.1560958E+00
          2   -1    0    0  502    0  0.00000000000E+00  0.00000000000E+00  0.15907596590E+04  0.15907596590E+04  0.00000000000E+00 0. -1.
          1   -1    0    0  501    0 -0.00000000000E+00 -0.00000000000E+00 -0.89877534781E+03  0.89877534781E+03  0.00000000000E+00 0. -1.
         25    2    1    2    0    0  0.29357180120E+02  0.62943880622E+00 -0.45038656109E+03  0.46832886080E+03  0.12498650820E+03 0.  0.
          2    1    1    2  501    0 -0.52444796179E+02  0.19558201110E-01 -0.43776810928E+03  0.44089837211E+03  0.00000000000E+00 0. -1.
          1    1    1    2  502    0  0.23087616059E+02 -0.64899700733E+00  0.15801389815E+04  0.15803077739E+04  0.00000000000E+00 0. -1.
         22    1    3    3    0    0 -0.26934618877E+02 -0.64804421027E+01 -0.36351812954E+03  0.36457221552E+03  0.00000000000E+00 0.  1.
         22    1    3    3    0    0  0.56291798997E+02  0.71098809089E+01 -0.86868431554E+02  0.10375664529E+03  0.00000000000E+00 0.  1.
</event>
<event>
 7    1  0.6278987E-006  0.3494018E+02  0.7818608E-02  0.1605106E+00
          2   -1    0    0  502    0  0.00000000000E+00  0.00000000000E+00  0.90646908499E+03  0.90646908499E+03  0.00000000000E+00 0. -1.
          1   -1    0    0  501    0 -0.00000000000E+00 -0.00000000000E+00 -0.33647225260E+03  0.33647225260E+03  0.00000000000E+00 0. -1.
         25    2    1    2    0    0  0.53132334370E+02 -0.22012555283E+02  0.30524220204E+03  0.33482197952E+03  0.12500143408E+03 0.  0.
          2    1    1    2  501    0 -0.28511878747E+02  0.20087747201E+02 -0.32047581019E+03  0.32236809665E+03  0.00000000000E+00 0. -1.
          1    1    1    2  502    0 -0.24620455623E+02  0.19248080817E+01  0.58523044054E+03  0.58575126142E+03  0.00000000000E+00 0. -1.
         22    1    3    3    0    0  0.48944280778E+02  0.15696023940E+02  0.35601218019E+02  0.62524831170E+02  0.00000000000E+00 0.  1.
         22    1    3    3    0    0  0.41880535914E+01 -0.37708579223E+02  0.26964098402E+03  0.27229714835E+03  0.00000000000E+00 0.  1.
</event>
<event>
 7    1  0.6278987E-006  0.1421904E+03  0.7818608E-02  0.1243830E+00
          2   -1    0    0  502    0  0.00000000000E+00  0.00000000000E+00  0.64967634377E+03  0.64967634377E+03  0.00000000000E+00 0. -1.
          1   -1    0    0  501    0 -0.00000000000E+00 -0.00000000000E+00 -0.14567871627E+04  0.14567871627E+04  0.00000000000E+00 0. -1.
         25    2    1    2    0    0 -0.19414452434E+03 -0.11239572856E+03 -0.14860564096E+02  0.25723026219E+03  0.12498670045E+03 0.  0.
          2    1    1    2  501    0  0.60644568817E+02  0.80172978376E+02 -0.13098613440E+04  0.13137131387E+04  0.00000000000E+00 0. -1.
          1    1    1    2  502    0  0.13349995553E+03  0.32222750182E+02  0.51761108923E+03  0.53552010555E+03  0.00000000000E+00 0. -1.
         22    1    3    3    0    0  0.10037235620E+02 -0.82810918438E+01 -0.24599510507E+02  0.27829094455E+02  0.00000000000E+00 0.  1.
         22    1    3    3    0    0 -0.20418175996E+03 -0.10411463671E+03  0.97389464106E+01  0.22940116773E+03  0.00000000000E+00 0.  1.
</event>
<event>
 7    1  0.6278987E-006  0.2806494E+03  0.7818608E-02  0.1162801E+00
          2   -1    0    0  502    0  0.00000000000E+00  0.00000000000E+00  0.16136193009E+04  0.16136193009E+04  0.00000000000E+00 0. -1.
          1   -1    0    0  501    0 -0.00000000000E+00 -0.00000000000E+00 -0.86341947506E+03  0.86341947506E+03  0.00000000000E+00 0. -1.
         25    2    1    2    0    0 -0.28570340135E+03 -0.27997224607E+03  0.92734357040E+03  0.10176453089E+04  0.12499993983E+03 0.  0.
          2    1    1    2  501    0  0.19975946377E+03  0.19295885563E+03 -0.78846882825E+03  0.83595457799E+03  0.00000000000E+00 0. -1.
          1    1    1    2  502    0  0.85943937579E+02  0.87013390444E+02  0.61132508373E+03  0.62343888916E+03  0.00000000000E+00 0. -1.
         22    1    3    3    0    0 -0.20784737851E+03 -0.22357822627E+03  0.55853430144E+03  0.63651262509E+03  0.00000000000E+00 0.  1.
         22    1    3    3    0    0 -0.77856022846E+02 -0.56394019805E+02  0.36880926897E+03  0.38113268377E+03  0.00000000000E+00 0.  1.
</event>
<event>
 7    1  0.6278987E-006  0.3079943E+02  0.7818608E-02  0.1620851E+00
          2   -1    0    0  502    0  0.00000000000E+00  0.00000000000E+00  0.38537948455E+03  0.38537948455E+03  0.00000000000E+00 0. -1.
          1   -1    0    0  501    0 -0.00000000000E+00 -0.00000000000E+00 -0.15640275212E+03  0.15640275212E+03  0.00000000000E+00 0. -1.
         25    2    1    2    0    0 -0.25003861969E+02 -0.17673521056E+02  0.14569252995E+03  0.19440126772E+03  0.12501197202E+03 0.  0.
          2    1    1    2  501    0  0.30894804016E+01  0.30758343624E+02 -0.12946586791E+03  0.13310534003E+03  0.00000000000E+00 0. -1.
          1    1    1    2  502    0  0.21914381567E+02 -0.13084822568E+02  0.21275007038E+03  0.21427562892E+03  0.00000000000E+00 0. -1.
         22    1    3    3    0    0  0.38320674245E+02  0.23681392264E+02  0.23793089283E+02  0.50945004777E+02  0.00000000000E+00 0. -1.
         22    1    3    3    0    0 -0.63324536214E+02 -0.41354913320E+02  0.12189944067E+03  0.14345626294E+03  0.00000000000E+00 0. -1.
</event>
<event>
 7    1  0.6278987E-006  0.3920553E+02  0.7818608E-02  0.1523753E+00
          2   -1    0    0  502    0  0.00000000000E+00  0.00000000000E+00  0.42112203318E+03  0.42112203318E+03  0.00000000000E+00 0. -1.
          1   -1    0    0  501    0 -0.00000000000E+00 -0.00000000000E+00 -0.11018667791E+03  0.11018667791E+03  0.00000000000E+00 0. -1.
         25    2    1    2    0    0 -0.42213307932E+02  0.61197088955E+02  0.11729955398E+03  0.18684571317E+03  0.12500035241E+03 0.  0.
          2    1    1    2  501    0  0.23378188398E+02 -0.28370174880E+02 -0.69497806541E+02  0.78621572291E+02  0.00000000000E+00 0. -1.
          1    1    1    2  502    0  0.18835119535E+02 -0.32826914075E+02  0.26313360782E+03  0.26584142563E+03  0.00000000000E+00 0. -1.
         22    1    3    3    0    0 -0.38691755884E+02  0.81500786578E+02  0.13315809757E+03  0.16084311963E+03  0.00000000000E+00 0.  1.
         22    1    3    3    0    0 -0.35215520481E+01 -0.20303697623E+02 -0.15858543583E+02  0.26002593535E+02  0.00000000000E+00 0.  1.
</event>
<event>
 7    1  0.6278987E-006  0.8616755E+02  0.7818608E-02  0.1405800E+00
          2   -1    0    0  502    0  0.00000000000E+00  0.00000000000E+00  0.70332034992E+03  0.70332034992E+03  0.00000000000E+00 0. -1.
          1   -1    0    0  501    0 -0.00000000000E+00 -0.00000000000E+00 -0.80625620826E+03  0.80625620826E+03  0.00000000000E+00 0. -1.
         25    2    1    2    0    0 -0.11101567313E+03 -0.77226217374E+01  0.20455670699E+03  0.26431081056E+03  0.12503055482E+03 0.  0.
          2    1    1    2  501    0  0.83538585126E+02 -0.20279049275E+02 -0.77317221444E+03  0.77793650656E+03  0.00000000000E+00 0. -1.
          1    1    1    2  502    0  0.27477088001E+02  0.28001671012E+02  0.46567964912E+03  0.46732924106E+03  0.00000000000E+00 0. -1.
         22    1    3    3    0    0 -0.88533647948E+02 -0.27604786270E+01  0.38358746424E+02  0.96525750391E+02  0.00000000000E+00 0. -1.
         22    1    3    3    0    0 -0.22482025178E+02 -0.49621431104E+01  0.16619796056E+03  0.16778506017E+03  0.00000000000E+00 0. -1.
</event>
<event>
 7    1  0.6278987E-006  0.1185079E+03  0.7818608E-02  0.1435021E+00
          2   -1    0    0  502    0  0.00000000000E+00  0.00000000000E+00  0.29322714173E+03  0.29322714173E+03  0.00000000000E+00 0. -1.
          1   -1    0    0  501    0 -0.00000000000E+00 -0.00000000000E+00 -0.65767222239E+03  0.65767222239E+03  0.00000000000E+00 0. -1.
         25    2    1    2    0    0  0.11146018778E+03 -0.10847157421E+02  0.14389911012E+03  0.22107534637E+03  0.12500528227E+03 0.  0.
          2    1    1    2  501    0  0.97185054248E+01 -0.20610069273E+02 -0.58340614752E+03  0.58385097179E+03  0.00000000000E+00 0. -1.
          1    1    1    2  502    0 -0.12117869320E+03  0.31457226693E+02  0.75061956732E+02  0.14597304595E+03  0.00000000000E+00 0. -1.
         22    1    3    3    0    0  0.11128144894E+02  0.14160520473E+02 -0.20233080094E+02  0.27087515186E+02  0.00000000000E+00 0. -1.
         22    1    3    3    0    0  0.10033204288E+03 -0.25007677893E+02  0.16413219022E+03  0.19398783118E+03  0.00000000000E+00 0. -1.
</event>
<event>
 7    1  0.6278987E-006  0.9738277E+02  0.7818608E-02  0.1442666E+00
          2   -1    0    0  502    0  0.00000000000E+00  0.00000000000E+00  0.89885347594E+03  0.89885347594E+03  0.00000000000E+00 0. -1.
          1   -1    0    0  501    0 -0.00000000000E+00 -0.00000000000E+00 -0.16080161768E+03  0.16080161768E+03  0.00000000000E+00 0. -1.
         25    2    1    2    0    0  0.90735987216E+02  0.44822761831E+02  0.42431340249E+03  0.45377151617E+03  0.12499850400E+03 0.  0.
          2    1    1    2  501    0  0.43204261974E+01 -0.25828499595E+02 -0.13973376808E+03  0.14216646375E+03  0.00000000000E+00 0. -1.
          1    1    1    2  502    0 -0.95056413414E+02 -0.18994262237E+02  0.45347222385E+03  0.46371711370E+03  0.00000000000E+00 0. -1.
         22    1    3    3    0    0  0.80813488558E+02 -0.14477293467E+02  0.34273170748E+03  0.35242791500E+03  0.00000000000E+00 0.  1.
         22    1    3    3    0    0  0.99224986587E+01  0.59300055298E+02  0.81581695013E+02  0.10134360118E+03  0.00000000000E+00 0.  1.
</event>
<event>
 7    1  0.6278987E-006  0.5883956E+02  0.7818608E-02  0.1455735E+00
          2   -1    0    0  502    0  0.00000000000E+00  0.00000000000E+00  0.10530359816E+04  0.10530359816E+04  0.00000000000E+00 0. -1.
          1   -1    0    0  501    0 -0.00000000000E+00 -0.00000000000E+00 -0.94645919683E+03  0.94645919683E+03  0.00000000000E+00 0. -1.
         25    2    1    2    0    0  0.54601057946E+02  0.79319770388E+02  0.23489741085E+03  0.28297656971E+03  0.12500417543E+03 0.  0.
          2    1    1    2  501    0 -0.25307494900E+02 -0.30143690166E+02 -0.92096726753E+03  0.92180790798E+03  0.00000000000E+00 0. -1.
          1    1    1    2  502    0 -0.29293563046E+02 -0.49176080222E+02  0.79264664143E+03  0.79471070074E+03  0.00000000000E+00 0. -1.
         22    1    3    3    0    0  0.60494779957E+02 -0.48837880027E+01  0.15618095005E+03  0.16755882234E+03  0.00000000000E+00 0. -1.
         22    1    3    3    0    0 -0.58937220113E+01  0.84203558391E+02  0.78716460803E+02  0.11541774736E+03  0.00000000000E+00 0. -1.
</event>
<event>
 7    1  0.6278987E-006  0.1484671E+03  0.7818608E-02  0.1303782E+00
          2   -1    0    0  502    0  0.00000000000E+00  0.00000000000E+00  0.45125813810E+03  0.45125813810E+03  0.00000000000E+00 0. -1.
          1   -1    0    0  501    0 -0.00000000000E+00 -0.00000000000E+00 -0.27248160417E+04  0.27248160417E+04  0.00000000000E+00 0. -1.
         25    2    1    2    0    0  0.12936770255E+03 -0.92221540904E+02 -0.67367308289E+03  0.70335005590E+03  0.12500025382E+03 0.  0.
          2    1    1    2  501    0 -0.14258383448E+03  0.39766764519E+02 -0.20319254893E+04  0.20373101726E+04  0.00000000000E+00 0. -1.
          1    1    1    2  502    0  0.13216131923E+02  0.52454776385E+02  0.43204066855E+03  0.43541395130E+03  0.00000000000E+00 0. -1.
         22    1    3    3    0    0  0.15187075079E+03 -0.64551666839E+02 -0.51830141529E+03  0.54393749616E+03  0.00000000000E+00 0. -1.
         22    1    3    3    0    0 -0.22503048234E+02 -0.27669874065E+02 -0.15537166759E+03  0.15941255974E+03  0.00000000000E+00 0. -1.
</event>
<event>
 7    1  0.6278987E-006  0.4738930E+02  0.7818608E-02  0.1549397E+00
          2   -1    0    0  502    0  0.00000000000E+00  0.00000000000E+00  0.26006675044E+04  0.26006675044E+04  0.00000000000E+00 0. -1.
          1   -1    0    0  501    0 -0.00000000000E+00 -0.00000000000E+00 -0.13141612562E+03  0.13141612562E+03  0.00000000000E+00 0. -1.
         25    2    1    2    0    0  0.53940385147E+02  0.42677932071E+02  0.96102323659E+03  0.97155625551E+03  0.12499970121E+03 0.  0.
          2    1    1    2  501    0 -0.24773207461E+02 -0.69051911213E+01 -0.12450934896E+03  0.12713760833E+03  0.00000000000E+00 0. -1.
          1    1    1    2  502    0 -0.29167177686E+02 -0.35772740950E+02  0.16327374911E+04  0.16333897662E+04  0.00000000000E+00 0. -1.
         22    1    3    3    0    0  0.10245959286E+02  0.66219182377E+02  0.25067615751E+03  0.25947735111E+03  0.00000000000E+00 0.  1.
         22    1    3    3    0    0  0.43694425861E+02 -0.23541250306E+02  0.71034707909E+03  0.71207890440E+03  0.00000000000E+00 0.  1.
</event>
<event>
 7    1  0.6278987E-006  0.1195363E+03  0.7818608E-02  0.1256832E+00
          2   -1    0    0  502    0  0.00000000000E+00  0.00000000000E+00  0.96120641741E+03  0.96120641741E+03  0.00000000000E+00 0. -1.
          1   -1    0    0  501    0 -0.00000000000E+00 -0.00000000000E+00 -0.25775700015E+03  0.25775700015E+03  0.00000000000E+00 0. -1.
         25    2    1    2    0    0 -0.13479230460E+03  0.67888040757E+01  0.31130711291E+03  0.36160178883E+03  0.12501472674E+03 0.  0.
          2    1    1    2  501    0  0.55405819476E+02  0.89215522090E+02 -0.21409047050E+03  0.23846161907E+03  0.00000000000E+00 0. -1.
          1    1    1    2  502    0  0.79386485121E+02 -0.96004326166E+02  0.60623277484E+03  0.61890000966E+03  0.00000000000E+00 0. -1.
         22    1    3    3    0    0 -0.84353312631E+02 -0.43256533545E+02  0.96183782626E+02  0.13504787702E+03  0.00000000000E+00 0. -1.
         22    1    3    3    0    0 -0.50438991965E+02  0.50045337621E+02  0.21512333028E+03  0.22655391182E+03  0.00000000000E+00 0. -1.
</event>
<event>
 7    1  0.8315532E-006  0.6866552E+02  0.7818608E-02  0.1435574E+00
          2   -1    0    0  502    0  0.00000000000E+00  0.00000000000E+00  0.16698050016E+04  0.16698050016E+04  0.00000000000E+00 0. -1.
          1   -1    0    0  501    0 -0.00000000000E+00 -0.00000000000E+00 -0.48660833187E+03  0.48660833187E+03  0.00000000000E+00 0. -1.
         25    2    1    2    0    0  0.91175450466E+01 -0.51700886929E+02 -0.26873244631E+03  0.30099520451E+03  0.12499949641E+03 0.  0.
          2    1    1    2  501    0  0.39070690495E+02  0.26947213644E+01 -0.19912215153E+03  0.20293696462E+03  0.00000000000E+00 0. -1.
          1    1    1    2  502    0 -0.48188235541E+02  0.49006165564E+02  0.16510512676E+04  0.16524811643E+04  0.00000000000E+00 0. -1.
         22    1    3    3    0    0  0.21090839148E+02 -0.45259425581E+02 -0.27932941665E+03  0.28375722388E+03  0.00000000000E+00 0. -1.
         22    1    3    3    0    0 -0.11973294101E+02 -0.64414613473E+01  0.10596970336E+02  0.17237980631E+02  0.00000000000E+00 0. -1.
</event>
<event>
 7    1  0.6278987E-006  0.1059939E+03  0.7818608E-02  0.1434514E+00
          2   -1    0    0  502    0  0.00000000000E+00  0.00000000000E+00  0.41492742166E+03  0.41492742166E+03  0.00000000000E+00 0. -1.
          1   -1    0    0  501    0 -0.00000000000E+00 -0.00000000000E+00 -0.90772706768E+03  0.90772706768E+03  0.00000000000E+00 0. -1.
         25    2    1    2    0    0 -0.23831238212E+02  0.10030787051E+03  0.27798871854E+02  0.16439920699E+03  0.12499890072E+03 0.  0.
          2    1    1    2  501    0  0.24757827685E+02  0.64099997466E+01 -0.83029370470E+03  0.83068747083E+03  0.00000000000E+00 0. -1.
          1    1    1    2  502    0 -0.92658947332E+00 -0.10671787026E+03  0.30969518683E+03  0.32756781152E+03  0.00000000000E+00 0. -1.
         22    1    3    3    0    0  0.31624256220E+02  0.86037835991E+02 -0.15033179365E+02  0.92890253985E+02  0.00000000000E+00 0. -1.
         22    1    3    3    0    0 -0.55455494433E+02  0.14270034519E+02  0.42832051220E+02  0.71508953003E+02  0.00000000000E+00 0. -1.
</event>
<event>
 7    1  0.6278987E-006  0.6444223E+02  0.7818608E-02  0.1446067E+00
          2   -1    0    0  502    0  0.00000000000E+00  0.00000000000E+00  0.74209556785E+03  0.74209556785E+03  0.00000000000E+00 0. -1.
          1   -1    0    0  501    0 -0.00000000000E+00 -0.00000000000E+00 -0.90673434324E+03  0.90673434324E+03  0.00000000000E+00 0. -1.
         25    2    1    2    0    0 -0.20981618086E+02  0.39161250584E+02 -0.52349099516E+02  0.14262754883E+03  0.12501342976E+03 0.  0.
          2    1    1    2  501    0  0.58294756063E+02 -0.29330246695E+02 -0.80739446951E+03  0.81002738926E+03  0.00000000000E+00 0. -1.
          1    1    1    2  502    0 -0.37313137976E+02 -0.98310038891E+01  0.69510479363E+03  0.69617497300E+03  0.00000000000E+00 0. -1.
         22    1    3    3    0    0  0.45152534331E+02  0.26775382773E+02 -0.54017253081E+02  0.75322879058E+02  0.00000000000E+00 0. -1.
         22    1    3    3    0    0 -0.66134152417E+02  0.12385867811E+02  0.16681535645E+01  0.67304669776E+02  0.00000000000E+00 0. -1.
</event>
<event>
 7    1  0.6278987E-006  0.1296019E+03  0.7818608E-02  0.1280693E+00
          2   -1    0    0  502    0  0.00000000000E+00  0.00000000000E+00  0.70608976191E+03  0.70608976191E+03  0.00000000000E+00 0. -1.
          1   -1    0    0  501    0 -0.00000000000E+00 -0.00000000000E+00 -0.86372739872E+03  0.86372739872E+03  0.00000000000E+00 0. -1.
         25    2    1    2    0    0  0.16677838339E+03 -0.55158818481E+02 -0.13641969950E+02  0.21603021401E+03  0.12500170238E+03 0.  0.
          2    1    1    2  501    0 -0.39569146454E+02  0.65901570683E+02 -0.74014290752E+03  0.74412381895E+03  0.00000000000E+00 0. -1.
          1    1    1    2  502    0 -0.12720923694E+03 -0.10742752203E+02  0.59614724066E+03  0.60966312767E+03  0.00000000000E+00 0. -1.
         22    1    3    3    0    0  0.11861071413E+03 -0.93429861831E+02  0.69665065981E+01  0.15114950481E+03  0.00000000000E+00 0. -1.
         22    1    3    3    0    0  0.48167669257E+02  0.38271043350E+02 -0.20608476548E+02  0.64880709200E+02  0.00000000000E+00 0. -1.
</event>
<event>
 7    1  0.6278987E-006  0.7757244E+02  0.7818608E-02  0.1448985E+00
          2   -1    0    0  502    0  0.00000000000E+00  0.00000000000E+00  0.25629421384E+04  0.25629421384E+04  0.00000000000E+00 0. -1.
          1   -1    0    0  501    0 -0.00000000000E+00 -0.00000000000E+00 -0.56900342947E+02  0.56900342947E+02  0.00000000000E+00 0. -1.
         25    2    1    2    0    0 -0.46304724040E+02 -0.14094394938E+02  0.47569202041E+03  0.49421949427E+03  0.12500892287E+03 0.  0.
          2    1    1    2  501    0  0.77306682273E+02  0.18892407564E+02 -0.14194818166E+02  0.80837732838E+02  0.00000000000E+00 0. -1.
          1    1    1    2  502    0 -0.31001958232E+02 -0.47980126267E+01  0.20445445932E+04  0.20447852543E+04  0.00000000000E+00 0. -1.
         22    1    3    3    0    0 -0.41828528664E+02  0.40656898517E+02  0.37506773337E+03  0.37957662444E+03  0.00000000000E+00 0.  1.
         22    1    3    3    0    0 -0.44761953764E+01 -0.54751293455E+02  0.10062428704E+03  0.11464286983E+03  0.00000000000E+00 0.  1.
</event>
<event>
 7    1  0.6278987E-006  0.7579764E+02  0.7818608E-02  0.1370291E+00
          2   -1    0    0  502    0  0.00000000000E+00  0.00000000000E+00  0.92279558200E+03  0.92279558200E+03  0.00000000000E+00 0. -1.
          1   -1    0    0  501    0 -0.00000000000E+00 -0.00000000000E+00 -0.52784332869E+03  0.52784332869E+03  0.00000000000E+00 0. -1.
         25    2    1    2    0    0  0.26554690307E+02 -0.34209308023E+02  0.87388695663E+01  0.13256996835E+03  0.12499200108E+03 0.  0.
          2    1    1    2  501    0  0.15128711558E+02  0.76494673182E+02 -0.46161970917E+03  0.46815923448E+03  0.00000000000E+00 0. -1.
          1    1    1    2  502    0 -0.41683401864E+02 -0.42285365159E+02  0.84783309291E+03  0.84990970787E+03  0.00000000000E+00 0. -1.
         22    1    3    3    0    0  0.47636220245E+02 -0.73512891233E+02  0.35623496571E+01  0.87670091774E+02  0.00000000000E+00 0.  1.
         22    1    3    3    0    0 -0.21081529938E+02  0.39303583210E+02  0.51765199091E+01  0.44899876571E+02  0.00000000000E+00 0.  1.
</event>
<event>
 7    1  0.6278987E-006  0.1135190E+03  0.7818608E-02  0.1364615E+00
          2   -1    0    0  502    0  0.00000000000E+00  0.00000000000E+00  0.96447811568E+03  0.96447811568E+03  0.00000000000E+00 0. -1.
          1   -1    0    0  501    0 -0.00000000000E+00 -0.00000000000E+00 -0.11448065877E+03  0.11448065877E+03  0.00000000000E+00 0. -1.
         25    2    1    2    0    0 -0.12047589567E+03  0.56346240734E+02  0.17523750352E+03  0.25305163020E+03  0.12505040833E+03 0.  0.
          2    1    1    2  501    0  0.10946455720E+03 -0.16270822759E+02 -0.34121778936E+02  0.11580813768E+03  0.00000000000E+00 0. -1.
          1    1    1    2  502    0  0.11011338475E+02 -0.40075417975E+02  0.70888173233E+03  0.71009900657E+03  0.00000000000E+00 0. -1.
         22    1    3    3    0    0 -0.36150876909E+01 -0.30590244267E+02  0.59554649405E+02  0.67049147415E+02  0.00000000000E+00 0.  1.
         22    1    3    3    0    0 -0.11686080798E+03  0.86936485001E+02  0.11568285411E+03  0.18600248278E+03  0.00000000000E+00 0.  1.
</event>
<event>
 7    1  0.6278987E-006  0.1484937E+03  0.7818608E-02  0.1295891E+00
          2   -1    0    0  502    0  0.00000000000E+00  0.00000000000E+00  0.96584121680E+02  0.96584121680E+02  0.00000000000E+00 0. -1.
          1   -1    0    0  501    0 -0.00000000000E+00 -0.00000000000E+00 -0.13968362033E+04  0.13968362033E+04  0.00000000000E+00 0. -1.
         25    2    1    2    0    0  0.10674767785E+03 -0.28881585701E+01 -0.26342922571E+03  0.31052120104E+03  0.12500020461E+03 0.  0.
          2    1    1    2  501    0 -0.15524100595E+03  0.35008152095E+02 -0.10915170809E+04  0.11030570604E+04  0.00000000000E+00 0. -1.
          1    1    1    2  502    0  0.48493328098E+02 -0.32119993525E+02  0.54694225009E+02  0.79842063496E+02  0.00000000000E+00 0. -1.
         22    1    3    3    0    0  0.10472339627E+03 -0.50780728839E+02 -0.19098919132E+03  0.22365720053E+03  0.00000000000E+00 0. -1.
         22    1    3    3    0    0  0.20242815825E+01  0.47892570269E+02 -0.72440034389E+02  0.86864000514E+02  0.00000000000E+00 0. -1.
</event>
<event>
 7    1  0.6278987E-006  0.4801311E+02  0.7818608E-02  0.1463485E+00
          2   -1    0    0  502    0  0.00000000000E+00  0.00000000000E+00  0.21539776481E+04  0.21539776481E+04  0.00000000000E+00 0. -1.
          1   -1    0    0  501    0 -0.00000000000E+00 -0.00000000000E+00 -0.22870869404E+02  0.22870869404E+02  0.00000000000E+00 0. -1.
         25    2    1    2    0    0 -0.14847138601E+02  0.12899318023E+02  0.64361035759E+03  0.65593171418E+03  0.12500116537E+03 0.  0.
          2    1    1    2  501    0 -0.13661949562E+02 -0.48478387858E+02  0.22420225972E+02  0.55131383873E+02  0.00000000000E+00 0. -1.
          1    1    1    2  502    0  0.28509088163E+02  0.35579069835E+02  0.14650761951E+04  0.14657854194E+04  0.00000000000E+00 0. -1.
         22    1    3    3    0    0 -0.48038903465E+01  0.41507906835E+02  0.60682168009E+03  0.60825860875E+03  0.00000000000E+00 0.  1.
         22    1    3    3    0    0 -0.10043248255E+02 -0.28608588812E+02  0.36788677499E+02  0.47673105431E+02  0.00000000000E+00 0.  1.
</event>
<event>
 7    1  0.6278987E-006  0.7006112E+02  0.7818608E-02  0.1374224E+00
          2   -1    0    0  502    0  0.00000000000E+00  0.00000000000E+00  0.14970325549E+04  0.14970325549E+04  0.00000000000E+00 0. -1.
          1   -1    0    0  501    0 -0.00000000000E+00 -0.00000000000E+00 -0.65981365389E+03  0.65981365389E+03  0.00000000000E+00 0. -1.
         25    2    1    2    0    0 -0.35155272481E+02  0.12232840354E+03  0.43818260992E+03  0.47311102366E+03  0.12501963675E+03 0.  0.
          2    1    1    2  501    0  0.18453162881E+01 -0.69814844297E+02 -0.63951830002E+03  0.64332042851E+03  0.00000000000E+00 0. -1.
          1    1    1    2  502    0  0.33309956193E+02 -0.52513559248E+02  0.10385545911E+04  0.10404147566E+04  0.00000000000E+00 0. -1.
         22    1    3    3    0    0 -0.18464979464E+02  0.51345737606E+02  0.36759779023E+03  0.37162545072E+03  0.00000000000E+00 0.  1.
         22    1    3    3    0    0 -0.16690293017E+02  0.70982665938E+02  0.70584819682E+02  0.10148557294E+03  0.00000000000E+00 0.  1.
</event>
<event>
 7    1  0.6278987E-006  0.4284742E+02  0.7818608E-02  0.1497896E+00
          2   -1    0    0  502    0  0.00000000000E+00  0.00000000000E+00  0.17013229056E+04  0.17013229056E+04  0.00000000000E+00 0. -1.
          1   -1    0    0  501    0 -0.00000000000E+00 -0.00000000000E+00 -0.14257238306E+04  0.14257238306E+04  0.00000000000E+00 0. -1.
         25    2    1    2    0    0  0.76428289657E+02  0.13630221298E+02  0.57566827187E+02  0.15800562182E+03  0.12499908216E+03 0.  0.
          2    1    1    2  501    0 -0.42154736046E+02  0.71340050084E+01 -0.13749201648E+04  0.13755847395E+04  0.00000000000E+00 0. -1.
          1    1    1    2  502    0 -0.34273553611E+02 -0.20764226307E+02  0.15929524127E+04  0.15934563749E+04  0.00000000000E+00 0. -1.
         22    1    3    3    0    0  0.92671924888E+02  0.49027113090E+02  0.26374305075E+02  0.10810803600E+03  0.00000000000E+00 0. -1.
         22    1    3    3    0    0 -0.16243635231E+02 -0.35396891792E+02  0.31192522112E+02  0.49897585811E+02  0.00000000000E+00 0. -1.
</event>
<event>
 7    1  0.6278987E-006  0.1029269E+03  0.7818608E-02  0.1318015E+00
          2   -1    0    0  502    0  0.00000000000E+00  0.00000000000E+00  0.10366609442E+04  0.10366609442E+04  0.00000000000E+00 0. -1.
          1   -1    0    0  501    0 -0.00000000000E+00 -0.00000000000E+00 -0.77351795210E+03  0.77351795210E+03  0.00000000000E+00 0. -1.
         25    2    1    2    0    0  0.93945965959E+01 -0.48611467799E+02  0.19587756535E+03  0.23758097790E+03  0.12500146882E+03 0.  0.
          2    1    1    2  501    0 -0.73175122461E+02  0.73832467064E+02 -0.74762957797E+03  0.75482171246E+03  0.00000000000E+00 0. -1.
          1    1    1    2  502    0  0.63780525865E+02 -0.25220999265E+02  0.81489500469E+03  0.81777620591E+03  0.00000000000E+00 0. -1.
         22    1    3    3    0    0  0.62296549638E+02 -0.97538789356E-01  0.82217995908E+02  0.10315361584E+03  0.00000000000E+00 0.  1.
         22    1    3    3    0    0 -0.52901953042E+02 -0.48513929010E+02  0.11365956944E+03  0.13442736205E+03  0.00000000000E+00 0.  1.
</event>
<event>
 7    1  0.6278987E-006  0.4442754E+02  0.7818608E-02  0.1574769E+00
          2   -1    0    0  502    0  0.00000000000E+00  0.00000000000E+00  0.28844124801E+03  0.28844124801E+03  0.00000000000E+00 0. -1.
          1   -1    0    0  501    0 -0.00000000000E+00 -0.00000000000E+00 -0.46918779575E+02  0.46918779575E+02  0.00000000000E+00 0. -1.
         25    2    1    2    0    0  0.23304168661E+02 -0.19470502751E+02  0.62938364367E+02  0.14320950690E+03  0.12500216159E+03 0.  0.
          2    1    1    2  501    0  0.21547063701E+02  0.90410516848E+01  0.42691091619E+02  0.48667708733E+02  0.00000000000E+00 0. -1.
          1    1    1    2  502    0 -0.44851232362E+02  0.10429451066E+02  0.13589301245E+03  0.14348281195E+03  0.00000000000E+00 0. -1.
         22    1    3    3    0    0  0.44732160609E+02 -0.61424057195E+02  0.58491109361E+02  0.95891036439E+02  0.00000000000E+00 0.  1.
         22    1    3    3    0    0 -0.21427991949E+02  0.41953554445E+02  0.44472550068E+01  0.47318470459E+02  0.00000000000E+00 0.  1.
</event>
<event>
 7    1  0.6278987E-006  0.1351288E+03  0.7818608E-02  0.1302219E+00
          2   -1    0    0  502    0  0.00000000000E+00  0.00000000000E+00  0.18625166252E+04  0.18625166252E+04  0.00000000000E+00 0. -1.
          1   -1    0    0  501    0 -0.00000000000E+00 -0.00000000000E+00 -0.76630954985E+02  0.76630954985E+02  0.00000000000E+00 0. -1.
         25    2    1    2    0    0 -0.99774793444E+01  0.10282723501E+03  0.21874671589E+03  0.27230222468E+03  0.12500154198E+03 0.  0.
          2    1    1    2  501    0  0.52134395492E+02  0.30284677441E+02 -0.27384720549E+02  0.66219935069E+02  0.00000000000E+00 0. -1.
          1    1    1    2  502    0 -0.42156916147E+02 -0.13311191246E+03  0.15945236748E+04  0.16006254204E+04  0.00000000000E+00 0. -1.
         22    1    3    3    0    0 -0.29449146465E+01 -0.29200075494E+02  0.31170680890E+02  0.42812711644E+02  0.00000000000E+00 0. -1.
         22    1    3    3    0    0 -0.70325646979E+01  0.13202731051E+03  0.18757603500E+03  0.22948951303E+03  0.00000000000E+00 0. -1.
</event>
<event>
 7    1  0.6278987E-006  0.1963479E+03  0.7818608E-02  0.1270429E+00
          2   -1    0    0  502    0  0.00000000000E+00  0.00000000000E+00  0.46592802474E+03  0.46592802474E+03  0.00000000000E+00 0. -1.
          1   -1    0    0  501    0 -0.00000000000E+00 -0.00000000000E+00 -0.35868054636E+03  0.35868054636E+03  0.00000000000E+00 0. -1.
         25    2    1    2    0    0  0.41859507099E+02  0.17996920408E+03 -0.59148996179E+02  0.23078224149E+03  0.12498282477E+03 0.  0.
          2    1    1    2  501    0  0.55679886990E+02 -0.58163741803E+01 -0.18303322496E+03  0.19140334758E+03  0.00000000000E+00 0. -1.
          1    1    1    2  502    0 -0.97539394089E+02 -0.17415282990E+03  0.34942969951E+03  0.40242298203E+03  0.00000000000E+00 0. -1.
         22    1    3    3    0    0  0.38653959191E+02 -0.41919774216E+01 -0.10830493884E+02  0.40360882468E+02  0.00000000000E+00 0. -1.
         22    1    3    3    0    0  0.32055479074E+01  0.18416118150E+03 -0.48318502295E+02  0.19042135903E+03  0.00000000000E+00 0. -1.
</event>
<event>
 7    1  0.6278987E-006  0.5752324E+02  0.7818608E-02  0.1510132E+00
          2   -1    0    0  502    0  0.00000000000E+00  0.00000000000E+00  0.52424352638E+03  0.52424352638E+03  0.00000000000E+00 0. -1.
          1   -1    0    0  501    0 -0.00000000000E+00 -0.00000000000E+00 -0.13485592071E+03  0.13485592071E+03  0.00000000000E+00 0. -1.
         25    2    1    2    0    0 -0.32110362621E+02 -0.72472792045E+02  0.96413585925E+02  0.17664806193E+03  0.12500230901E+03 0.  0.
          2    1    1    2  501    0 -0.19429629480E+01  0.27385812425E+02 -0.90635843170E+02  0.94702766033E+02  0.00000000000E+00 0. -1.
          1    1    1    2  502    0  0.34053325569E+02  0.45086979620E+02  0.38360986292E+03  0.38774861913E+03  0.00000000000E+00 0. -1.
         22    1    3    3    0    0 -0.20477559303E+02 -0.81368320398E+02  0.49842939722E+01  0.84053418644E+02  0.00000000000E+00 0.  1.
         22    1    3    3    0    0 -0.11632803318E+02  0.88955283527E+01  0.91429291953E+02  0.92594643283E+02  0.00000000000E+00 0.  1.
</event>
<event>
 7    1  0.6278987E-006  0.2365281E+02  0.7818608E-02  0.1684783E+00
          2   -1    0    0  502    0  0.00000000000E+00  0.00000000000E+00  0.76243418867E+03  0.76243418867E+03  0.00000000000E+00 0. -1.
          1   -1    0    0  501    0 -0.00000000000E+00 -0.00000000000E+00 -0.67701433949E+02  0.67701433949E+02  0.00000000000E+00 0. -1.
         25    2    1    2    0    0  0.26371634755E+01  0.30868614672E+02  0.31591407391E+03  0.34115542722E+03  0.12500198967E+03 0.  0.
          2    1    1    2  501    0 -0.18830438656E+02 -0.13535594652E+02 -0.52299241217E+02  0.57210212151E+02  0.00000000000E+00 0. -1.
          1    1    1    2  502    0  0.16193275180E+02 -0.17333020020E+02  0.43111792203E+03  0.43176998325E+03  0.00000000000E+00 0. -1.
         22    1    3    3    0    0 -0.22522106007E+02  0.21442001356E+02  0.80507110577E+01  0.32121933778E+02  0.00000000000E+00 0.  1.
         22    1    3    3    0    0  0.25159269482E+02  0.94266133158E+01  0.30786336285E+03  0.30903349344E+03  0.00000000000E+00 0.  1.
</event>
<event>
 7    1  0.6278987E-006  0.1049968E+03  0.7818608E-02  0.1274379E+00
          2   -1    0    0  502    0  0.00000000000E+00  0.00000000000E+00  0.69847792652E+03  0.69847792652E+03  0.00000000000E+00 0. -1.
          1   -1    0    0  501    0 -0.00000000000E+00 -0.00000000000E+00 -0.49131052656E+03  0.49131052656E+03  0.00000000000E+00 0. -1.
         25    2    1    2    0    0  0.11752477906E+01  0.70628708425E+02  0.14319355038E+03  0.20278847426E+03  0.12501590603E+03 0.  0.
          2    1    1    2  501    0 -0.98359635559E+02 -0.43945619669E+02 -0.45026765026E+03  0.46297601695E+03  0.00000000000E+00 0. -1.
          1    1    1    2  502    0  0.97184387769E+02 -0.26683088756E+02  0.51424149985E+03  0.52402396187E+03  0.00000000000E+00 0. -1.
         22    1    3    3    0    0 -0.27676329613E+01 -0.22345290898E+02  0.95697783350E+02  0.98310922870E+02  0.00000000000E+00 0. -1.
         22    1    3    3    0    0  0.39428807519E+01  0.92973999323E+02  0.47495767031E+02  0.10447755139E+03  0.00000000000E+00 0. -1.
</event>
<event>
 7    1  0.6278987E-006  0.5449814E+02  0.7818608E-02  0.1437646E+00
          2   -1    0    0  502    0  0.00000000000E+00  0.00000000000E+00  0.22423654834E+04  0.22423654834E+04  0.00000000000E+00 0. -1.
          1   -1    0    0  501    0 -0.00000000000E+00 -0.00000000000E+00 -0.70264333716E+02  0.70264333716E+02  0.00000000000E+00 0. -1.
         25    2    1    2    0    0  0.25183488377E+02 -0.23815927272E+02  0.67313615692E+03  0.68552076110E+03  0.12500008667E+03 0.  0.
          2    1    1    2  501    0  0.13245502858E+02  0.53539310553E+02 -0.51751653106E+02  0.75631572241E+02  0.00000000000E+00 0. -1.
          1    1    1    2  502    0 -0.38428991236E+02 -0.29723383281E+02  0.15507166459E+04  0.15514774838E+04  0.00000000000E+00 0. -1.
         22    1    3    3    0    0  0.74669053011E+02 -0.24351956296E+02  0.46468885364E+03  0.47127933962E+03  0.00000000000E+00 0.  1.
         22    1    3    3    0    0 -0.49485564634E+02  0.53602902414E+00  0.20844730328E+03  0.21424142148E+03  0.00000000000E+00 0.  1.
</event>
<event>
 7    1  0.6278987E-006  0.1000045E+03  0.7818608E-02  0.1407844E+00
          2   -1    0    0  502    0  0.00000000000E+00  0.00000000000E+00  0.14453503138E+04  0.14453503138E+04  0.00000000000E+00 0. -1.
          1   -1    0    0  501    0 -0.00000000000E+00 -0.00000000000E+00 -0.60470812739E+03  0.60470812739E+03  0.00000000000E+00 0. -1.
         25    2    1    2    0    0  0.72330112665E+01 -0.12720067915E+03 -0.20081147150E+02  0.17961253140E+03  0.12500031895E+03 0.  0.
          2    1    1    2  501    0  0.14319309801E+02  0.30026037072E+02 -0.50249683799E+03  0.50359674118E+03  0.00000000000E+00 0. -1.
          1    1    1    2  502    0 -0.21552321068E+02  0.97174642077E+02  0.13632201716E+04  0.13668491686E+04  0.00000000000E+00 0. -1.
         22    1    3    3    0    0 -0.33635923816E+02 -0.20846784369E+00  0.21446463488E+02  0.39891974455E+02  0.00000000000E+00 0. -1.
         22    1    3    3    0    0  0.40868935083E+02 -0.12699221131E+03 -0.41527610638E+02  0.13972055694E+03  0.00000000000E+00 0. -1.
</event>
<event>
 7    1  0.6278987E-006  0.4079206E+02  0.7818608E-02  0.1577652E+00
          2   -1    0    0  502    0  0.00000000000E+00  0.00000000000E+00  0.19310628507E+03  0.19310628507E+03  0.00000000000E+00 0. -1.
          1   -1    0    0  501    0 -0.00000000000E+00 -0.00000000000E+00 -0.15250547303E+04  0.15250547303E+04  0.00000000000E+00 0. -1.
         25    2    1    2    0    0 -0.28785257200E+02  0.12312893385E+02 -0.47329222368E+03  0.49052250157E+03  0.12500638851E+03 0.  0.
          2    1    1    2  501    0 -0.10777528157E+02 -0.22555714741E+02 -0.10407322758E+04  0.10410324612E+04  0.00000000000E+00 0. -1.
          1    1    1    2  502    0  0.39562785357E+02  0.10242821356E+02  0.18207605420E+03  0.18660605266E+03  0.00000000000E+00 0. -1.
         22    1    3    3    0    0  0.41812342835E+02 -0.17305031748E+02 -0.10465497853E+03  0.11401929955E+03  0.00000000000E+00 0.  1.
         22    1    3    3    0    0 -0.70597600035E+02  0.29617925133E+02 -0.36863724515E+03  0.37650320202E+03  0.00000000000E+00 0.  1.
</event>
<event>
 7    1  0.6278987E-006  0.1807806E+03  0.7818608E-02  0.1388837E+00
          2   -1    0    0  502    0  0.00000000000E+00  0.00000000000E+00  0.55180314489E+03  0.55180314489E+03  0.00000000000E+00 0. -1.
          1   -1    0    0  501    0 -0.00000000000E+00 -0.00000000000E+00 -0.67721342514E+03  0.67721342514E+03  0.00000000000E+00 0. -1.
         25    2    1    2    0    0 -0.49677609376E+02 -0.16261930821E+03 -0.10795476553E+03  0.23704949181E+03  0.12500130356E+03 0.  0.
          2    1    1    2  501    0  0.37102411701E+02  0.17993303522E+03 -0.48774123366E+03  0.52119477850E+03  0.00000000000E+00 0. -1.
          1    1    1    2  502    0  0.12575197675E+02 -0.17313727012E+02  0.47028571894E+03  0.47077229972E+03  0.00000000000E+00 0. -1.
         22    1    3    3    0    0 -0.77295890999E+01 -0.31310954926E+02 -0.92953762186E+02  0.98389655710E+02  0.00000000000E+00 0. -1.
         22    1    3    3    0    0 -0.41948020276E+02 -0.13130835328E+03 -0.15001003345E+02  0.13865983610E+03  0.00000000000E+00 0. -1.
</event>
<event>
 7    1  0.6278987E-006  0.5584944E+02  0.7818608E-02  0.1445530E+00
          2   -1    0    0  502    0  0.00000000000E+00  0.00000000000E+00  0.23939379433E+04  0.23939379433E+04  0.00000000000E+00 0. -1.
          1   -1    0    0  501    0 -0.00000000000E+00 -0.00000000000E+00 -0.16097305635E+03  0.16097305635E+03  0.00000000000E+00 0. -1.
         25    2    1    2    0    0 -0.44305464959E+02  0.55208532250E+02 -0.10005854387E+01  0.14365500417E+03  0.12499921117E+03 0.  0.
          2    1    1    2  501    0 -0.39212892973E+00 -0.55723803044E+02 -0.79650341831E+02  0.97208399558E+02  0.00000000000E+00 0. -1.
          1    1    1    2  502    0  0.44697593889E+02  0.51527079366E+00  0.23136158142E+04  0.23140475959E+04  0.00000000000E+00 0. -1.
         22    1    3    3    0    0 -0.87161613444E+02  0.35841362239E+02 -0.12957693564E+02  0.95129658508E+02  0.00000000000E+00 0. -1.
         22    1    3    3    0    0  0.42856148485E+02  0.19367170011E+02  0.11957108125E+02  0.48525345665E+02  0.00000000000E+00 0. -1.
</event>
<event>
 7    1  0.6278987E-006  0.1537640E+03  0.7818608E-02  0.1325473E+00
          2   -1    0    0  502    0  0.00000000000E+00  0.00000000000E+00  0.26641229361E+04  0.26641229361E+04  0.00000000000E+00 0. -1.
          1   -1    0    0  501    0 -0.00000000000E+00 -0.00000000000E+00 -0.14994809097E+03  0.14994809097E+03  0.00000000000E+00 0. -1.
         25    2    1    2    0    0 -0.38831168942E+02  0.18278875924E+03  0.29083360315E+03  0.36760208279E+03  0.12501006506E+03 0.  0.
          2    1    1    2  501    0  0.29393595302E+02 -0.31328532776E+02 -0.10486454119E+03  0.11332269150E+03  0.00000000000E+00 0. -1.
          1    1    1    2  502    0  0.94375736394E+01 -0.15146022647E+03  0.23282057832E+04  0.23331462528E+04  0.00000000000E+00 0. -1.
         22    1    3    3    0    0 -0.71458283361E+02  0.16807803262E+03  0.20472456061E+03  0.27435133866E+03  0.00000000000E+00 0.  1.
         22    1    3    3    0    0  0.32627114419E+02  0.14710726623E+02  0.86109042543E+02  0.93250744130E+02  0.00000000000E+00 0.  1.
</event>
<event>
 7    1  0.6278987E-006  0.3539049E+02  0.7818608E-02  0.1565948E+00
          2   -1    0    0  502    0  0.00000000000E+00  0.00000000000E+00  0.72936381778E+03  0.72936381778E+03  0.00000000000E+00 0. -1.
          1   -1    0    0  501    0 -0.00000000000E+00 -0.00000000000E+00 -0.11122989508E+04  0.11122989508E+04  0.00000000000E+00 0. -1.
         25    2    1    2    0    0 -0.23108031754E+02  0.22007530779E+02  0.19864162685E+02  0.13053133092E+03  0.12500212338E+03 0.  0.
          2    1    1    2  501    0  0.28054163370E+02  0.13183038889E+02 -0.10562552193E+04  0.10567099493E+04  0.00000000000E+00 0. -1.
          1    1    1    2  502    0 -0.49461316169E+01 -0.35190569669E+02  0.65345592358E+03  0.65442148840E+03  0.00000000000E+00 0. -1.
         22    1    3    3    0    0  0.19893263131E+02  0.91363435926E+01  0.63963944955E+02  0.67606219732E+02  0.00000000000E+00 0.  1.
         22    1    3    3    0    0 -0.43001294885E+02  0.12871187187E+02 -0.44099782269E+02  0.62925111184E+02  0.00000000000E+00 0.  1.
</event>
<event>
 7    1  0.6278987E-006  0.4209601E+02  0.7818608E-02  0.1526773E+00
          2   -1    0    0  502    0  0.00000000000E+00  0.00000000000E+00  0.70397004703E+03  0.70397004703E+03  0.00000000000E+00 0. -1.
          1   -1    0    0  501    0 -0.00000000000E+00 -0.00000000000E+00 -0.44730325980E+03  0.44730325980E+03  0.00000000000E+00 0. -1.
         25    2    1    2    0    0  0.13548680847E+02 -0.33084011682E+00  0.11796889476E+03  0.17241203925E+03  0.12500229974E+03 0.  0.
          2    1    1    2  501    0  0.19409711785E+02 -0.27374952794E+02 -0.41857975341E+03  0.41992277256E+03  0.00000000000E+00 0. -1.
          1    1    1    2  502    0 -0.32958392632E+02  0.27705792911E+02  0.55727764588E+03  0.55893849501E+03  0.00000000000E+00 0. -1.
         22    1    3    3    0    0 -0.20222881383E+02 -0.12857263862E+02 -0.19128227132E+02  0.30662081447E+02  0.00000000000E+00 0. -1.
         22    1    3    3    0    0  0.33771562230E+02  0.12526423745E+02  0.13709712189E+03  0.14174995780E+03  0.00000000000E+00 0. -1.
</event>
<event>
 7    1  0.6278987E-006  0.9332086E+02  0.7818608E-02  0.1429921E+00
          2   -1    0    0  502    0  0.00000000000E+00  0.00000000000E+00  0.74573229562E+03  0.74573229562E+03  0.00000000000E+00 0. -1.
          1   -1    0    0  501    0 -0.00000000000E+00 -0.00000000000E+00 -0.64441584757E+02  0.64441584757E+02  0.00000000000E+00 0. -1.
         25    2    1    2    0    0 -0.10657094684E+03  0.20274265141E+02  0.46223195610E+03  0.49096983644E+03  0.12499834608E+03 0.  0.
          2    1    1    2  501    0  0.20020186510E+02 -0.22440679027E+02 -0.37709262188E+02  0.48232565740E+02  0.00000000000E+00 0. -1.
          1    1    1    2  502    0  0.86550760332E+02  0.21664138855E+01  0.25676801696E+03  0.27097147819E+03  0.00000000000E+00 0. -1.
         22    1    3    3    0    0 -0.39913345007E+02 -0.36055933488E+02  0.31702090849E+03  0.32155149178E+03  0.00000000000E+00 0. -1.
         22    1    3    3    0    0 -0.66657601835E+02  0.56330198630E+02  0.14521104761E+03  0.16941834466E+03  0.00000000000E+00 0. -1.
</event>
<event>
 7    1  0.6278987E-006  0.1177962E+03  0.7818608E-02  0.1314720E+00
          2   -1    0    0  502    0  0.00000000000E+00  0.00000000000E+00  0.19014724510E+03  0.19014724510E+03  0.00000000000E+00 0. -1.
          1   -1    0    0  501    0 -0.00000000000E+00 -0.00000000000E+00 -0.50094407386E+03  0.50094407386E+03  0.00000000000E+00 0. -1.
         25    2    1    2    0    0 -0.98842538453E+02 -0.68541722365E+02 -0.37095839151E+02  0.17739458499E+03  0.12499968955E+03 0.  0.
          2    1    1    2  501    0 -0.21351794263E+02  0.57919301801E+02 -0.36006059176E+03  0.36531380261E+03  0.00000000000E+00 0. -1.
          1    1    1    2  502    0  0.12019433272E+03  0.10622420565E+02  0.86359602155E+02  0.14838293136E+03  0.00000000000E+00 0. -1.
         22    1    3    3    0    0  0.27191262780E+02 -0.29887016306E+02  0.14993760577E+00  0.40405705000E+02  0.00000000000E+00 0. -1.
         22    1    3    3    0    0 -0.12603380123E+03 -0.38654706059E+02 -0.37245776757E+02  0.13698887999E+03  0.00000000000E+00 0. -1.
</event>
<event>
 7    1  0.6278987E-006  0.7479262E+02  0.7818608E-02  0.1360655E+00
          2   -1    0    0  502    0  0.00000000000E+00  0.00000000000E+00  0.13929537850E+04  0.13929537850E+04  0.00000000000E+00 0. -1.
          1   -1    0    0  501    0 -0.00000000000E+00 -0.00000000000E+00 -0.11399412935E+04  0.11399412935E+04  0.00000000000E+00 0. -1.
         25    2    1    2    0    0 -0.11651718676E+03 -0.92431569710E+01  0.86163572018E+02  0.19160169893E+03  0.12500143652E+03 0.  0.
          2    1    1    2  501    0  0.60810459305E+02  0.43133757753E+02 -0.10850946374E+04  0.10876528881E+04  0.00000000000E+00 0. -1.
          1    1    1    2  502    0  0.55706727452E+02 -0.33890600782E+02  0.12519435568E+04  0.12536404915E+04  0.00000000000E+00 0. -1.
         22    1    3    3    0    0 -0.20015678266E+02  0.38929161559E+02  0.69972333754E+02  0.82536261650E+02  0.00000000000E+00 0. -1.
         22    1    3    3    0    0 -0.96501508491E+02 -0.48172318530E+02  0.16191238264E+02  0.10906543729E+03  0.00000000000E+00 0. -1.
</event>
<event>
 7    1  0.6278987E-006  0.5090669E+02  0.7818608E-02  0.1466885E+00
          2   -1    0    0  502    0  0.00000000000E+00  0.00000000000E+00  0.95400386256E+03  0.95400386256E+03  0.00000000000E+00 0. -1.
          1   -1    0    0  501    0 -0.00000000000E+00 -0.00000000000E+00 -0.19243063744E+04  0.19243063744E+04  0.00000000000E+00 0. -1.
         25    2    1    2    0    0 -0.74220565664E+01 -0.12810999703E+02  0.99250800924E+02  0.16029619306E+03  0.12499975755E+03 0.  0.
          2    1    1    2  501    0 -0.41772100061E+02 -0.39567786068E+01 -0.18927316160E+04  0.18931966445E+04  0.00000000000E+00 0. -1.
          1    1    1    2  502    0  0.49194156627E+02  0.16767778310E+02  0.82317830325E+03  0.82481739941E+03  0.00000000000E+00 0. -1.
         22    1    3    3    0    0  0.43708332777E+02 -0.11178437437E+02 -0.37709295817E+01  0.45272461029E+02  0.00000000000E+00 0. -1.
         22    1    3    3    0    0 -0.51130389344E+02 -0.16325622662E+01  0.10302173051E+03  0.11502373203E+03  0.00000000000E+00 0. -1.
</event>
<event>
 7    1  0.6278987E-006  0.6394208E+02  0.7818608E-02  0.1471782E+00
          2   -1    0    0  502    0  0.00000000000E+00  0.00000000000E+00  0.69528488416E+02  0.69528488416E+02  0.00000000000E+00 0. -1.
          1   -1    0    0  501    0 -0.00000000000E+00 -0.00000000000E+00 -0.76742221389E+03  0.76742221389E+03  0.00000000000E+00 0. -1.
         25    2    1    2    0    0 -0.52127506421E+01 -0.41625385778E+02 -0.27126538873E+03  0.30161176658E+03  0.12499960442E+03 0.  0.
          2    1    1    2  501    0 -0.15987524729E+02  0.65931540931E+02 -0.47355906013E+03  0.47839393022E+03  0.00000000000E+00 0. -1.
          1    1    1    2  502    0  0.21200275371E+02 -0.24306155153E+02  0.46930723391E+02  0.56945005506E+02  0.00000000000E+00 0. -1.
         22    1    3    3    0    0  0.29096912990E+01 -0.85789842900E+02 -0.19592351706E+03  0.21390275357E+03  0.00000000000E+00 0.  1.
         22    1    3    3    0    0 -0.81224419411E+01  0.44164457122E+02 -0.75341871665E+02  0.87709013002E+02  0.00000000000E+00 0.  1.
</event>
<event>
 7    1  0.6278987E-006  0.2398713E+03  0.7818608E-02  0.1147786E+00
          2   -1    0    0  502    0  0.00000000000E+00  0.00000000000E+00  0.71179335908E+03  0.71179335908E+03  0.00000000000E+00 0. -1.
          1   -1    0    0  501    0 -0.00000000000E+00 -0.00000000000E+00 -0.46514402495E+03  0.46514402495E+03  0.00000000000E+00 0. -1.
         25    2    1    2    0    0 -0.17354782566E+03 -0.19699285452E+02  0.83324454350E+02  0.23037701303E+03  0.12499477510E+03 0.  0.
          2    1    1    2  501    0  0.22944349558E+03 -0.14155500980E+03 -0.32908294613E+03  0.42541476690E+03  0.00000000000E+00 0. -1.
          1    1    1    2  502    0 -0.55895669922E+02  0.16125429525E+03  0.49240782591E+03  0.52114560410E+03  0.00000000000E+00 0. -1.
         22    1    3    3    0    0 -0.67071058433E+02 -0.10330539544E+02 -0.30352061664E+02  0.74340396649E+02  0.00000000000E+00 0.  1.
         22    1    3    3    0    0 -0.10647676722E+03 -0.93687459085E+01  0.11367651601E+03  0.15603661638E+03  0.00000000000E+00 0.  1.
</event>
<event>
 7    1  0.6278987E-006  0.1107016E+03  0.7818608E-02  0.1384296E+00
          2   -1    0    0  502    0  0.00000000000E+00  0.00000000000E+00  0.23954931530E+04  0.23954931530E+04  0.00000000000E+00 0. -1.
          1   -1    0    0  501    0 -0.00000000000E+00 -0.00000000000E+00 -0.88457099961E+03  0.88457099961E+03  0.00000000000E+00 0. -1.
         25    2    1    2    0    0  0.49203636928E+02  0.91030294275E+02  0.44608054324E+03  0.47467983803E+03  0.12500234082E+03 0.  0.
          2    1    1    2  501    0  0.33053685490E+02 -0.14884058884E+02 -0.86826960977E+03  0.86902600455E+03  0.00000000000E+00 0. -1.
          1    1    1    2  502    0 -0.82257322418E+02 -0.76146235391E+02  0.19331112199E+04  0.19363583100E+04  0.00000000000E+00 0. -1.
         22    1    3    3    0    0 -0.41173283550E+02  0.20353120441E+02  0.15966008251E+03  0.16613497746E+03  0.00000000000E+00 0. -1.
         22    1    3    3    0    0  0.90376920477E+02  0.70677173834E+02  0.28642046073E+03  0.30854486056E+03  0.00000000000E+00 0. -1.
</event>
<event>
 7    1  0.6278987E-006  0.1538305E+03  0.7818608E-02  0.1358417E+00
          2   -1    0    0  502    0  0.00000000000E+00  0.00000000000E+00  0.20252195350E+04  0.20252195350E+04  0.00000000000E+00 0. -1.
          1   -1    0    0  501    0 -0.00000000000E+00 -0.00000000000E+00 -0.15045335833E+03  0.15045335833E+03  0.00000000000E+00 0. -1.
         25    2    1    2    0    0  0.13547047874E+03 -0.88894601649E+02  0.40932545680E+03  0.45763174108E+03  0.12499992017E+03 0.  0.
          2    1    1    2  501    0 -0.14214479323E+03  0.57285901689E+02 -0.79579066185E+02  0.17268365455E+03  0.00000000000E+00 0. -1.
          1    1    1    2  502    0  0.66743144805E+01  0.31608699960E+02  0.15450197861E+04  0.15453574977E+04  0.00000000000E+00 0. -1.
         22    1    3    3    0    0 -0.13618685277E+02  0.14825990299E+02  0.21891294436E+02  0.29740668269E+02  0.00000000000E+00 0. -1.
         22    1    3    3    0    0  0.14908916402E+03 -0.10372059195E+03  0.38743416237E+03  0.42789107281E+03  0.00000000000E+00 0. -1.
</event>
<event>
 7    1  0.6278987E-006  0.7068388E+02  0.7818608E-02  0.1384744E+00
          2   -1    0    0  502    0  0.00000000000E+00  0.00000000000E+00  0.17981376882E+04  0.17981376882E+04  0.00000000000E+00 0. -1.
          1   -1    0    0  501    0 -0.00000000000E+00 -0.00000000000E+00 -0.24327873673E+04  0.24327873673E+04  0.00000000000E+00 0. -1.
         25    2    1    2    0    0  0.39880851073E+00  0.36592641664E+02 -0.33525068257E+02  0.13449174183E+03  0.12499967179E+03 0.  0.
          2    1    1    2  501    0  0.55620996170E+02 -0.44446071086E+02 -0.23477814228E+04  0.23488607361E+04  0.00000000000E+00 0. -1.
          1    1    1    2  502    0 -0.56019804681E+02  0.78534294213E+01  0.17466568120E+04  0.17475725775E+04  0.00000000000E+00 0. -1.
         22    1    3    3    0    0  0.55389656689E+02 -0.11455387299E+02 -0.79487467345E+01  0.57117620231E+02  0.00000000000E+00 0.  1.
         22    1    3    3    0    0 -0.54990848178E+02  0.48048028964E+02 -0.25576321523E+02  0.77374121599E+02  0.00000000000E+00 0.  1.
</event>
<event>
 7    1  0.6278987E-006  0.3675875E+02  0.7818608E-02  0.1598723E+00
          2   -1    0    0  502    0  0.00000000000E+00  0.00000000000E+00  0.75118116431E+03  0.75118116431E+03  0.00000000000E+00 0. -1.
          1   -1    0    0  501    0 -0.00000000000E+00 -0.00000000000E+00 -0.57745262031E+02  0.57745262031E+02  0.00000000000E+00 0. -1.
         25    2    1    2    0    0 -0.55973618702E+02 -0.12613440617E+02  0.29305867691E+03  0.32372982170E+03  0.12500185787E+03 0.  0.
          2    1    1    2  501    0  0.32000554090E+02  0.17106839544E+02 -0.34243011441E+02  0.49892517013E+02  0.00000000000E+00 0. -1.
          1    1    1    2  502    0  0.23973064611E+02 -0.44933989268E+01  0.43462023680E+03  0.43530408762E+03  0.00000000000E+00 0. -1.
         22    1    3    3    0    0 -0.51704493421E+02  0.29768909009E+02  0.26745862003E+03  0.27403221710E+03  0.00000000000E+00 0. -1.
         22    1    3    3    0    0 -0.42691252806E+01 -0.42382349626E+02  0.25600056885E+02  0.49697604600E+02  0.00000000000E+00 0. -1.
</event>
<event>
 7    1  0.6278987E-006  0.9464008E+02  0.7818608E-02  0.1373037E+00
          2   -1    0    0  502    0  0.00000000000E+00  0.00000000000E+00  0.30657291079E+03  0.30657291079E+03  0.00000000000E+00 0. -1.
          1   -1    0    0  501    0 -0.00000000000E+00 -0.00000000000E+00 -0.17752001727E+04  0.17752001727E+04  0.00000000000E+00 0. -1.
         25    2    1    2    0    0  0.89044418999E+02 -0.51429635563E+02 -0.98448309879E+03  0.99770002057E+03  0.12499777309E+03 0.  0.
          2    1    1    2  501    0  0.54702430962E+01  0.46165697521E+02 -0.77592738893E+03  0.77731879437E+03  0.00000000000E+00 0. -1.
          1    1    1    2  502    0 -0.94514662095E+02  0.52639380418E+01  0.29178322582E+03  0.30675426854E+03  0.00000000000E+00 0. -1.
         22    1    3    3    0    0  0.89246453379E+02 -0.59915591318E+02 -0.43271591209E+03  0.44586754547E+03  0.00000000000E+00 0.  1.
         22    1    3    3    0    0 -0.20203438046E+00  0.84859557555E+01 -0.55176718670E+03  0.55183247510E+03  0.00000000000E+00 0.  1.
</event>
<event>
 7    1  0.6278987E-006  0.3679759E+02  0.7818608E-02  0.1560599E+00
          2   -1    0    0  502    0  0.00000000000E+00  0.00000000000E+00  0.55737720524E+03  0.55737720524E+03  0.00000000000E+00 0. -1.
          1   -1    0    0  501    0 -0.00000000000E+00 -0.00000000000E+00 -0.15144448323E+04  0.15144448323E+04  0.00000000000E+00 0. -1.
         25    2    1    2    0    0 -0.21207469905E+02 -0.12597128431E+02 -0.33817142273E+02  0.13182208017E+03  0.12500006914E+03 0.  0.
          2    1    1    2  501    0 -0.12285001548E+02  0.28282688696E+02 -0.14307862574E+04  0.14311184948E+04  0.00000000000E+00 0. -1.
          1    1    1    2  502    0  0.33492471453E+02 -0.15685560265E+02  0.50753577263E+03  0.50888146257E+03  0.00000000000E+00 0. -1.
         22    1    3    3    0    0 -0.68683109351E+02 -0.16127978700E+02 -0.43987976136E+02  0.83140984187E+02  0.00000000000E+00 0. -1.
         22    1    3    3    0    0  0.47475639447E+02  0.35308502689E+01  0.10170833863E+02  0.48681095982E+02  0.00000000000E+00 0. -1.
</event>
<event>
 7    1  0.6278987E-006  0.1546703E+03  0.7818608E-02  0.1249753E+00
          2   -1    0    0  502    0  0.00000000000E+00  0.00000000000E+00  0.37947628657E+04  0.37947628657E+04  0.00000000000E+00 0. -1.
          1   -1    0    0  501    0 -0.00000000000E+00 -0.00000000000E+00 -0.10672657722E+03  0.10672657722E+03  0.00000000000E+00 0. -1.
         25    2    1    2    0    0  0.12478607328E+03  0.16282213355E+03  0.63744519984E+03  0.68121268986E+03  0.12502693618E+03 0.  0.
          2    1    1    2  501    0 -0.13039182611E+03 -0.75924497759E+02 -0.16648258653E+02  0.15180158824E+03  0.00000000000E+00 0. -1.
          1    1    1    2  502    0  0.56057528325E+01 -0.86897635793E+02  0.30672393473E+04  0.30684751648E+04  0.00000000000E+00 0. -1.
         22    1    3    3    0    0  0.20150388611E+02  0.11937447302E+03  0.25393240044E+03  0.28131471160E+03  0.00000000000E+00 0. -1.
         22    1    3    3    0    0  0.10463568467E+03  0.43447660528E+02  0.38351279940E+03  0.39989797826E+03  0.00000000000E+00 0. -1.
</event>
<event>
 7    1  0.6278987E-006  0.8888461E+02  0.7818608E-02  0.1391262E+00
          2   -1    0    0  502    0  0.00000000000E+00  0.00000000000E+00  0.21920541509E+03  0.21920541509E+03  0.00000000000E+00 0. -1.
          1   -1    0    0  501    0 -0.00000000000E+00 -0.00000000000E+00 -0.12643046562E+04  0.12643046562E+04  0.00000000000E+00 0. -1.
         25    2    1    2    0    0  0.49941614773E+02  0.56965771133E+02 -0.80595950423E+03  0.81910531855E+03  0.12499414563E+03 0.  0.
          2    1    1    2  501    0  0.33713847259E+02 -0.26175872949E+02 -0.44135454511E+03  0.44341361539E+03  0.00000000000E+00 0. -1.
          1    1    1    2  502    0 -0.83655462032E+02 -0.30789898183E+02  0.20221480819E+03  0.22099113740E+03  0.00000000000E+00 0. -1.
         22    1    3    3    0    0 -0.23632012263E+02  0.26408645664E+02 -0.66381629546E+02  0.75248982123E+02  0.00000000000E+00 0. -1.
         22    1    3    3    0    0  0.73573627036E+02  0.30557125469E+02 -0.73957787469E+03  0.74385633642E+03  0.00000000000E+00 0. -1.
</event>
<event>
 7    1  0.6278987E-006  0.3350954E+03  0.7818608E-02  0.1231700E+00
          2   -1    0    0  502    0  0.00000000000E+00  0.00000000000E+00  0.16606793584E+04  0.16606793584E+04  0.00000000000E+00 0. -1.
          1   -1    0    0  501    0 -0.00000000000E+00 -0.00000000000E+00 -0.16849696254E+04  0.16849696254E+04  0.00000000000E+00 0. -1.
         25    2    1    2    0    0  0.33056559183E+03 -0.58637166928E+02 -0.80338799741E+03  0.87964137018E+03  0.12499895159E+03 0.  0.
          2    1    1    2  501    0 -0.33599566237E+03  0.10673918031E+02 -0.80957853775E+03  0.87659821266E+03  0.00000000000E+00 0. -1.
          1    1    1    2  502    0  0.54300705317E+01  0.47963248898E+02  0.15886762681E+04  0.15894094010E+04  0.00000000000E+00 0. -1.
         22    1    3    3    0    0  0.31281548037E+03 -0.64763989336E+02 -0.79880511322E+03  0.86031244788E+03  0.00000000000E+00 0.  1.
         22    1    3    3    0    0  0.17750111461E+02  0.61268224073E+01 -0.45828841922E+01  0.19328922298E+02  0.00000000000E+00 0.  1.
</event>
<event>
 7    1  0.6278987E-006  0.7515529E+02  0.7818608E-02  0.1385132E+00
          2   -1    0    0  502    0  0.00000000000E+00  0.00000000000E+00  0.14838872592E+03  0.14838872592E+03  0.00000000000E+00 0. -1.
          1   -1    0    0  501    0 -0.00000000000E+00 -0.00000000000E+00 -0.21574281866E+03  0.21574281866E+03  0.00000000000E+00 0. -1.
         25    2    1    2    0    0  0.88164572089E+02  0.29203286641E+02 -0.11858944902E+03  0.19573947085E+03  0.12499863722E+03 0.  0.
          2    1    1    2  501    0 -0.67003420980E+02  0.19427404833E+02 -0.26213025434E+02  0.74525198316E+02  0.00000000000E+00 0. -1.
          1    1    1    2  502    0 -0.21161151109E+02 -0.48630691473E+02  0.77448381711E+02  0.93866875409E+02  0.00000000000E+00 0. -1.
         22    1    3    3    0    0  0.22622679498E+02 -0.20221994806E+02  0.18799270633E+02  0.35694919497E+02  0.00000000000E+00 0. -1.
         22    1    3    3    0    0  0.65541892591E+02  0.49425281447E+02 -0.13738871965E+03  0.16004455135E+03  0.00000000000E+00 0. -1.
</event>
<event>
 7    1  0.6278987E-006  0.1516413E+03  0.7818608E-02  0.1258211E+00
          2   -1    0    0  502    0  0.00000000000E+00  0.00000000000E+00  0.20704263112E+04  0.20704263112E+04  0.00000000000E+00 0. -1.
          1   -1    0    0  501    0 -0.00000000000E+00 -0.00000000000E+00 -0.55537539419E+03  0.55537539419E+03  0.00000000000E+00 0. -1.
         25    2    1    2    0    0  0.20012596293E+03  0.53032146171E+02  0.50043296819E+03  0.55580675666E+03  0.12500074211E+03 0.  0.
          2    1    1    2  501    0 -0.77482543080E+02  0.25806582512E+02 -0.52105514190E+03  0.52741632994E+03  0.00000000000E+00 0. -1.
          1    1    1    2  502    0 -0.12264341985E+03 -0.78838728683E+02  0.15356730907E+04  0.15425786188E+04  0.00000000000E+00 0. -1.
         22    1    3    3    0    0  0.19877171671E+03  0.76580991724E+02  0.40617868965E+03  0.45864580188E+03  0.00000000000E+00 0. -1.
         22    1    3    3    0    0  0.13542462138E+01 -0.23548845553E+02  0.94254278537E+02  0.97160954772E+02  0.00000000000E+00 0. -1.
</event>
<event>
 7    1  0.6278987E-006  0.4208990E+02  0.7818608E-02  0.1512749E+00
          2   -1    0    0  502    0  0.00000000000E+00  0.00000000000E+00  0.14875228916E+04  0.14875228916E+04  0.00000000000E+00 0. -1.
          1   -1    0    0  501    0 -0.00000000000E+00 -0.00000000000E+00 -0.34081272385E+03  0.34081272385E+03  0.00000000000E+00 0. -1.
         25    2    1    2    0    0 -0.34311280461E+01 -0.25933907313E+02 -0.19092588487E+03  0.22970036530E+03  0.12500089647E+03 0.  0.
          2    1    1    2  501    0  0.36862006040E+02  0.29301690516E+00 -0.12758748659E+03  0.13280609957E+03  0.00000000000E+00 0. -1.
          1    1    1    2  502    0 -0.33430877994E+02  0.25640890408E+02  0.14652235392E+04  0.14658291506E+04  0.00000000000E+00 0. -1.
         22    1    3    3    0    0  0.32725048930E+02 -0.63426298855E+02 -0.80346835006E+02  0.10746831212E+03  0.00000000000E+00 0. -1.
         22    1    3    3    0    0 -0.36156176976E+02  0.37492391542E+02 -0.11057904987E+03  0.12223205319E+03  0.00000000000E+00 0. -1.
</event>
<event>
 7    1  0.6278987E-006  0.9795574E+02  0.7818608E-02  0.1288748E+00
          2   -1    0    0  502    0  0.00000000000E+00  0.00000000000E+00  0.15938182829E+04  0.15938182829E+04  0.00000000000E+00 0. -1.
          1   -1    0    0  501    0 -0.00000000000E+00 -0.00000000000E+00 -0.51622142514E+02  0.51622142514E+02  0.00000000000E+00 0. -1.
         25    2    1    2    0    0  0.23751845614E+01 -0.43418855649E+02  0.11925679662E+03  0.17815150758E+03  0.12499975034E+03 0.  0.
          2    1    1    2  501    0 -0.94163347947E+02 -0.41088640704E+01  0.89912907838E+02  0.13026108343E+03  0.00000000000E+00 0. -1.
          1    1    1    2  502    0  0.91788163386E+02  0.47527719719E+02  0.13330264359E+04  0.13370278344E+04  0.00000000000E+00 0. -1.
         22    1    3    3    0    0 -0.50005925533E+02 -0.43781918814E+02  0.26353055554E+02  0.71497779969E+02  0.00000000000E+00 0.  1.
         22    1    3    3    0    0  0.52381110095E+02  0.36306316539E+00  0.92903741066E+02  0.10665372761E+03  0.00000000000E+00 0.  1.
</event>
<event>
 7    1  0.6278987E-006  0.3614243E+02  0.7818608E-02  0.1602270E+00
          2   -1    0    0  502    0  0.00000000000E+00  0.00000000000E+00  0.82751356417E+03  0.82751356417E+03  0.00000000000E+00 0. -1.
          1   -1    0    0  501    0 -0.00000000000E+00 -0.00000000000E+00 -0.11549291712E+03  0.11549291712E+03  0.00000000000E+00 0. -1.
         25    2    1    2    0    0 -0.65619632448E+01  0.10410023120E+02  0.47338457350E+02  0.13422940938E+03  0.12500070742E+03 0.  0.
          2    1    1    2  501    0 -0.17121695241E+02  0.17219526525E+02 -0.69537817623E+02  0.73655771134E+02  0.00000000000E+00 0. -1.
          1    1    1    2  502    0  0.23683658486E+02 -0.27629549645E+02  0.73422000732E+03  0.73512130077E+03  0.00000000000E+00 0. -1.
         22    1    3    3    0    0  0.21462401283E+02  0.60148691316E+02  0.68291338548E+01  0.64227227910E+02  0.00000000000E+00 0.  1.
         22    1    3    3    0    0 -0.28024364528E+02 -0.49738668195E+02  0.40509323495E+02  0.70002181474E+02  0.00000000000E+00 0.  1.
</event>
<event>
 7    1  0.6278987E-006  0.1086309E+03  0.7818608E-02  0.1362858E+00
          2   -1    0    0  502    0  0.00000000000E+00  0.00000000000E+00  0.37466753375E+03  0.37466753375E+03  0.00000000000E+00 0. -1.
          1   -1    0    0  501    0 -0.00000000000E+00 -0.00000000000E+00 -0.27625868504E+03  0.27625868504E+03  0.00000000000E+00 0. -1.
         25    2    1    2    0    0 -0.82266664197E+01  0.13771414038E+03  0.61676048521E+02  0.19611483300E+03  0.12499692100E+03 0.  0.
          2    1    1    2  501    0 -0.22320071187E+02 -0.38003478664E+02 -0.19541105004E+03  0.20031956581E+03  0.00000000000E+00 0. -1.
          1    1    1    2  502    0  0.30546737607E+02 -0.99710661721E+02  0.23214385023E+03  0.25449181999E+03  0.00000000000E+00 0. -1.
         22    1    3    3    0    0 -0.24360717761E+02 -0.59626630908E+01 -0.18153195766E+02  0.30960239622E+02  0.00000000000E+00 0.  1.
         22    1    3    3    0    0  0.16134051341E+02  0.14367680348E+03  0.79829244287E+02  0.16515459338E+03  0.00000000000E+00 0.  1.
</event>
<event>
 7    1  0.6278987E-006  0.1675819E+03  0.7818608E-02  0.1229399E+00
          2   -1    0    0  502    0  0.00000000000E+00  0.00000000000E+00  0.22909417507E+04  0.22909417507E+04  0.00000000000E+00 0. -1.
          1   -1    0    0  501    0 -0.00000000000E+00 -0.00000000000E+00 -0.12170679273E+04  0.12170679273E+04  0.00000000000E+00 0. -1.
         25    2    1    2    0    0 -0.23218343535E+03  0.64427901482E+01  0.13741859152E+03  0.29742301462E+03  0.12500369248E+03 0.  0.
          2    1    1    2  501    0  0.15621166131E+03  0.56780185008E+02 -0.11298041418E+04  0.11419647417E+04  0.00000000000E+00 0. -1.
          1    1    1    2  502    0  0.75971774044E+02 -0.63222975156E+02  0.20662593737E+04  0.20686219216E+04  0.00000000000E+00 0. -1.
         22    1    3    3    0    0 -0.83547343607E+02  0.31418762619E+00 -0.14500998421E+02  0.84797029976E+02  0.00000000000E+00 0. -1.
         22    1    3    3    0    0 -0.14863609174E+03  0.61286025220E+01  0.15191958994E+03  0.21262598464E+03  0.00000000000E+00 0. -1.
</event>
<event>
 7    1  0.6278987E-006  0.7682802E+02  0.7818608E-02  0.1359790E+00
          2   -1    0    0  502    0  0.00000000000E+00  0.00000000000E+00  0.39872282192E+03  0.39872282192E+03  0.00000000000E+00 0. -1.
          1   -1    0    0  501    0 -0.00000000000E+00 -0.00000000000E+00 -0.37598468348E+03  0.37598468348E+03  0.00000000000E+00 0. -1.
         25    2    1    2    0    0  0.77567809856E+02 -0.10136383315E+03 -0.17157661782E+03  0.24771319220E+03  0.12502758899E+03 0.  0.
          2    1    1    2  501    0 -0.26871338699E+02  0.62397821852E+02 -0.15638950110E+03  0.17050874778E+03  0.00000000000E+00 0. -1.
          1    1    1    2  502    0 -0.50696471157E+02  0.38966011303E+02  0.35070425736E+03  0.35648556542E+03  0.00000000000E+00 0. -1.
         22    1    3    3    0    0 -0.77656059099E+01 -0.31899675111E+02 -0.12322923052E+03  0.12752778976E+03  0.00000000000E+00 0.  1.
         22    1    3    3    0    0  0.85333415766E+02 -0.69464158044E+02 -0.48347387298E+02  0.12018540243E+03  0.00000000000E+00 0.  1.
</event>
<event>
 7    1  0.6278987E-006  0.4625632E+02  0.7818608E-02  0.1486766E+00
          2   -1    0    0  502    0  0.00000000000E+00  0.00000000000E+00  0.25470764914E+04  0.25470764914E+04  0.00000000000E+00 0. -1.
          1   -1    0    0  501    0 -0.00000000000E+00 -0.00000000000E+00 -0.23757465373E+02  0.23757465373E+02  0.00000000000E+00 0. -1.
         25    2    1    2    0    0  0.76249714181E+01  0.24858358316E+02  0.21341101670E+03  0.24868567462E+03  0.12499689813E+03 0.  0.
          2    1    1    2  501    0 -0.42235204928E+02 -0.45114840549E+02  0.15497942215E+03  0.16684658421E+03  0.00000000000E+00 0. -1.
          1    1    1    2  502    0  0.34610233510E+02  0.20256482233E+02  0.21549285871E+04  0.21553016979E+04  0.00000000000E+00 0. -1.
         22    1    3    3    0    0  0.24831975184E+02  0.65509545489E+02  0.18051591430E+03  0.19363399200E+03  0.00000000000E+00 0.  1.
         22    1    3    3    0    0 -0.17207003766E+02 -0.40651187173E+02  0.32895102405E+02  0.55051682621E+02  0.00000000000E+00 0.  1.
</event>
<event>
 7    1  0.6278987E-006  0.5430470E+02  0.7818608E-02  0.1438291E+00
          2   -1    0    0  502    0  0.00000000000E+00  0.00000000000E+00  0.75895812064E+03  0.75895812064E+03  0.00000000000E+00 0. -1.
          1   -1    0    0  501    0 -0.00000000000E+00 -0.00000000000E+00 -0.48218673563E+03  0.48218673563E+03  0.00000000000E+00 0. -1.
         25    2    1    2    0    0 -0.40349411458E+02  0.91256126918E+02 -0.68134168515E+02  0.17383785485E+03  0.12498631587E+03 0.  0.
          2    1    1    2  501    0  0.13274362113E+02 -0.50992340093E+02 -0.35843879619E+03  0.36229104054E+03  0.00000000000E+00 0. -1.
          1    1    1    2  502    0  0.27075049345E+02 -0.40263786825E+02  0.70334434971E+03  0.70501596088E+03  0.00000000000E+00 0. -1.
         22    1    3    3    0    0 -0.56883103331E+02 -0.57832652864E+01 -0.44890262959E+02  0.72692979788E+02  0.00000000000E+00 0.  1.
         22    1    3    3    0    0  0.16533691873E+02  0.97039392204E+02 -0.23243905556E+02  0.10114487506E+03  0.00000000000E+00 0.  1.
</event>
<event>
 7    1  0.6278987E-006  0.1610289E+03  0.7818608E-02  0.1267437E+00
          2   -1    0    0  502    0  0.00000000000E+00  0.00000000000E+00  0.66354188832E+03  0.66354188832E+03  0.00000000000E+00 0. -1.
          1   -1    0    0  501    0 -0.00000000000E+00 -0.00000000000E+00 -0.26052873779E+03  0.26052873779E+03  0.00000000000E+00 0. -1.
         25    2    1    2    0    0 -0.91267501396E+02 -0.15794254659E+03  0.32406297055E+03  0.39232837939E+03  0.12501657315E+03 0.  0.
          2    1    1    2  501    0  0.70003744706E+02  0.60988793085E+01 -0.20079444268E+03  0.21273487916E+03  0.00000000000E+00 0. -1.
          1    1    1    2  502    0  0.21263756690E+02  0.15184366728E+03  0.27974462266E+03  0.31900736755E+03  0.00000000000E+00 0. -1.
         22    1    3    3    0    0 -0.78900701773E+02 -0.17674102387E+03  0.31099695760E+03  0.36630836449E+03  0.00000000000E+00 0. -1.
         22    1    3    3    0    0 -0.12366799623E+02  0.18798477285E+02  0.13066012946E+02  0.26020014901E+02  0.00000000000E+00 0. -1.
</event>
<event>
 7    1  0.6278987E-006  0.7098736E+02  0.7818608E-02  0.1392020E+00
          2   -1    0    0  502    0  0.00000000000E+00  0.00000000000E+00  0.23904533067E+04  0.23904533067E+04  0.00000000000E+00 0. -1.
          1   -1    0    0  501    0 -0.00000000000E+00 -0.00000000000E+00 -0.40880183719E+02  0.40880183719E+02  0.00000000000E+00 0. -1.
         25    2    1    2    0    0 -0.86210674674E+02 -0.63366169715E+02  0.14749474175E+04  0.14840968015E+04  0.12500352015E+03 0.  0.
          2    1    1    2  501    0  0.25010973088E+02  0.46863334483E+02 -0.15124872156E+02  0.55231174634E+02  0.00000000000E+00 0. -1.
          1    1    1    2  502    0  0.61199701586E+02  0.16502835231E+02  0.88975057768E+03  0.89200551429E+03  0.00000000000E+00 0. -1.
         22    1    3    3    0    0 -0.63542395540E+02 -0.64353837350E+02  0.45520450720E+03  0.46410149298E+03  0.00000000000E+00 0.  1.
         22    1    3    3    0    0 -0.22668279134E+02  0.98766763586E+00  0.10197429103E+04  0.10199953086E+04  0.00000000000E+00 0.  1.
</event>
<event>
 7    1  0.6278987E-006  0.5483446E+02  0.7818608E-02  0.1491596E+00
          2   -1    0    0  502    0  0.00000000000E+00  0.00000000000E+00  0.20167424643E+03  0.20167424643E+03  0.00000000000E+00 0. -1.
          1   -1    0    0  501    0 -0.00000000000E+00 -0.00000000000E+00 -0.71514529988E+02  0.71514529988E+02  0.00000000000E+00 0. -1.
         25    2    1    2    0    0  0.49160209009E+02  0.47921990016E+02  0.30170114074E+02  0.14576743555E+03  0.12499866482E+03 0.  0.
          2    1    1    2  501    0 -0.16826133407E+02 -0.42989563319E+02  0.61805566868E+02  0.77143693298E+02  0.00000000000E+00 0. -1.
          1    1    1    2  502    0 -0.32334075602E+02 -0.49324266973E+01  0.38184035504E+02  0.50277647574E+02  0.00000000000E+00 0. -1.
         22    1    3    3    0    0  0.26347733355E+02  0.23599054410E+02 -0.48669708407E+02  0.60165263553E+02  0.00000000000E+00 0.  1.
         22    1    3    3    0    0  0.22812475654E+02  0.24322935606E+02  0.78839822481E+02  0.85602171998E+02  0.00000000000E+00 0.  1.
</event>
<event>
 7    1  0.6278987E-006  0.5877706E+02  0.7818608E-02  0.1404510E+00
          2   -1    0    0  502    0  0.00000000000E+00  0.00000000000E+00  0.28021891614E+04  0.28021891614E+04  0.00000000000E+00 0. -1.
          1   -1    0    0  501    0 -0.00000000000E+00 -0.00000000000E+00 -0.68228074416E+03  0.68228074416E+03  0.00000000000E+00 0. -1.
         25    2    1    2    0    0  0.62102547812E+01 -0.32899035238E+02  0.12990492778E+03  0.18338483006E+03  0.12503516245E+03 0.  0.
          2    1    1    2  501    0 -0.58657815529E+02  0.79042887552E+01 -0.65388500013E+03  0.65655830700E+03  0.00000000000E+00 0. -1.
          1    1    1    2  502    0  0.52447560747E+02  0.24994746483E+02  0.26438884896E+04  0.26445267685E+04  0.00000000000E+00 0. -1.
         22    1    3    3    0    0  0.21599950898E+02 -0.72730377806E+02  0.11574935425E+03  0.13839862262E+03  0.00000000000E+00 0.  1.
         22    1    3    3    0    0 -0.15389696116E+02  0.39831342568E+02  0.14155573532E+02  0.44986207435E+02  0.00000000000E+00 0.  1.
</event>
<event>
 7    1  0.6278987E-006  0.6569854E+02  0.7818608E-02  0.1420547E+00
          2   -1    0    0  502    0  0.00000000000E+00  0.00000000000E+00  0.41764317364E+04  0.41764317364E+04  0.00000000000E+00 0. -1.
          1   -1    0    0  501    0 -0.00000000000E+00 -0.00000000000E+00 -0.28651787613E+03  0.28651787613E+03  0.00000000000E+00 0. -1.
         25    2    1    2    0    0  0.47775628370E+02  0.92240084430E+02  0.11483850984E+04  0.11598280312E+04  0.12498793556E+03 0.  0.
          2    1    1    2  501    0 -0.34795530072E+02 -0.29911957888E+02 -0.27858414292E+03  0.28233770352E+03  0.00000000000E+00 0. -1.
          1    1    1    2  502    0 -0.12980098298E+02 -0.62328126541E+02  0.30201129048E+04  0.30207838777E+04  0.00000000000E+00 0. -1.
         22    1    3    3    0    0  0.88312299646E+02  0.43216726527E+02  0.64821879396E+03  0.65563278789E+03  0.00000000000E+00 0.  1.
         22    1    3    3    0    0 -0.40536671276E+02  0.49023357902E+02  0.50016630441E+03  0.50419524334E+03  0.00000000000E+00 0.  1.
</event>
<event>
 7    1  0.6278987E-006  0.8194628E+02  0.7818608E-02  0.1360373E+00
          2   -1    0    0  502    0  0.00000000000E+00  0.00000000000E+00  0.77111788765E+03  0.77111788765E+03  0.00000000000E+00 0. -1.
          1   -1    0    0  501    0 -0.00000000000E+00 -0.00000000000E+00 -0.63933010369E+02  0.63933010369E+02  0.00000000000E+00 0. -1.
         25    2    1    2    0    0 -0.50096035552E+02  0.26442849673E+02  0.80353540197E+02  0.15902740846E+03  0.12499675253E+03 0.  0.
          2    1    1    2  501    0  0.82946073730E+02 -0.76238163252E+02  0.11594086829E+03  0.16166197333E+03  0.00000000000E+00 0. -1.
          1    1    1    2  502    0 -0.32850038178E+02  0.49795313579E+02  0.51089046880E+03  0.51436151622E+03  0.00000000000E+00 0. -1.
         22    1    3    3    0    0 -0.87364391302E+02  0.17107062549E+01  0.31738614856E+02  0.92966677129E+02  0.00000000000E+00 0. -1.
         22    1    3    3    0    0  0.37268355750E+02  0.24732143418E+02  0.48614925341E+02  0.66060731333E+02  0.00000000000E+00 0. -1.
</event>
<event>
 7    1  0.6278987E-006  0.7092251E+02  0.7818608E-02  0.1426451E+00
          2   -1    0    0  502    0  0.00000000000E+00  0.00000000000E+00  0.61892730077E+03  0.61892730077E+03  0.00000000000E+00 0. -1.
          1   -1    0    0  501    0 -0.00000000000E+00 -0.00000000000E+00 -0.54335237388E+03  0.54335237388E+03  0.00000000000E+00 0. -1.
         25    2    1    2    0    0 -0.10855857862E+02 -0.96724657819E+02  0.22794656883E+03  0.27759431281E+03  0.12500182071E+03 0.  0.
          2    1    1    2  501    0  0.26886514679E+02  0.30458804429E+02 -0.51454721146E+03  0.51614867650E+03  0.00000000000E+00 0. -1.
          1    1    1    2  502    0 -0.16030656816E+02  0.66265853390E+02  0.36217556952E+03  0.36853668534E+03  0.00000000000E+00 0. -1.
         22    1    3    3    0    0 -0.41020188387E+02 -0.10783209465E+03  0.12665191806E+03  0.17132169985E+03  0.00000000000E+00 0. -1.
         22    1    3    3    0    0  0.30164330524E+02  0.11107436831E+02  0.10129465078E+03  0.10627261296E+03  0.00000000000E+00 0. -1.
</event>
<event>
 7    1  0.6278987E-006  0.8556522E+02  0.7818608E-02  0.1339433E+00
          2   -1    0    0  502    0  0.00000000000E+00  0.00000000000E+00  0.13274472000E+04  0.13274472000E+04  0.00000000000E+00 0. -1.
          1   -1    0    0  501    0 -0.00000000000E+00 -0.00000000000E+00 -0.52908245190E+03  0.52908245190E+03  0.00000000000E+00 0. -1.
         25    2    1    2    0    0 -0.99611813220E+01 -0.10382816379E+03 -0.36202688454E+03  0.39694568134E+03  0.12499158401E+03 0.  0.
          2    1    1    2  501    0 -0.47831583451E+02  0.67411554735E+02 -0.13721110836E+03  0.16018447598E+03  0.00000000000E+00 0. -1.
          1    1    1    2  502    0  0.57792764773E+02  0.36416609056E+02  0.12976027410E+04  0.12993994946E+04  0.00000000000E+00 0. -1.
         22    1    3    3    0    0  0.81479501434E+00 -0.94453859105E+02 -0.11200979141E+03  0.14652094991E+03  0.00000000000E+00 0. -1.
         22    1    3    3    0    0 -0.10775976336E+02 -0.93743046866E+01 -0.25001709313E+03  0.25042473143E+03  0.00000000000E+00 0. -1.
</event>
<event>
 7    1  0.6278987E-006  0.1294034E+03  0.7818608E-02  0.1432490E+00
          2   -1    0    0  502    0  0.00000000000E+00  0.00000000000E+00  0.70781701704E+03  0.70781701704E+03  0.00000000000E+00 0. -1.
          1   -1    0    0  501    0 -0.00000000000E+00 -0.00000000000E+00 -0.38463633574E+03  0.38463633574E+03  0.00000000000E+00 0. -1.
         25    2    1    2    0    0  0.14588026052E+02 -0.14822118797E+03  0.31300989636E+03  0.36848379873E+03  0.12499113424E+03 0.  0.
          2    1    1    2  501    0 -0.64179108149E+01  0.12858284538E+03 -0.34496059334E+03  0.36820177710E+03  0.00000000000E+00 0. -1.
          1    1    1    2  502    0 -0.81701152373E+01  0.19638342585E+02  0.35513137827E+03  0.35576777695E+03  0.00000000000E+00 0. -1.
         22    1    3    3    0    0  0.13859842422E+02 -0.15398397690E+03  0.18830211877E+03  0.24364081823E+03  0.00000000000E+00 0.  1.
         22    1    3    3    0    0  0.72818363062E+00  0.57627889338E+01  0.12470777759E+03  0.12484298050E+03  0.00000000000E+00 0.  1.
</event>
<event>
 7    1  0.6278987E-006  0.8865919E+02  0.7818608E-02  0.1310492E+00
          2   -1    0    0  502    0  0.00000000000E+00  0.00000000000E+00  0.13329901619E+04  0.13329901619E+04  0.00000000000E+00 0. -1.
          1   -1    0    0  501    0 -0.00000000000E+00 -0.00000000000E+00 -0.76953734495E+03  0.76953734495E+03  0.00000000000E+00 0. -1.
         25    2    1    2    0    0 -0.30680143926E+02 -0.24646745459E+02  0.92010163327E+02  0.16012211805E+03  0.12499795694E+03 0.  0.
          2    1    1    2  501    0  0.77319797722E+02 -0.46666277240E+02 -0.73119584877E+03  0.73675196763E+03  0.00000000000E+00 0. -1.
          1    1    1    2  502    0 -0.46639653796E+02  0.71313022699E+02  0.12026385024E+04  0.12056534211E+04  0.00000000000E+00 0. -1.
         22    1    3    3    0    0  0.21658761226E+02 -0.24670308923E+02 -0.18615876538E+02  0.37739593791E+02  0.00000000000E+00 0. -1.
         22    1    3    3    0    0 -0.52338905152E+02  0.23563463715E-01  0.11062603986E+03  0.12238252426E+03  0.00000000000E+00 0. -1.
</event>
<event>
 7    1  0.6278987E-006  0.7138689E+02  0.7818608E-02  0.1401563E+00
          2   -1    0    0  502    0  0.00000000000E+00  0.00000000000E+00  0.34898817924E+03  0.34898817924E+03  0.00000000000E+00 0. -1.
          1   -1    0    0  501    0 -0.00000000000E+00 -0.00000000000E+00 -0.27359215418E+04  0.27359215418E+04  0.00000000000E+00 0. -1.
         25    2    1    2    0    0 -0.40089037478E+02 -0.83946763876E+02  0.46048531391E+02  0.16248045454E+03  0.12500096309E+03 0.  0.
          2    1    1    2  501    0 -0.71268297460E+01  0.70992600341E+02 -0.26747762535E+04  0.26757277043E+04  0.00000000000E+00 0. -1.
          1    1    1    2  502    0  0.47215867224E+02  0.12954163534E+02  0.24179435958E+03  0.24670156221E+03  0.00000000000E+00 0. -1.
         22    1    3    3    0    0  0.16044525345E+01 -0.10756508274E+03  0.36652248118E+02  0.11364949884E+03  0.00000000000E+00 0. -1.
         22    1    3    3    0    0 -0.41693490013E+02  0.23618318868E+02  0.93962832722E+01  0.48830955704E+02  0.00000000000E+00 0. -1.
</event>
<event>
 7    1  0.6278987E-006  0.9579590E+02  0.7818608E-02  0.1301713E+00
          2   -1    0    0  502    0  0.00000000000E+00  0.00000000000E+00  0.25922314080E+04  0.25922314080E+04  0.00000000000E+00 0. -1.
          1   -1    0    0  501    0 -0.00000000000E+00 -0.00000000000E+00 -0.53906892799E+02  0.53906892799E+02  0.00000000000E+00 0. -1.
         25    2    1    2    0    0  0.12389708363E+03  0.36288002871E+02  0.15942583695E+04  0.16043540052E+04  0.12499887616E+03 0.  0.
          2    1    1    2  501    0 -0.75472964059E+02  0.40055552006E+02 -0.76485519662E+01  0.85785289517E+02  0.00000000000E+00 0. -1.
          1    1    1    2  502    0 -0.48424119570E+02 -0.76343554877E+02  0.95171469772E+03  0.95599900606E+03  0.00000000000E+00 0. -1.
         22    1    3    3    0    0  0.14494537924E+03  0.44694687466E+02  0.12170704675E+04  0.12264857524E+04  0.00000000000E+00 0.  1.
         22    1    3    3    0    0 -0.21048295616E+02 -0.84066845947E+01  0.37718790200E+03  0.37786825285E+03  0.00000000000E+00 0.  1.
</event>
<event>
 7    1  0.6278987E-006  0.9599906E+02  0.7818608E-02  0.1387871E+00
          2   -1    0    0  502    0  0.00000000000E+00  0.00000000000E+00  0.27880604186E+04  0.27880604186E+04  0.00000000000E+00 0. -1.
          1   -1    0    0  501    0 -0.00000000000E+00 -0.00000000000E+00 -0.81995056148E+03  0.81995056148E+03  0.00000000000E+00 0. -1.
         25    2    1    2    0    0 -0.99271234301E+02 -0.14633495375E+02  0.12163422350E+03  0.20121727112E+03  0.12499835488E+03 0.  0.
          2    1    1    2  501    0  0.92644462900E+02 -0.25433633385E+02 -0.77704359999E+03  0.78296016661E+03  0.00000000000E+00 0. -1.
          1    1    1    2  502    0  0.66267714007E+01  0.40067128761E+02  0.26235192336E+04  0.26238335423E+04  0.00000000000E+00 0. -1.
         22    1    3    3    0    0  0.76174090326E+01 -0.18523655516E+01  0.88124131646E+02  0.88472135482E+02  0.00000000000E+00 0. -1.
         22    1    3    3    0    0 -0.10688864333E+03 -0.12781129824E+02  0.33510091858E+02  0.11274513564E+03  0.00000000000E+00 0. -1.
</event>
<event>
 7    1  0.6278987E-006  0.8402423E+02  0.7818608E-02  0.1347338E+00
          2   -1    0    0  502    0  0.00000000000E+00  0.00000000000E+00  0.14967238494E+04  0.14967238494E+04  0.00000000000E+00 0. -1.
          1   -1    0    0  501    0 -0.00000000000E+00 -0.00000000000E+00 -0.88709694604E+03  0.88709694604E+03  0.00000000000E+00 0. -1.
         25    2    1    2    0    0 -0.81218034524E+02 -0.39325828961E+02  0.43016693969E+01  0.15422503104E+03  0.12499586347E+03 0.  0.
          2    1    1    2  501    0  0.88370294579E+00  0.64975093876E+02 -0.80957800613E+03  0.81218168642E+03  0.00000000000E+00 0. -1.
          1    1    1    2  502    0  0.80334331579E+02 -0.25649264915E+02  0.14149032401E+04  0.14174140780E+04  0.00000000000E+00 0. -1.
         22    1    3    3    0    0 -0.39879383332E+02 -0.42326013607E+02 -0.56210383899E+02  0.80879316892E+02  0.00000000000E+00 0. -1.
         22    1    3    3    0    0 -0.41338651192E+02  0.30001846457E+01  0.60512053296E+02  0.73345714151E+02  0.00000000000E+00 0. -1.
</event>
<event>
 7    1  0.6278987E-006  0.6142192E+02  0.7818608E-02  0.1467437E+00
          2   -1    0    0  502    0  0.00000000000E+00  0.00000000000E+00  0.60022674932E+03  0.60022674932E+03  0.00000000000E+00 0. -1.
          1   -1    0    0  501    0 -0.00000000000E+00 -0.00000000000E+00 -0.84061797691E+03  0.84061797691E+03  0.00000000000E+00 0. -1.
         25    2    1    2    0    0 -0.56940195498E+02  0.54401867583E+02  0.13964910020E+03  0.20329331415E+03  0.12499820531E+03 0.  0.
          2    1    1    2  501    0  0.34578662696E+02  0.20287954014E+01 -0.80627381245E+03  0.80701750945E+03  0.00000000000E+00 0. -1.
          1    1    1    2  502    0  0.22361532803E+02 -0.56430662984E+02  0.42623348466E+03  0.43053390263E+03  0.00000000000E+00 0. -1.
         22    1    3    3    0    0  0.13042446457E+02 -0.29534029475E+02  0.10147483862E+02  0.33842809212E+02  0.00000000000E+00 0. -1.
         22    1    3    3    0    0 -0.69982641955E+02  0.83935897058E+02  0.12950161634E+03  0.16945050494E+03  0.00000000000E+00 0. -1.
</event>
<event>
 7    1  0.6278987E-006  0.7985790E+02  0.7818608E-02  0.1380465E+00
          2   -1    0    0  502    0  0.00000000000E+00  0.00000000000E+00  0.11345886435E+04  0.11345886435E+04  0.00000000000E+00 0. -1.
          1   -1    0    0  501    0 -0.00000000000E+00 -0.00000000000E+00 -0.66051124185E+02  0.66051124185E+02  0.00000000000E+00 0. -1.
         25    2    1    2    0    0 -0.98083536370E+02  0.63649813051E+02  0.72045443878E+03  0.74050946341E+03  0.12501195237E+03 0.  0.
          2    1    1    2  501    0  0.49903681555E+02 -0.14037305910E+02 -0.40284959708E+02  0.65652885456E+02  0.00000000000E+00 0. -1.
          1    1    1    2  502    0  0.48179854814E+02 -0.49612507141E+02  0.38836804022E+03  0.39447741880E+03  0.00000000000E+00 0. -1.
         22    1    3    3    0    0 -0.12089439041E+02  0.61802092499E+02  0.13738789622E+03  0.15113268079E+03  0.00000000000E+00 0. -1.
         22    1    3    3    0    0 -0.85994097329E+02  0.18477205529E+01  0.58306654256E+03  0.58937678262E+03  0.00000000000E+00 0. -1.
</event>
<event>
 7    1  0.6278987E-006  0.1675527E+03  0.7818608E-02  0.1242607E+00
          2   -1    0    0  502    0  0.00000000000E+00  0.00000000000E+00  0.60994277426E+03  0.60994277426E+03  0.00000000000E+00 0. -1.
          1   -1    0    0  501    0 -0.00000000000E+00 -0.00000000000E+00 -0.12236957537E+04  0.12236957537E+04  0.00000000000E+00 0. -1.
         25    2    1    2    0    0  0.88694367330E+02  0.74711173632E+02 -0.41484253116E+03  0.44851641520E+03  0.12499679512E+03 0.  0.
          2    1    1    2  501    0 -0.25615374618E+02  0.82484259505E+02 -0.77748312767E+03  0.78226582074E+03  0.00000000000E+00 0. -1.
          1    1    1    2  502    0 -0.63078992712E+02 -0.15719543314E+03  0.57857267937E+03  0.60285629203E+03  0.00000000000E+00 0. -1.
         22    1    3    3    0    0  0.56582024699E+02  0.63017935045E+02 -0.40382324053E+03  0.41260876778E+03  0.00000000000E+00 0.  1.
         22    1    3    3    0    0  0.32112342631E+02  0.11693238587E+02 -0.11019290630E+02  0.35907647429E+02  0.00000000000E+00 0.  1.
</event>
<event>
 7    1  0.6278987E-006  0.1974502E+03  0.7818608E-02  0.1156618E+00
          2   -1    0    0  502    0  0.00000000000E+00  0.00000000000E+00  0.43410215781E+03  0.43410215781E+03  0.00000000000E+00 0. -1.
          1   -1    0    0  501    0 -0.00000000000E+00 -0.00000000000E+00 -0.89633379799E+03  0.89633379799E+03  0.00000000000E+00 0. -1.
         25    2    1    2    0    0  0.87573737786E+02  0.53977758396E+02  0.28946249040E+02  0.16445456119E+03  0.12499863763E+03 0.  0.
          2    1    1    2  501    0 -0.51083486951E+00 -0.21926291194E+03 -0.78652274586E+03  0.81651363446E+03  0.00000000000E+00 0. -1.
          1    1    1    2  502    0 -0.87062902916E+02  0.16528515354E+03  0.29534485664E+03  0.34946776016E+03  0.00000000000E+00 0. -1.
         22    1    3    3    0    0  0.10330466354E+03  0.12467924240E+02  0.49860811938E+02  0.11538372160E+03  0.00000000000E+00 0.  1.
         22    1    3    3    0    0 -0.15730925750E+02  0.41509834156E+02 -0.20914562898E+02  0.49070839587E+02  0.00000000000E+00 0.  1.
</event>
<event>
 7    1  0.6278987E-006  0.7936651E+02  0.7818608E-02  0.1371647E+00
          2   -1    0    0  502    0  0.00000000000E+00  0.00000000000E+00  0.21083674853E+04  0.21083674853E+04  0.00000000000E+00 0. -1.
          1   -1    0    0  501    0 -0.00000000000E+00 -0.00000000000E+00 -0.50437452915E+03  0.50437452915E+03  0.00000000000E+00 0. -1.
         25    2    1    2    0    0 -0.38745068053E+02 -0.46814618640E+02  0.13962008161E+03  0.19699462359E+03  0.12498130147E+03 0.  0.
          2    1    1    2  501    0  0.45093270774E+02 -0.33330680016E+02 -0.47319821411E+03  0.47650906302E+03  0.00000000000E+00 0. -1.
          1    1    1    2  502    0 -0.63482027209E+01  0.80145298656E+02  0.19375710886E+04  0.19392383278E+04  0.00000000000E+00 0. -1.
         22    1    3    3    0    0 -0.52285454111E+02 -0.51481278329E+02  0.19363647855E+02  0.75888349489E+02  0.00000000000E+00 0.  1.
         22    1    3    3    0    0  0.13540386058E+02  0.46666596889E+01  0.12025643376E+03  0.12110627410E+03  0.00000000000E+00 0.  1.
</event>
<event>
 7    1  0.6278987E-006  0.8970232E+02  0.7818608E-02  0.1353558E+00
          2   -1    0    0  502    0  0.00000000000E+00  0.00000000000E+00  0.24484631764E+04  0.24484631764E+04  0.00000000000E+00 0. -1.
          1   -1    0    0  501    0 -0.00000000000E+00 -0.00000000000E+00 -0.52707672674E+02  0.52707672674E+02  0.00000000000E+00 0. -1.
         25    2    1    2    0    0 -0.60081181829E+02  0.47987909535E+01  0.41993880418E+03  0.44227366193E+03  0.12499846391E+03 0.  0.
          2    1    1    2  501    0  0.72347174878E+02 -0.61204646103E+02  0.13486753552E+02  0.95718414836E+02  0.00000000000E+00 0. -1.
          1    1    1    2  502    0 -0.12265993049E+02  0.56405855149E+02  0.19623299460E+04  0.19631787723E+04  0.00000000000E+00 0. -1.
         22    1    3    3    0    0 -0.33106310177E+02  0.46385813125E+02  0.36004860268E+03  0.36453075004E+03  0.00000000000E+00 0.  1.
         22    1    3    3    0    0 -0.26974871651E+02 -0.41587022171E+02  0.59890201491E+02  0.77742911884E+02  0.00000000000E+00 0.  1.
</event>
<event>
 7    1  0.6278987E-006  0.9739645E+02  0.7818608E-02  0.1299489E+00
          2   -1    0    0  502    0  0.00000000000E+00  0.00000000000E+00  0.12188164395E+04  0.12188164395E+04  0.00000000000E+00 0. -1.
          1   -1    0    0  501    0 -0.00000000000E+00 -0.00000000000E+00 -0.39759513197E+03  0.39759513197E+03  0.00000000000E+00 0. -1.
         25    2    1    2    0    0 -0.59196183283E+02 -0.14956215049E+03  0.16296174118E+03  0.26086753206E+03  0.12498926042E+03 0.  0.
          2    1    1    2  501    0  0.70890319328E+02  0.64584691986E+02 -0.34017369122E+03  0.35343282248E+03  0.00000000000E+00 0. -1.
          1    1    1    2  502    0 -0.11694136045E+02  0.84977458504E+02  0.99843325758E+03  0.10021112169E+04  0.00000000000E+00 0. -1.
         22    1    3    3    0    0 -0.47121843841E+02 -0.12808549246E+03  0.18357124828E+03  0.22874607044E+03  0.00000000000E+00 0.  1.
         22    1    3    3    0    0 -0.12074339442E+02 -0.21476658030E+02 -0.20609507107E+02  0.32121461615E+02  0.00000000000E+00 0.  1.
</event>
<event>
 7    1  0.6278987E-006  0.1131181E+03  0.7818608E-02  0.1308464E+00
          2   -1    0    0  502    0  0.00000000000E+00  0.00000000000E+00  0.45376785909E+03  0.45376785909E+03  0.00000000000E+00 0. -1.
          1   -1    0    0  501    0 -0.00000000000E+00 -0.00000000000E+00 -0.14985280510E+04  0.14985280510E+04  0.00000000000E+00 0. -1.
         25    2    1    2    0    0 -0.10968054237E+03  0.12973068321E+03 -0.10414771199E+04  0.10626190163E+04  0.12499884322E+03 0.  0.
          2    1    1    2  501    0  0.16679389983E+02 -0.65951101252E+02 -0.43662981076E+03  0.44189743318E+03  0.00000000000E+00 0. -1.
          1    1    1    2  502    0  0.93001152391E+02 -0.63779581954E+02  0.43334673876E+03  0.44777946069E+03  0.00000000000E+00 0. -1.
         22    1    3    3    0    0  0.28045803136E+02  0.19639498466E+02 -0.14774716297E+03  0.15166245791E+03  0.00000000000E+00 0.  1.
         22    1    3    3    0    0 -0.13772634551E+03  0.11009118474E+03 -0.89372995697E+03  0.91095655834E+03  0.00000000000E+00 0.  1.
</event>
<event>
 7    1  0.6278987E-006  0.8998460E+02  0.7818608E-02  0.1346412E+00
          2   -1    0    0  502    0  0.00000000000E+00  0.00000000000E+00  0.35812675444E+02  0.35812675444E+02  0.00000000000E+00 0. -1.
          1   -1    0    0  501    0 -0.00000000000E+00 -0.00000000000E+00 -0.23394324682E+04  0.23394324682E+04  0.00000000000E+00 0. -1.
         25    2    1    2    0    0 -0.13177419523E+02 -0.14142255204E+03 -0.63158149715E+03  0.65931366914E+03  0.12500137664E+03 0.  0.
          2    1    1    2  501    0  0.26699238139E+02  0.81775759742E+02 -0.16479575366E+04  0.16502012504E+04  0.00000000000E+00 0. -1.
          1    1    1    2  502    0 -0.13521818615E+02  0.59646792293E+02 -0.24080758952E+02  0.65730224107E+02  0.00000000000E+00 0. -1.
         22    1    3    3    0    0  0.43408993163E+02 -0.11863405093E+03 -0.38025447777E+03  0.40068921447E+03  0.00000000000E+00 0.  1.
         22    1    3    3    0    0 -0.56586412687E+02 -0.22788501110E+02 -0.25132701937E+03  0.25862445467E+03  0.00000000000E+00 0.  1.
</event>
<event>
 7    1  0.6278987E-006  0.2560828E+03  0.7818608E-02  0.1278779E+00
          2   -1    0    0  502    0  0.00000000000E+00  0.00000000000E+00  0.24169241431E+04  0.24169241431E+04  0.00000000000E+00 0. -1.
          1   -1    0    0  501    0 -0.00000000000E+00 -0.00000000000E+00 -0.10958615161E+03  0.10958615161E+03  0.00000000000E+00 0. -1.
         25    2    1    2    0    0 -0.87011881032E+01 -0.29069997455E+03  0.37818886789E+03  0.49318719721E+03  0.12499842325E+03 0.  0.
          2    1    1    2  501    0 -0.38784621943E+00  0.39616220828E+02 -0.35184761977E+02  0.52986440272E+02  0.00000000000E+00 0. -1.
          1    1    1    2  502    0  0.90890343227E+01  0.25108375372E+03  0.19643338856E+04  0.19803366572E+04  0.00000000000E+00 0. -1.
         22    1    3    3    0    0 -0.39349625858E+02 -0.10185375941E+03  0.21738512325E+03  0.24326708197E+03  0.00000000000E+00 0. -1.
         22    1    3    3    0    0  0.30648437755E+02 -0.18884621513E+03  0.16080374464E+03  0.24992011523E+03  0.00000000000E+00 0. -1.
</event>
<event>
 7    1  0.6278987E-006  0.4283000E+02  0.7818608E-02  0.1519283E+00
          2   -1    0    0  502    0  0.00000000000E+00  0.00000000000E+00  0.58886046720E+03  0.58886046720E+03  0.00000000000E+00 0. -1.
          1   -1    0    0  501    0 -0.00000000000E+00 -0.00000000000E+00 -0.30698081656E+02  0.30698081656E+02  0.00000000000E+00 0. -1.
         25    2    1    2    0    0  0.13695238299E+01  0.66624898613E+02  0.38599125684E+03  0.41118027335E+03  0.12505684359E+03 0.  0.
          2    1    1    2  501    0  0.15450072432E+02 -0.31036596577E+02  0.31253138124E+01  0.34810094106E+02  0.00000000000E+00 0. -1.
          1    1    1    2  502    0 -0.16819596262E+02 -0.35588302037E+02  0.16904581489E+03  0.17356818139E+03  0.00000000000E+00 0. -1.
         22    1    3    3    0    0  0.22641208741E+02  0.27326381112E+02  0.35506986118E+03  0.35683884564E+03  0.00000000000E+00 0. -1.
         22    1    3    3    0    0 -0.21271684911E+02  0.39298517501E+02  0.30921395659E+02  0.54341427716E+02  0.00000000000E+00 0. -1.
</event>
<event>
 7    1  0.6278987E-006  0.6947351E+02  0.7818608E-02  0.1438595E+00
          2   -1    0    0  502    0  0.00000000000E+00  0.00000000000E+00  0.17383125222E+04  0.17383125222E+04  0.00000000000E+00 0. -1.
          1   -1    0    0  501    0 -0.00000000000E+00 -0.00000000000E+00 -0.50894525487E+03  0.50894525487E+03  0.00000000000E+00 0. -1.
         25    2    1    2    0    0  0.42198956961E+02  0.22911001797E+02 -0.61268960058E+02  0.14726273756E+03  0.12500704954E+03 0.  0.
          2    1    1    2  501    0 -0.69688980080E+01  0.37193011527E+02 -0.40307713914E+03  0.40484943590E+03  0.00000000000E+00 0. -1.
          1    1    1    2  502    0 -0.35230058953E+02 -0.60104013324E+02  0.16937133665E+04  0.16951456036E+04  0.00000000000E+00 0. -1.
         22    1    3    3    0    0  0.82831535734E+01 -0.50811821864E+02 -0.14010890510E+02  0.53355008454E+02  0.00000000000E+00 0.  1.
         22    1    3    3    0    0  0.33915803388E+02  0.73722823661E+02 -0.47258069548E+02  0.93907729103E+02  0.00000000000E+00 0.  1.
</event>
<event>
 7    1  0.6278987E-006  0.2933071E+02  0.7818608E-02  0.1617088E+00
          2   -1    0    0  502    0  0.00000000000E+00  0.00000000000E+00  0.70454149420E+03  0.70454149420E+03  0.00000000000E+00 0. -1.
          1   -1    0    0  501    0 -0.00000000000E+00 -0.00000000000E+00 -0.99740602381E+03  0.99740602381E+03  0.00000000000E+00 0. -1.
         25    2    1    2    0    0  0.21417681570E+02 -0.18383419062E+02  0.43996208436E+02  0.13548619745E+03  0.12499670461E+03 0.  0.
          2    1    1    2  501    0 -0.25176888052E+02 -0.10812291452E+02 -0.95111125513E+03  0.95150585966E+03  0.00000000000E+00 0. -1.
          1    1    1    2  502    0  0.37592064821E+01  0.29195710515E+02  0.61425051708E+03  0.61495546089E+03  0.00000000000E+00 0. -1.
         22    1    3    3    0    0 -0.20961665323E+02  0.35585884500E+02  0.51994596180E+02  0.66401691400E+02  0.00000000000E+00 0.  1.
         22    1    3    3    0    0  0.42379346892E+02 -0.53969303563E+02 -0.79983877448E+01  0.69084506053E+02  0.00000000000E+00 0.  1.
</event>
<event>
 7    1  0.6278987E-006  0.3516016E+03  0.7818608E-02  0.1191092E+00
          2   -1    0    0  502    0  0.00000000000E+00  0.00000000000E+00  0.10149229911E+04  0.10149229911E+04  0.00000000000E+00 0. -1.
          1   -1    0    0  501    0 -0.00000000000E+00 -0.00000000000E+00 -0.10322447906E+04  0.10322447906E+04  0.00000000000E+00 0. -1.
         25    2    1    2    0    0 -0.28322856436E+03 -0.95538947550E+02  0.18104807476E+03  0.37114602562E+03  0.12499942715E+03 0.  0.
          2    1    1    2  501    0  0.35071249147E+03  0.73771589718E+02 -0.90108406782E+03  0.96973913833E+03  0.00000000000E+00 0. -1.
          1    1    1    2  502    0 -0.67483927108E+02  0.21767357832E+02  0.70271419352E+03  0.70628261770E+03  0.00000000000E+00 0. -1.
         22    1    3    3    0    0 -0.44755634319E+02 -0.71184761271E+02  0.52693712220E+02  0.99231871635E+02  0.00000000000E+00 0.  1.
         22    1    3    3    0    0 -0.23847293004E+03 -0.24354186279E+02  0.12835436254E+03  0.27191415398E+03  0.00000000000E+00 0.  1.
</event>
<event>
 7    1  0.6278987E-006  0.5496966E+02  0.7818608E-02  0.1554637E+00
          2   -1    0    0  502    0  0.00000000000E+00  0.00000000000E+00  0.16052233151E+04  0.16052233151E+04  0.00000000000E+00 0. -1.
          1   -1    0    0  501    0 -0.00000000000E+00 -0.00000000000E+00 -0.94883396659E+01  0.94883396659E+01  0.00000000000E+00 0. -1.
         25    2    1    2    0    0 -0.20854844417E+02 -0.29294085886E+02  0.51751547494E+03  0.53361082715E+03  0.12500072015E+03 0.  0.
          2    1    1    2  501    0 -0.12296516219E+02 -0.17562445677E+02  0.27807838278E+03  0.27890362274E+03  0.00000000000E+00 0. -1.
          1    1    1    2  502    0  0.33151360636E+02  0.46856531563E+02  0.80014111774E+03  0.80219720491E+03  0.00000000000E+00 0. -1.
         22    1    3    3    0    0  0.44490860181E+01  0.42320902667E+02  0.30450054609E+03  0.30745964896E+03  0.00000000000E+00 0. -1.
         22    1    3    3    0    0 -0.25303930435E+02 -0.71614988553E+02  0.21301492886E+03  0.22615117819E+03  0.00000000000E+00 0. -1.
</event>
<event>
 7    1  0.6278987E-006  0.1137864E+03  0.7818608E-02  0.1292134E+00
          2   -1    0    0  502    0  0.00000000000E+00  0.00000000000E+00  0.48543511637E+03  0.48543511637E+03  0.00000000000E+00 0. -1.
          1   -1    0    0  501    0 -0.00000000000E+00 -0.00000000000E+00 -0.12006896298E+04  0.12006896298E+04  0.00000000000E+00 0. -1.
         25    2    1    2    0    0 -0.83695804471E+02 -0.15794363555E+03 -0.26166791970E+03  0.34065502739E+03  0.12499827114E+03 0.  0.
          2    1    1    2  501    0  0.62633645324E+02  0.47501722277E+02 -0.89068274339E+03  0.89414491920E+03  0.00000000000E+00 0. -1.
          1    1    1    2  502    0  0.21062159147E+02  0.11044191327E+03  0.43709614962E+03  0.45132479963E+03  0.00000000000E+00 0. -1.
         22    1    3    3    0    0  0.23213921588E+02  0.22249304046E+00 -0.11338464127E+02  0.25835952225E+02  0.00000000000E+00 0. -1.
         22    1    3    3    0    0 -0.10690972606E+03 -0.15816612859E+03 -0.25032945557E+03  0.31481907516E+03  0.00000000000E+00 0. -1.
</event>
<event>
 7    1  0.6278987E-006  0.5573714E+02  0.7818608E-02  0.1433193E+00
          2   -1    0    0  502    0  0.00000000000E+00  0.00000000000E+00  0.12498644252E+04  0.12498644252E+04  0.00000000000E+00 0. -1.
          1   -1    0    0  501    0 -0.00000000000E+00 -0.00000000000E+00 -0.65789226796E+03  0.65789226796E+03  0.00000000000E+00 0. -1.
         25    2    1    2    0    0 -0.19407021454E+02  0.46985041510E+02 -0.11841230011E+03  0.17952889175E+03  0.12499969420E+03 0.  0.
          2    1    1    2  501    0 -0.35017297836E+02 -0.34447460170E+02 -0.50709474244E+03  0.50946826836E+03  0.00000000000E+00 0. -1.
          1    1    1    2  502    0  0.54424319290E+02 -0.12537581340E+02  0.12174791997E+04  0.12187595330E+04  0.00000000000E+00 0. -1.
         22    1    3    3    0    0 -0.46665640328E+02  0.16679129401E+02  0.47622714469E+01  0.49785083852E+02  0.00000000000E+00 0.  1.
         22    1    3    3    0    0  0.27258618874E+02  0.30305912109E+02 -0.12317457155E+03  0.12974380790E+03  0.00000000000E+00 0.  1.
</event>
<event>
 7    1  0.6278987E-006  0.1173719E+03  0.7818608E-02  0.1300970E+00
          2   -1    0    0  502    0  0.00000000000E+00  0.00000000000E+00  0.37370379594E+03  0.37370379594E+03  0.00000000000E+00 0. -1.
          1   -1    0    0  501    0 -0.00000000000E+00 -0.00000000000E+00 -0.87850046293E+03  0.87850046293E+03  0.00000000000E+00 0. -1.
         25    2    1    2    0    0  0.22210761180E+02 -0.92534190626E+02 -0.97391067226E+02  0.18483980648E+03  0.12499935895E+03 0.  0.
          2    1    1    2  501    0 -0.67590044180E+02 -0.19019352724E+02 -0.72464314822E+03  0.72803697854E+03  0.00000000000E+00 0. -1.
          1    1    1    2  502    0  0.45379282999E+02  0.11155354335E+03  0.31723754846E+03  0.33932747385E+03  0.00000000000E+00 0. -1.
         22    1    3    3    0    0  0.75549066956E+01 -0.11404643671E+03 -0.10750787780E+03  0.15691274687E+03  0.00000000000E+00 0.  1.
         22    1    3    3    0    0  0.14655854485E+02  0.21512246083E+02  0.10116810576E+02  0.27927059610E+02  0.00000000000E+00 0.  1.
</event>
<event>
 7    1  0.6278987E-006  0.8463611E+02  0.7818608E-02  0.1476649E+00
          2   -1    0    0  502    0  0.00000000000E+00  0.00000000000E+00  0.53046474541E+03  0.53046474541E+03  0.00000000000E+00 0. -1.
          1   -1    0    0  501    0 -0.00000000000E+00 -0.00000000000E+00 -0.40998577810E+03  0.40998577810E+03  0.00000000000E+00 0. -1.
         25    2    1    2    0    0 -0.82969998343E+01 -0.78457271682E+02  0.31910903736E+03  0.35167903033E+03  0.12499271563E+03 0.  0.
          2    1    1    2  501    0 -0.22967734482E+02 -0.51444674546E+01 -0.38311062115E+03  0.38383294597E+03  0.00000000000E+00 0. -1.
          1    1    1    2  502    0  0.31264734317E+02  0.83601739137E+02  0.18448055110E+03  0.20493854721E+03  0.00000000000E+00 0. -1.
         22    1    3    3    0    0 -0.24371647928E+02 -0.10130378623E+03  0.30065808334E+03  0.31820075016E+03  0.00000000000E+00 0.  1.
         22    1    3    3    0    0  0.16074648093E+02  0.22846514549E+02  0.18450954024E+02  0.33478280165E+02  0.00000000000E+00 0.  1.
</event>
<event>
 7    1  0.6278987E-006  0.7395796E+02  0.7818608E-02  0.1384509E+00
          2   -1    0    0  502    0  0.00000000000E+00  0.00000000000E+00  0.19831581892E+04  0.19831581892E+04  0.00000000000E+00 0. -1.
          1   -1    0    0  501    0 -0.00000000000E+00 -0.00000000000E+00 -0.24297887921E+03  0.24297887921E+03  0.00000000000E+00 0. -1.
         25    2    1    2    0    0  0.31362707289E+01 -0.26368702421E+02 -0.12949766721E+03  0.18193264080E+03  0.12499878125E+03 0.  0.
          2    1    1    2  501    0 -0.76654077493E+02  0.34425461239E+02 -0.66163781222E+02  0.10695141852E+03  0.00000000000E+00 0. -1.
          1    1    1    2  502    0  0.73517806764E+02 -0.80567588184E+01  0.19358407584E+04  0.19372530091E+04  0.00000000000E+00 0. -1.
         22    1    3    3    0    0  0.45066748740E+02 -0.58260116657E+02 -0.88742679003E+02  0.11532786355E+03  0.00000000000E+00 0. -1.
         22    1    3    3    0    0 -0.41930478011E+02  0.31891414237E+02 -0.40754988211E+02  0.66604777249E+02  0.00000000000E+00 0. -1.
</event>
<event>
 7    1  0.6278987E-006  0.7223584E+02  0.7818608E-02  0.1366559E+00
          2   -1    0    0  502    0  0.00000000000E+00  0.00000000000E+00  0.15541229512E+04  0.15541229512E+04  0.00000000000E+00 0. -1.
          1   -1    0    0  501    0 -0.00000000000E+00 -0.00000000000E+00 -0.15039651214E+03  0.15039651214E+03  0.00000000000E+00 0. -1.
         25    2    1    2    0    0  0.12217804662E+03 -0.10025645579E+02  0.79976025508E+03  0.81869941448E+03  0.12499710806E+03 0.  0.
          2    1    1    2  501    0 -0.67654847608E+02 -0.23989598656E+02 -0.13029085698E+03  0.14875613150E+03  0.00000000000E+00 0. -1.
          1    1    1    2  502    0 -0.54523199016E+02  0.34015244236E+02  0.73425704091E+03  0.73706391731E+03  0.00000000000E+00 0. -1.
         22    1    3    3    0    0 -0.66803409225E+01 -0.41087810320E+02  0.22872934576E+03  0.23248644847E+03  0.00000000000E+00 0. -1.
         22    1    3    3    0    0  0.12885838755E+03  0.31062164740E+02  0.57103090932E+03  0.58621296601E+03  0.00000000000E+00 0. -1.
</event>
<event>
 7    1  0.6278987E-006  0.5907267E+02  0.7818608E-02  0.1433423E+00
          2   -1    0    0  502    0  0.00000000000E+00  0.00000000000E+00  0.10458154805E+04  0.10458154805E+04  0.00000000000E+00 0. -1.
          1   -1    0    0  501    0 -0.00000000000E+00 -0.00000000000E+00 -0.42599835932E+03  0.42599835932E+03  0.00000000000E+00 0. -1.
         25    2    1    2    0    0  0.15662128600E+02  0.14791769694E+02  0.76814871903E+02  0.14828691349E+03  0.12499754175E+03 0.  0.
          2    1    1    2  501    0 -0.59938905767E+02 -0.13691732327E+01 -0.38738145653E+03  0.39199354576E+03  0.00000000000E+00 0. -1.
          1    1    1    2  502    0  0.44276777166E+02 -0.13422596461E+02  0.93038370579E+03  0.93153338055E+03  0.00000000000E+00 0. -1.
         22    1    3    3    0    0 -0.44449290745E+02 -0.18380326120E+02  0.40895263179E+01  0.48273181597E+02  0.00000000000E+00 0. -1.
         22    1    3    3    0    0  0.60111419345E+02  0.33172095813E+02  0.72725345586E+02  0.10001373189E+03  0.00000000000E+00 0. -1.
</event>
<event>
 7    1  0.6278987E-006  0.5619827E+02  0.7818608E-02  0.1429418E+00
          2   -1    0    0  502    0  0.00000000000E+00  0.00000000000E+00  0.17680045450E+04  0.17680045450E+04  0.00000000000E+00 0. -1.
          1   -1    0    0  501    0 -0.00000000000E+00 -0.00000000000E+00 -0.33345978133E+04  0.33345978133E+04  0.00000000000E+00 0. -1.
         25    2    1    2    0    0 -0.99126433596E+02  0.37389457621E+02  0.32834052265E+02  0.16711353125E+03  0.12499934383E+03 0.  0.
          2    1    1    2  501    0  0.46388191028E+02 -0.19001156957E+02 -0.32667981894E+04  0.32671827801E+04  0.00000000000E+00 0. -1.
          1    1    1    2  502    0  0.52738242568E+02 -0.18388300663E+02  0.16673708688E+04  0.16683060469E+04  0.00000000000E+00 0. -1.
         22    1    3    3    0    0 -0.66233176126E+02 -0.40611491579E+02  0.44158524711E+01  0.77817906815E+02  0.00000000000E+00 0.  1.
         22    1    3    3    0    0 -0.32893257470E+02  0.78000949199E+02  0.28418199794E+02  0.89295624431E+02  0.00000000000E+00 0.  1.
</event>
<event>
 7    1  0.6278987E-006  0.2509995E+03  0.7818608E-02  0.1267861E+00
          2   -1    0    0  502    0  0.00000000000E+00  0.00000000000E+00  0.24333034312E+04  0.24333034312E+04  0.00000000000E+00 0. -1.
          1   -1    0    0  501    0 -0.00000000000E+00 -0.00000000000E+00 -0.36552789899E+03  0.36552789899E+03  0.00000000000E+00 0. -1.
         25    2    1    2    0    0 -0.14970680375E+03  0.14661162793E+03  0.76690162945E+02  0.25575672564E+03  0.12499210009E+03 0.  0.
          2    1    1    2  501    0 -0.34591574939E+02  0.28619158878E+02 -0.26698284611E+03  0.27073136764E+03  0.00000000000E+00 0. -1.
          1    1    1    2  502    0  0.18429837869E+03 -0.17523078681E+03  0.22580682153E+04  0.22723432369E+04  0.00000000000E+00 0. -1.
         22    1    3    3    0    0 -0.85760079370E+02  0.13489164042E+03  0.97815017578E+02  0.18739883546E+03  0.00000000000E+00 0.  1.
         22    1    3    3    0    0 -0.63946724379E+02  0.11719987509E+02 -0.21124854633E+02  0.68357890176E+02  0.00000000000E+00 0.  1.
</event>
<event>
 7    1  0.6278987E-006  0.1547541E+03  0.7818608E-02  0.1275202E+00
          2   -1    0    0  502    0  0.00000000000E+00  0.00000000000E+00  0.93752964844E+03  0.93752964844E+03  0.00000000000E+00 0. -1.
          1   -1    0    0  501    0 -0.00000000000E+00 -0.00000000000E+00 -0.13476485112E+04  0.13476485112E+04  0.00000000000E+00 0. -1.
         25    2    1    2    0    0 -0.61146173463E+02 -0.16464905102E+03 -0.18879645891E+03  0.28655704869E+03  0.12499069857E+03 0.  0.
          2    1    1    2  501    0 -0.44130199982E+02  0.51524690517E+02 -0.11022028444E+04  0.11042886301E+04  0.00000000000E+00 0. -1.
          1    1    1    2  502    0  0.10527637345E+03  0.11312436050E+03  0.88088044057E+03  0.89433248086E+03  0.00000000000E+00 0. -1.
         22    1    3    3    0    0 -0.69185729833E+02 -0.13041050491E+03 -0.71363050558E+02  0.16397027166E+03  0.00000000000E+00 0.  1.
         22    1    3    3    0    0  0.80395563694E+01 -0.34238546108E+02 -0.11743340835E+03  0.12258677703E+03  0.00000000000E+00 0.  1.
</event>
<event>
 7    1  0.6278987E-006  0.1235292E+03  0.7818608E-02  0.1322928E+00
          2   -1    0    0  502    0  0.00000000000E+00  0.00000000000E+00  0.20292505965E+04  0.20292505965E+04  0.00000000000E+00 0. -1.
          1   -1    0    0  501    0 -0.00000000000E+00 -0.00000000000E+00 -0.44653419227E+03  0.44653419227E+03  0.00000000000E+00 0. -1.
         25    2    1    2    0    0  0.67798094450E+02 -0.51270869584E+02  0.20122366348E+03  0.25167634702E+03  0.12499894891E+03 0.  0.
          2    1    1    2  501    0 -0.66944022603E+02  0.10595943287E+03 -0.41156009520E+03  0.43022158888E+03  0.00000000000E+00 0. -1.
          1    1    1    2  502    0 -0.85407184696E+00 -0.54688563281E+02  0.17930528359E+04  0.17938868529E+04  0.00000000000E+00 0. -1.
         22    1    3    3    0    0  0.16284169522E+02  0.30815451263E+02  0.83733955582E+01  0.35845222370E+02  0.00000000000E+00 0. -1.
         22    1    3    3    0    0  0.51513924928E+02 -0.82086320848E+02  0.19285026792E+03  0.21583112465E+03  0.00000000000E+00 0. -1.
</event>
<event>
 7    1  0.6278987E-006  0.9425125E+02  0.7818608E-02  0.1419242E+00
          2   -1    0    0  502    0  0.00000000000E+00  0.00000000000E+00  0.26287886352E+03  0.26287886352E+03  0.00000000000E+00 0. -1.
          1   -1    0    0  501    0 -0.00000000000E+00 -0.00000000000E+00 -0.28848076202E+03  0.28848076202E+03  0.00000000000E+00 0. -1.
         25    2    1    2    0    0 -0.42972661627E+02  0.56349596220E+02 -0.20293140999E+02  0.14511683968E+03  0.12500063578E+03 0.  0.
          2    1    1    2  501    0  0.43990912221E+02 -0.88640805621E+02 -0.19241389781E+03  0.21636889991E+03  0.00000000000E+00 0. -1.
          1    1    1    2  502    0 -0.10182505941E+01  0.32291209401E+02  0.18710514030E+03  0.18987388595E+03  0.00000000000E+00 0. -1.
         22    1    3    3    0    0 -0.82017287981E+02  0.56392399943E+02 -0.31666323506E+02  0.10444948226E+03  0.00000000000E+00 0.  1.
         22    1    3    3    0    0  0.39044626355E+02 -0.42803723454E-01  0.11373182507E+02  0.40667357422E+02  0.00000000000E+00 0.  1.
</event>
<event>
 7    1  0.6278987E-006  0.1471035E+03  0.7818608E-02  0.1225893E+00
          2   -1    0    0  502    0  0.00000000000E+00  0.00000000000E+00  0.10643065259E+04  0.10643065259E+04  0.00000000000E+00 0. -1.
          1   -1    0    0  501    0 -0.00000000000E+00 -0.00000000000E+00 -0.67491058560E+03  0.67491058560E+03  0.00000000000E+00 0. -1.
         25    2    1    2    0    0 -0.10300915583E+03  0.12720944178E+03 -0.22544429131E+03  0.30535822566E+03  0.12500155692E+03 0.  0.
          2    1    1    2  501    0 -0.43451868279E+02 -0.10837837658E+03 -0.39570952052E+03  0.41257721944E+03  0.00000000000E+00 0. -1.
          1    1    1    2  502    0  0.14646102411E+03 -0.18831065203E+02  0.10105497521E+04  0.10212816664E+04  0.00000000000E+00 0. -1.
         22    1    3    3    0    0 -0.10349772742E+03  0.10434421425E+03 -0.23765900978E+03  0.27943031253E+03  0.00000000000E+00 0.  1.
         22    1    3    3    0    0  0.48857159618E+00  0.22865227529E+02  0.12214718472E+02  0.25927913134E+02  0.00000000000E+00 0.  1.
</event>
<event>
 7    1  0.6278987E-006  0.8521239E+02  0.7818608E-02  0.1402860E+00
          2   -1    0    0  502    0  0.00000000000E+00  0.00000000000E+00  0.41724649542E+03  0.41724649542E+03  0.00000000000E+00 0. -1.
          1   -1    0    0  501    0 -0.00000000000E+00 -0.00000000000E+00 -0.16856350734E+03  0.16856350734E+03  0.00000000000E+00 0. -1.
         25    2    1    2    0    0  0.66756281879E+02  0.68215277114E+01  0.23420297236E+03  0.27382282669E+03  0.12499989498E+03 0.  0.
          2    1    1    2  501    0  0.32887859069E+02 -0.23804937391E+02 -0.12969903304E+03  0.13590483984E+03  0.00000000000E+00 0. -1.
          1    1    1    2  502    0 -0.99644140948E+02  0.16983409679E+02  0.14417904877E+03  0.17608233623E+03  0.00000000000E+00 0. -1.
         22    1    3    3    0    0  0.57243571949E+02 -0.31461370228E+02  0.42099497457E+02  0.77711080498E+02  0.00000000000E+00 0. -1.
         22    1    3    3    0    0  0.95127099302E+01  0.38282897939E+02  0.19210347490E+03  0.19611174619E+03  0.00000000000E+00 0. -1.
</event>
<event>
 7    1  0.8603016E-006  0.1568334E+03  0.7818608E-02  0.1346632E+00
          2   -1    0    0  502    0  0.00000000000E+00  0.00000000000E+00  0.12407568170E+04  0.12407568170E+04  0.00000000000E+00 0. -1.
          1   -1    0    0  501    0 -0.00000000000E+00 -0.00000000000E+00 -0.15455404036E+04  0.15455404036E+04  0.00000000000E+00 0. -1.
         25    2    1    2    0    0  0.92718798221E+01 -0.17130538471E+03 -0.30666397673E+03  0.37295823850E+03  0.12499420168E+03 0.  0.
          2    1    1    2  501    0  0.29143053177E+02  0.19427912877E+02 -0.12003919876E+04  0.12009028625E+04  0.00000000000E+00 0. -1.
          1    1    1    2  502    0 -0.38414933000E+02  0.15187747183E+03  0.12022723778E+04  0.12124361195E+04  0.00000000000E+00 0. -1.
         22    1    3    3    0    0  0.36044645498E+02  0.38451185579E+00 -0.33497853743E+02  0.49208439559E+02  0.00000000000E+00 0.  1.
         22    1    3    3    0    0 -0.26772765676E+02 -0.17168989657E+03 -0.27316612299E+03  0.32374979894E+03  0.00000000000E+00 0.  1.
</event>
<event>
 7    1  0.6278987E-006  0.1615901E+03  0.7818608E-02  0.1267667E+00
          2   -1    0    0  502    0  0.00000000000E+00  0.00000000000E+00  0.10943674243E+04  0.10943674243E+04  0.00000000000E+00 0. -1.
          1   -1    0    0  501    0 -0.00000000000E+00 -0.00000000000E+00 -0.64020410931E+03  0.64020410931E+03  0.00000000000E+00 0. -1.
         25    2    1    2    0    0  0.59856833668E+02 -0.19131900845E+03 -0.15612131044E+03  0.28316947202E+03  0.12500113109E+03 0.  0.
          2    1    1    2  501    0 -0.87604574642E+02  0.12719684864E+03 -0.40513797725E+03  0.43357857467E+03  0.00000000000E+00 0. -1.
          1    1    1    2  502    0  0.27747740974E+02  0.64122159813E+02  0.10154226027E+04  0.10178234869E+04  0.00000000000E+00 0. -1.
         22    1    3    3    0    0  0.51625094653E+02 -0.15332137218E+03 -0.17637271825E+03  0.23933225715E+03  0.00000000000E+00 0. -1.
         22    1    3    3    0    0  0.82317390152E+01 -0.37997636269E+02  0.20251407811E+02  0.43837214870E+02  0.00000000000E+00 0. -1.
</event>
<event>
 7    1  0.6278987E-006  0.6834678E+02  0.7818608E-02  0.1521920E+00
          2   -1    0    0  502    0  0.00000000000E+00  0.00000000000E+00  0.21709841029E+04  0.21709841029E+04  0.00000000000E+00 0. -1.
          1   -1    0    0  501    0 -0.00000000000E+00 -0.00000000000E+00 -0.42283650553E+03  0.42283650553E+03  0.00000000000E+00 0. -1.
         25    2    1    2    0    0  0.48082074658E+02  0.74983214434E+02  0.76208402082E+02  0.17136631249E+03  0.12499729661E+03 0.  0.
          2    1    1    2  501    0 -0.14291784933E+02 -0.15856128998E+02 -0.37438707514E+03  0.37499513860E+03  0.00000000000E+00 0. -1.
          1    1    1    2  502    0 -0.33790289725E+02 -0.59127085436E+02  0.20463262704E+04  0.20474591574E+04  0.00000000000E+00 0. -1.
         22    1    3    3    0    0  0.33596048375E+02  0.28041430064E+01 -0.27967532783E+02  0.43803431080E+02  0.00000000000E+00 0. -1.
         22    1    3    3    0    0  0.14486026283E+02  0.72179071428E+02  0.10417593486E+03  0.12756288141E+03  0.00000000000E+00 0. -1.
</event>
<event>
 7    1  0.6278987E-006  0.1776319E+03  0.7818608E-02  0.1313738E+00
          2   -1    0    0  502    0  0.00000000000E+00  0.00000000000E+00  0.50236343416E+02  0.50236343416E+02  0.00000000000E+00 0. -1.
          1   -1    0    0  501    0 -0.00000000000E+00 -0.00000000000E+00 -0.23640765021E+04  0.23640765021E+04  0.00000000000E+00 0. -1.
         25    2    1    2    0    0  0.12466423433E+02  0.14936535997E+03 -0.70728517985E+03  0.73371851007E+03  0.12500041567E+03 0.  0.
          2    1    1    2  501    0  0.23060979914E+02  0.34261650410E+02 -0.14050860821E+04  0.14056929137E+04  0.00000000000E+00 0. -1.
          1    1    1    2  502    0 -0.35527403347E+02 -0.18362701038E+03 -0.20146889673E+03  0.27490142175E+03  0.00000000000E+00 0. -1.
         22    1    3    3    0    0  0.50470468991E+02  0.74494250638E+02 -0.52964798595E+03  0.53723705255E+03  0.00000000000E+00 0. -1.
         22    1    3    3    0    0 -0.38004045558E+02  0.74871109333E+02 -0.17763719390E+03  0.19648145751E+03  0.00000000000E+00 0. -1.
</event>
<event>
 7    1  0.6278987E-006  0.5705193E+02  0.7818608E-02  0.1536339E+00
          2   -1    0    0  502    0  0.00000000000E+00  0.00000000000E+00  0.62053240579E+03  0.62053240579E+03  0.00000000000E+00 0. -1.
          1   -1    0    0  501    0 -0.00000000000E+00 -0.00000000000E+00 -0.29958021387E+03  0.29958021387E+03  0.00000000000E+00 0. -1.
         25    2    1    2    0    0  0.77340748047E+01 -0.78520745635E+02  0.66132727726E+02  0.16193987908E+03  0.12500265338E+03 0.  0.
          2    1    1    2  501    0 -0.69683221378E+01  0.22180670621E+02 -0.24956762240E+03  0.25064823521E+03  0.00000000000E+00 0. -1.
          1    1    1    2  502    0 -0.76575266684E+00  0.56340075014E+02  0.50438708659E+03  0.50752450537E+03  0.00000000000E+00 0. -1.
         22    1    3    3    0    0  0.48639930791E+02 -0.82256509619E+02  0.73051636302E+02  0.12028515207E+03  0.00000000000E+00 0.  1.
         22    1    3    3    0    0 -0.40905855987E+02  0.37357639843E+01 -0.69189085751E+01  0.41654727012E+02  0.00000000000E+00 0.  1.
</event>
<event>
 7    1  0.6278987E-006  0.1290865E+03  0.7818608E-02  0.1388847E+00
          2   -1    0    0  502    0  0.00000000000E+00  0.00000000000E+00  0.45880658445E+03  0.45880658445E+03  0.00000000000E+00 0. -1.
          1   -1    0    0  501    0 -0.00000000000E+00 -0.00000000000E+00 -0.75852595732E+03  0.75852595732E+03  0.00000000000E+00 0. -1.
         25    2    1    2    0    0  0.16688604614E+02 -0.10378198031E+03  0.26219183917E+03  0.30890010618E+03  0.12500202444E+03 0.  0.
          2    1    1    2  501    0 -0.14465451784E+01  0.12958149616E+03 -0.72811078524E+03  0.73955308952E+03  0.00000000000E+00 0. -1.
          1    1    1    2  502    0 -0.15242059436E+02 -0.25799515856E+02  0.16619957320E+03  0.16887934606E+03  0.00000000000E+00 0. -1.
         22    1    3    3    0    0 -0.85512689260E+01 -0.81426334630E+02  0.26271695945E+03  0.27517916519E+03  0.00000000000E+00 0.  1.
         22    1    3    3    0    0  0.25239873540E+02 -0.22355645676E+02 -0.52512028881E+00  0.33720940990E+02  0.00000000000E+00 0.  1.
</event>
<event>
 7    1  0.6278987E-006  0.3638688E+02  0.7818608E-02  0.1567592E+00
          2   -1    0    0  502    0  0.00000000000E+00  0.00000000000E+00  0.47174777027E+02  0.47174777027E+02  0.00000000000E+00 0. -1.
          1   -1    0    0  501    0 -0.00000000000E+00 -0.00000000000E+00 -0.13077707773E+04  0.13077707773E+04  0.00000000000E+00 0. -1.
         25    2    1    2    0    0  0.25842931381E+02 -0.41491906511E+01 -0.15374128902E+03  0.19986959779E+03  0.12500559701E+03 0.  0.
          2    1    1    2  501    0 -0.16794820188E+02  0.32582962802E+02 -0.11213178050E+04  0.11219168130E+04  0.00000000000E+00 0. -1.
          1    1    1    2  502    0 -0.90481111923E+01 -0.28433772151E+02  0.14463093805E+02  0.33159143495E+02  0.00000000000E+00 0. -1.
         22    1    3    3    0    0 -0.52536363595E+01  0.48139675612E+02 -0.12198014619E+03  0.13124094303E+03  0.00000000000E+00 0.  1.
         22    1    3    3    0    0  0.31096567740E+02 -0.52288866263E+02 -0.31761142835E+02  0.68628654762E+02  0.00000000000E+00 0.  1.
</event>
<event>
 7    1  0.6278987E-006  0.7598315E+02  0.7818608E-02  0.1491801E+00
          2   -1    0    0  502    0  0.00000000000E+00  0.00000000000E+00  0.38377273287E+03  0.38377273287E+03  0.00000000000E+00 0. -1.
          1   -1    0    0  501    0 -0.00000000000E+00 -0.00000000000E+00 -0.14229157085E+04  0.14229157085E+04  0.00000000000E+00 0. -1.
         25    2    1    2    0    0  0.69899499055E+02  0.45351958170E+02 -0.37564352667E+03  0.40456776180E+03  0.12499709868E+03 0.  0.
          2    1    1    2  501    0  0.28020304934E+01 -0.23403654936E+02 -0.10287695849E+04  0.10290395723E+04  0.00000000000E+00 0. -1.
          1    1    1    2  502    0 -0.72701529548E+02 -0.21948303234E+02  0.36527013595E+03  0.37308110731E+03  0.00000000000E+00 0. -1.
         22    1    3    3    0    0  0.66631227255E+02  0.86361300302E+02 -0.27115960236E+03  0.29227645233E+03  0.00000000000E+00 0.  1.
         22    1    3    3    0    0  0.32682718000E+01 -0.41009342132E+02 -0.10448392431E+03  0.11229130947E+03  0.00000000000E+00 0.  1.
</event>
<event>
 7    1  0.6278987E-006  0.3375338E+02  0.7818608E-02  0.1615443E+00
          2   -1    0    0  502    0  0.00000000000E+00  0.00000000000E+00  0.23245480164E+03  0.23245480164E+03  0.00000000000E+00 0. -1.
          1   -1    0    0  501    0 -0.00000000000E+00 -0.00000000000E+00 -0.27540174145E+03  0.27540174145E+03  0.00000000000E+00 0. -1.
         25    2    1    2    0    0  0.17854123032E+02 -0.22661716553E+02 -0.11889160188E+03  0.17490923878E+03  0.12500282279E+03 0.  0.
          2    1    1    2  501    0 -0.21360119616E+02 -0.11034698988E+02 -0.12595296812E+03  0.12822702317E+03  0.00000000000E+00 0. -1.
          1    1    1    2  502    0  0.35059965840E+01  0.33696415541E+02  0.20189763020E+03  0.20472028114E+03  0.00000000000E+00 0. -1.
         22    1    3    3    0    0 -0.19280955652E+02  0.16391932676E+02 -0.11834004510E+03  0.12101577162E+03  0.00000000000E+00 0.  1.
         22    1    3    3    0    0  0.37135078684E+02 -0.39053649229E+02 -0.55155678429E+00  0.53893467153E+02  0.00000000000E+00 0.  1.
</event>
<event>
 7    1  0.6278987E-006  0.6303053E+02  0.7818608E-02  0.1402493E+00
          2   -1    0    0  502    0  0.00000000000E+00  0.00000000000E+00  0.17457678196E+04  0.17457678196E+04  0.00000000000E+00 0. -1.
          1   -1    0    0  501    0 -0.00000000000E+00 -0.00000000000E+00 -0.10907201323E+03  0.10907201323E+03  0.00000000000E+00 0. -1.
         25    2    1    2    0    0 -0.18076991148E+02  0.95142529421E+01  0.78339445126E+02  0.14894603749E+03  0.12502221724E+03 0.  0.
          2    1    1    2  501    0 -0.38478739218E+02 -0.39362969607E+02 -0.62781026639E+02  0.83495593021E+02  0.00000000000E+00 0. -1.
          1    1    1    2  502    0  0.56555730367E+02  0.29848716664E+02  0.16211373878E+04  0.16223982023E+04  0.00000000000E+00 0. -1.
         22    1    3    3    0    0  0.45349634111E+02 -0.14293178858E+02  0.63945387997E+02  0.79686240481E+02  0.00000000000E+00 0. -1.
         22    1    3    3    0    0 -0.63426625260E+02  0.23807431800E+02  0.14394057129E+02  0.69259797007E+02  0.00000000000E+00 0. -1.
</event>
<event>
 7    1  0.6278987E-006  0.1332008E+03  0.7818608E-02  0.1224632E+00
          2   -1    0    0  502    0  0.00000000000E+00  0.00000000000E+00  0.30852910001E+04  0.30852910001E+04  0.00000000000E+00 0. -1.
          1   -1    0    0  501    0 -0.00000000000E+00 -0.00000000000E+00 -0.28580998747E+03  0.28580998747E+03  0.00000000000E+00 0. -1.
         25    2    1    2    0    0  0.37255886918E+01 -0.12761149123E+02  0.12634662318E+02  0.12634222393E+03  0.12500398361E+03 0.  0.
          2    1    1    2  501    0 -0.12729203117E+03 -0.39232381083E+02 -0.20795579191E+03  0.24695759214E+03  0.00000000000E+00 0. -1.
          1    1    1    2  502    0  0.12356644248E+03  0.51993530206E+02  0.29948021422E+04  0.29978011715E+04  0.00000000000E+00 0. -1.
         22    1    3    3    0    0 -0.52757987456E+02 -0.27639789104E+02  0.28192807428E+02  0.65895353196E+02  0.00000000000E+00 0.  1.
         22    1    3    3    0    0  0.56483576148E+02  0.14878639982E+02 -0.15558145109E+02  0.60446870733E+02  0.00000000000E+00 0.  1.
</event>
<event>
 7    1  0.6278987E-006  0.1244589E+03  0.7818608E-02  0.1297282E+00
          2   -1    0    0  502    0  0.00000000000E+00  0.00000000000E+00  0.41175826752E+03  0.41175826752E+03  0.00000000000E+00 0. -1.
          1   -1    0    0  501    0 -0.00000000000E+00 -0.00000000000E+00 -0.84605805461E+03  0.84605805461E+03  0.00000000000E+00 0. -1.
         25    2    1    2    0    0 -0.13608960308E+03 -0.82158810124E+02 -0.60423368707E+01  0.20230806570E+03  0.12498637311E+03 0.  0.
          2    1    1    2  501    0  0.15183856951E+02  0.66806270930E+02 -0.72837392722E+03  0.73158882250E+03  0.00000000000E+00 0. -1.
          1    1    1    2  502    0  0.12090574613E+03  0.15352539194E+02  0.30011647700E+03  0.32391943393E+03  0.00000000000E+00 0. -1.
         22    1    3    3    0    0 -0.27815884939E+02 -0.87872202061E+02 -0.15532094775E+02  0.93469210535E+02  0.00000000000E+00 0. -1.
         22    1    3    3    0    0 -0.10827371814E+03  0.57133919368E+01  0.94897579041E+01  0.10883885516E+03  0.00000000000E+00 0. -1.
</event>
<event>
 7    1  0.6278987E-006  0.2955345E+02  0.7818608E-02  0.1619705E+00
          2   -1    0    0  502    0  0.00000000000E+00  0.00000000000E+00  0.78703106445E+01  0.78703106445E+01  0.00000000000E+00 0. -1.
          1   -1    0    0  501    0 -0.00000000000E+00 -0.00000000000E+00 -0.27050714551E+04  0.27050714551E+04  0.00000000000E+00 0. -1.
         25    2    1    2    0    0 -0.17631996597E+01  0.78363093370E-01 -0.72611065041E+03  0.73679026538E+03  0.12498041251E+03 0.  0.
          2    1    1    2  501    0 -0.77886513216E+01  0.28508655455E+02 -0.18794357545E+04  0.18796680989E+04  0.00000000000E+00 0. -1.
          1    1    1    2  502    0  0.95518509813E+01 -0.28587018548E+02 -0.91654739542E+02  0.96483401511E+02  0.00000000000E+00 0. -1.
         22    1    3    3    0    0 -0.25502437124E+02  0.47298208585E+02 -0.55766449056E+03  0.56024742647E+03  0.00000000000E+00 0.  1.
         22    1    3    3    0    0  0.23739237464E+02 -0.47219845492E+02 -0.16844615985E+03  0.17654283891E+03  0.00000000000E+00 0.  1.
</event>
<event>
 7    1  0.6278987E-006  0.6771709E+02  0.7818608E-02  0.1413190E+00
          2   -1    0    0  502    0  0.00000000000E+00  0.00000000000E+00  0.13602297711E+04  0.13602297711E+04  0.00000000000E+00 0. -1.
          1   -1    0    0  501    0 -0.00000000000E+00 -0.00000000000E+00 -0.14001714036E+03  0.14001714036E+03  0.00000000000E+00 0. -1.
         25    2    1    2    0    0 -0.14505375327E+02 -0.94109380357E+02  0.11081700498E+04  0.11192551056E+04  0.12499660314E+03 0.  0.
          2    1    1    2  501    0 -0.10234144978E+02  0.45996163703E+02 -0.12723188229E+03  0.13567732556E+03  0.00000000000E+00 0. -1.
          1    1    1    2  502    0  0.24739520305E+02  0.48113216654E+02  0.23927446319E+03  0.24531448025E+03  0.00000000000E+00 0. -1.
         22    1    3    3    0    0  0.38351415651E+02 -0.34024772963E+02  0.16708905372E+03  0.17477776784E+03  0.00000000000E+00 0.  1.
         22    1    3    3    0    0 -0.52856790978E+02 -0.60084607394E+02  0.94108099607E+03  0.94447733777E+03  0.00000000000E+00 0.  1.
</event>
<event>
 7    1  0.6278987E-006  0.9768158E+02  0.7818608E-02  0.1477251E+00
          2   -1    0    0  502    0  0.00000000000E+00  0.00000000000E+00  0.11393878864E+04  0.11393878864E+04  0.00000000000E+00 0. -1.
          1   -1    0    0  501    0 -0.00000000000E+00 -0.00000000000E+00 -0.15271809314E+04  0.15271809314E+04  0.00000000000E+00 0. -1.
         25    2    1    2    0    0  0.21553781390E+02 -0.81525088499E+02 -0.47239862559E+02  0.15801226228E+03  0.12500145947E+03 0.  0.
          2    1    1    2  501    0 -0.92570230907E+01  0.97685042120E+02 -0.14227698464E+04  0.14261493946E+04  0.00000000000E+00 0. -1.
          1    1    1    2  502    0 -0.12296758300E+02 -0.16159953621E+02  0.10822166639E+04  0.10824071609E+04  0.00000000000E+00 0. -1.
         22    1    3    3    0    0  0.62258679978E+02 -0.38353844936E+02  0.12074509753E+02  0.74114468491E+02  0.00000000000E+00 0.  1.
         22    1    3    3    0    0 -0.40704898588E+02 -0.43171243564E+02 -0.59314372313E+02  0.83897793789E+02  0.00000000000E+00 0.  1.
</event>
<event>
 7    1  0.6278987E-006  0.1611716E+03  0.7818608E-02  0.1410072E+00
          2   -1    0    0  502    0  0.00000000000E+00  0.00000000000E+00  0.49918596578E+03  0.49918596578E+03  0.00000000000E+00 0. -1.
          1   -1    0    0  501    0 -0.00000000000E+00 -0.00000000000E+00 -0.38183779103E+03  0.38183779103E+03  0.00000000000E+00 0. -1.
         25    2    1    2    0    0  0.15052897324E+03  0.73082049481E+02 -0.12919034528E+03  0.24558931317E+03  0.12499603070E+03 0.  0.
          2    1    1    2  501    0 -0.15094481564E+02  0.13550568973E+02 -0.17920338952E+03  0.18034776436E+03  0.00000000000E+00 0. -1.
          1    1    1    2  502    0 -0.13543449167E+03 -0.86632618454E+02  0.42574190955E+03  0.45508667928E+03  0.00000000000E+00 0. -1.
         22    1    3    3    0    0  0.15086183121E+03  0.17871305857E+02 -0.10825463339E+03  0.18654152712E+03  0.00000000000E+00 0.  1.
         22    1    3    3    0    0 -0.33285796971E+00  0.55210743625E+02 -0.20935711883E+02  0.59047786055E+02  0.00000000000E+00 0.  1.
</event>
<event>
 7    1  0.6278987E-006  0.8679505E+02  0.7818608E-02  0.1324420E+00
          2   -1    0    0  502    0  0.00000000000E+00  0.00000000000E+00  0.38278704324E+03  0.38278704324E+03  0.00000000000E+00 0. -1.
          1   -1    0    0  501    0 -0.00000000000E+00 -0.00000000000E+00 -0.19957204441E+03  0.19957204441E+03  0.00000000000E+00 0. -1.
         25    2    1    2    0    0  0.30772652638E+02  0.74843654934E+02 -0.13673445315E+02  0.14953511777E+03  0.12500103801E+03 0.  0.
          2    1    1    2  501    0 -0.76786161570E+02  0.22496732894E+01 -0.98029443448E+02  0.12454295412E+03  0.00000000000E+00 0. -1.
          1    1    1    2  502    0  0.46013508933E+02 -0.77093328223E+02  0.29491788759E+03  0.30828101577E+03  0.00000000000E+00 0. -1.
         22    1    3    3    0    0  0.30784454608E+02  0.10374824113E+03  0.14482330735E+02  0.10918387283E+03  0.00000000000E+00 0. -1.
         22    1    3    3    0    0 -0.11801970838E-01 -0.28904586198E+02 -0.28155776050E+02  0.40351244932E+02  0.00000000000E+00 0. -1.
</event>
<event>
 7    1  0.6278987E-006  0.6707595E+02  0.7818608E-02  0.1422087E+00
          2   -1    0    0  502    0  0.00000000000E+00  0.00000000000E+00  0.13944468655E+03  0.13944468655E+03  0.00000000000E+00 0. -1.
          1   -1    0    0  501    0 -0.00000000000E+00 -0.00000000000E+00 -0.58866488232E+03  0.58866488232E+03  0.00000000000E+00 0. -1.
         25    2    1    2    0    0  0.57906014315E+02  0.70413458546E+02 -0.30753366086E+03  0.34425535884E+03  0.12499455143E+03 0.  0.
          2    1    1    2  501    0  0.34302202614E+01 -0.44282307154E+02 -0.25149712086E+03  0.25538890136E+03  0.00000000000E+00 0. -1.
          1    1    1    2  502    0 -0.61336234577E+02 -0.26131151392E+02  0.10981058595E+03  0.12846530867E+03  0.00000000000E+00 0. -1.
         22    1    3    3    0    0  0.79685138155E+02  0.85377243975E+02 -0.28975977035E+03  0.31240953818E+03  0.00000000000E+00 0. -1.
         22    1    3    3    0    0 -0.21779123839E+02 -0.14963785428E+02 -0.17773890514E+02  0.31845820661E+02  0.00000000000E+00 0. -1.
</event>
<event>
 7    1  0.6278987E-006  0.1183296E+03  0.7818608E-02  0.1322188E+00
          2   -1    0    0  502    0  0.00000000000E+00  0.00000000000E+00  0.30537660708E+04  0.30537660708E+04  0.00000000000E+00 0. -1.
          1   -1    0    0  501    0 -0.00000000000E+00 -0.00000000000E+00 -0.87762813699E+03  0.87762813699E+03  0.00000000000E+00 0. -1.
         25    2    1    2    0    0  0.86048190610E+01  0.11236221621E+03  0.52876800606E+03  0.55490538410E+03  0.12500028214E+03 0.  0.
          2    1    1    2  501    0 -0.57425217476E+02 -0.24068337898E+01 -0.86216157572E+03  0.86407524620E+03  0.00000000000E+00 0. -1.
          1    1    1    2  502    0  0.48820398415E+02 -0.10995538242E+03  0.25095315034E+04  0.25124135775E+04  0.00000000000E+00 0. -1.
         22    1    3    3    0    0  0.50342281888E+02  0.10463829645E+03  0.28981766089E+03  0.31221434143E+03  0.00000000000E+00 0.  1.
         22    1    3    3    0    0 -0.41737462827E+02  0.77239197568E+01  0.23895034516E+03  0.24269104267E+03  0.00000000000E+00 0.  1.
</event>
<event>
 7    1  0.6278987E-006  0.4712598E+02  0.7818608E-02  0.1470875E+00
          2   -1    0    0  502    0  0.00000000000E+00  0.00000000000E+00  0.71638131496E+02  0.71638131496E+02  0.00000000000E+00 0. -1.
          1   -1    0    0  501    0 -0.00000000000E+00 -0.00000000000E+00 -0.21452324635E+03  0.21452324635E+03  0.00000000000E+00 0. -1.
         25    2    1    2    0    0 -0.73063854743E+01 -0.30795001434E+02 -0.37852147374E+02  0.13439100349E+03  0.12500576537E+03 0.  0.
          2    1    1    2  501    0  0.37454020501E+02 -0.23179196090E+02 -0.63540863363E+02  0.77314423622E+02  0.00000000000E+00 0. -1.
          1    1    1    2  502    0 -0.30147635026E+02  0.53974197524E+02 -0.41492104120E+02  0.74455950738E+02  0.00000000000E+00 0. -1.
         22    1    3    3    0    0  0.38238410987E+02  0.26585044471E+02 -0.39570044772E+02  0.61112430057E+02  0.00000000000E+00 0. -1.
         22    1    3    3    0    0 -0.45544796461E+02 -0.57380045905E+02  0.17178973973E+01  0.73278573432E+02  0.00000000000E+00 0. -1.
</event>
<event>
 7    1  0.6278987E-006  0.1092418E+03  0.7818608E-02  0.1412374E+00
          2   -1    0    0  502    0  0.00000000000E+00  0.00000000000E+00  0.11018832522E+04  0.11018832522E+04  0.00000000000E+00 0. -1.
          1   -1    0    0  501    0 -0.00000000000E+00 -0.00000000000E+00 -0.73112281430E+02  0.73112281430E+02  0.00000000000E+00 0. -1.
         25    2    1    2    0    0 -0.55103537098E+00  0.11839859381E+03  0.22807362872E+03  0.28576394308E+03  0.12499968156E+03 0.  0.
          2    1    1    2  501    0  0.26362152324E+02 -0.13004882086E+02 -0.35461879873E+02  0.46061208814E+02  0.00000000000E+00 0. -1.
          1    1    1    2  502    0 -0.25811116954E+02 -0.10539371173E+03  0.83615922197E+03  0.84317038179E+03  0.00000000000E+00 0. -1.
         22    1    3    3    0    0 -0.75107198295E+01  0.56103828255E+02  0.82797595318E+01  0.57206685580E+02  0.00000000000E+00 0.  1.
         22    1    3    3    0    0  0.69596844586E+01  0.62294765558E+02  0.21979386918E+03  0.22855725750E+03  0.00000000000E+00 0.  1.
</event>
<event>
 7    1  0.6278987E-006  0.8323077E+02  0.7818608E-02  0.1461297E+00
          2   -1    0    0  502    0  0.00000000000E+00  0.00000000000E+00  0.47290822175E+03  0.47290822175E+03  0.00000000000E+00 0. -1.
          1   -1    0    0  501    0 -0.00000000000E+00 -0.00000000000E+00 -0.35118829818E+03  0.35118829818E+03  0.00000000000E+00 0. -1.
         25    2    1    2    0    0 -0.47920781073E+01  0.96958424489E+02 -0.15388452414E+02  0.15901828022E+03  0.12500443546E+03 0.  0.
          2    1    1    2  501    0  0.21433759235E+02 -0.15955307882E+02 -0.25902796455E+03  0.26040250441E+03  0.00000000000E+00 0. -1.
          1    1    1    2  502    0 -0.16641681128E+02 -0.81003116608E+02  0.39613634054E+03  0.40467573530E+03  0.00000000000E+00 0. -1.
         22    1    3    3    0    0  0.49967021937E+02  0.74061115467E+02  0.17681735296E+02  0.91073573931E+02  0.00000000000E+00 0.  1.
         22    1    3    3    0    0 -0.54759100044E+02  0.22897309022E+02 -0.33070187710E+02  0.67944706293E+02  0.00000000000E+00 0.  1.
</event>
<event>
 7    1  0.6278987E-006  0.1163301E+03  0.7818608E-02  0.1417359E+00
          2   -1    0    0  502    0  0.00000000000E+00  0.00000000000E+00  0.11349199986E+04  0.11349199986E+04  0.00000000000E+00 0. -1.
          1   -1    0    0  501    0 -0.00000000000E+00 -0.00000000000E+00 -0.15703011491E+03  0.15703011491E+03  0.00000000000E+00 0. -1.
         25    2    1    2    0    0 -0.11985276121E+03 -0.14085615531E+02 -0.34959722865E+02  0.17721317537E+03  0.12497695134E+03 0.  0.
          2    1    1    2  501    0  0.10168000839E+02 -0.24534923925E+02 -0.44062180225E+02  0.51447317318E+02  0.00000000000E+00 0. -1.
          1    1    1    2  502    0  0.10968476037E+03  0.38620539455E+02  0.10569117868E+04  0.10632896209E+04  0.00000000000E+00 0. -1.
         22    1    3    3    0    0  0.29379066986E+01  0.30524108036E+02 -0.35048998578E+02  0.46570213318E+02  0.00000000000E+00 0. -1.
         22    1    3    3    0    0 -0.12279066791E+03 -0.44609723566E+02  0.89275712720E-01  0.13064296205E+03  0.00000000000E+00 0. -1.
</event>
<event>
 7    1  0.6278987E-006  0.1902610E+03  0.7818608E-02  0.1234580E+00
          2   -1    0    0  502    0  0.00000000000E+00  0.00000000000E+00  0.60456529512E+03  0.60456529512E+03  0.00000000000E+00 0. -1.
          1   -1    0    0  501    0 -0.00000000000E+00 -0.00000000000E+00 -0.13223709471E+04  0.13223709471E+04  0.00000000000E+00 0. -1.
         25    2    1    2    0    0 -0.19895838704E+03 -0.25107285577E+02 -0.84305658555E+02  0.25089217709E+03  0.12499849958E+03 0.  0.
          2    1    1    2  501    0  0.16439279869E+02  0.80883295853E+02 -0.11357552561E+04  0.11387503498E+04  0.00000000000E+00 0. -1.
          1    1    1    2  502    0  0.18251910717E+03 -0.55776010276E+02  0.50225526259E+03  0.53729371539E+03  0.00000000000E+00 0. -1.
         22    1    3    3    0    0 -0.19627887196E+03 -0.22838865133E+01 -0.10262783317E+03  0.22150188229E+03  0.00000000000E+00 0. -1.
         22    1    3    3    0    0 -0.26795150759E+01 -0.22823399063E+02  0.18322174615E+02  0.29390294801E+02  0.00000000000E+00 0. -1.
</event>
<event>
 7    1  0.6278987E-006  0.5947685E+02  0.7818608E-02  0.1411621E+00
          2   -1    0    0  502    0  0.00000000000E+00  0.00000000000E+00  0.57518102348E+03  0.57518102348E+03  0.00000000000E+00 0. -1.
          1   -1    0    0  501    0 -0.00000000000E+00 -0.00000000000E+00 -0.10924616944E+04  0.10924616944E+04  0.00000000000E+00 0. -1.
         25    2    1    2    0    0 -0.88293771562E+02  0.46433027263E+02 -0.23475978691E+02  0.16163900002E+03  0.12499691450E+03 0.  0.
          2    1    1    2  501    0  0.54281987180E+02  0.16855198694E+01 -0.99744784006E+03  0.99892520679E+03  0.00000000000E+00 0. -1.
          1    1    1    2  502    0  0.34011784382E+02 -0.48118547132E+02  0.50364314782E+03  0.50707851108E+03  0.00000000000E+00 0. -1.
         22    1    3    3    0    0 -0.68510780264E+02 -0.33688319341E+02 -0.20535538194E+02  0.79059080448E+02  0.00000000000E+00 0. -1.
         22    1    3    3    0    0 -0.19782991298E+02  0.80121346604E+02 -0.29404404972E+01  0.82579919572E+02  0.00000000000E+00 0. -1.
</event>
<event>
 7    1  0.6278987E-006  0.1008969E+03  0.7818608E-02  0.1348093E+00
          2   -1    0    0  502    0  0.00000000000E+00  0.00000000000E+00  0.49142379320E+04  0.49142379320E+04  0.00000000000E+00 0. -1.
          1   -1    0    0  501    0 -0.00000000000E+00 -0.00000000000E+00 -0.17558461094E+02  0.17558461094E+02  0.00000000000E+00 0. -1.
         25    2    1    2    0    0  0.60741738954E+02  0.60757901191E+02  0.43325214507E+03  0.45903630878E+03  0.12500332059E+03 0.  0.
          2    1    1    2  501    0 -0.81943710176E+02 -0.11016672526E+03  0.10535589093E+04  0.10624678133E+04  0.00000000000E+00 0. -1.
          1    1    1    2  502    0  0.21201971223E+02  0.49408824071E+02  0.34098684166E+04  0.34102922710E+04  0.00000000000E+00 0. -1.
         22    1    3    3    0    0  0.11310508846E+02  0.60514743472E+01  0.33960542452E+03  0.33984760160E+03  0.00000000000E+00 0. -1.
         22    1    3    3    0    0  0.49431230107E+02  0.54706426844E+02  0.93646720554E+02  0.11918870718E+03  0.00000000000E+00 0. -1.
</event>
<event>
 7    1  0.6278987E-006  0.5661558E+02  0.7818608E-02  0.1523460E+00
          2   -1    0    0  502    0  0.00000000000E+00  0.00000000000E+00  0.10118110241E+04  0.10118110241E+04  0.00000000000E+00 0. -1.
          1   -1    0    0  501    0 -0.00000000000E+00 -0.00000000000E+00 -0.42585462253E+03  0.42585462253E+03  0.00000000000E+00 0. -1.
         25    2    1    2    0    0  0.33051774136E+02 -0.13647933531E+02 -0.79407228332E+02  0.15233579883E+03  0.12498800674E+03 0.  0.
          2    1    1    2  501    0 -0.46211195803E+02  0.35497744800E+02 -0.30707589607E+03  0.31255586773E+03  0.00000000000E+00 0. -1.
          1    1    1    2  502    0  0.13159421666E+02 -0.21849811270E+02  0.97243952596E+03  0.97277398006E+03  0.00000000000E+00 0. -1.
         22    1    3    3    0    0 -0.17588607909E+02  0.91245893873E+01  0.26302417243E+02  0.32930751776E+02  0.00000000000E+00 0.  1.
         22    1    3    3    0    0  0.50640382046E+02 -0.22772522918E+02 -0.10570964558E+03  0.11940504705E+03  0.00000000000E+00 0.  1.
</event>
<event>
 7    1  0.6278987E-006  0.5014913E+02  0.7818608E-02  0.1485608E+00
          2   -1    0    0  502    0  0.00000000000E+00  0.00000000000E+00  0.94637844292E+03  0.94637844292E+03  0.00000000000E+00 0. -1.
          1   -1    0    0  501    0 -0.00000000000E+00 -0.00000000000E+00 -0.90664665887E+02  0.90664665887E+02  0.00000000000E+00 0. -1.
         25    2    1    2    0    0 -0.40902180108E+02 -0.25245122680E+02  0.61078043103E+03  0.62528991601E+03  0.12499775830E+03 0.  0.
          2    1    1    2  501    0 -0.12066832298E+02  0.35284226668E+02 -0.76884607051E+02  0.85450733728E+02  0.00000000000E+00 0. -1.
          1    1    1    2  502    0  0.52969012405E+02 -0.10039103988E+02  0.32181795306E+03  0.32630245907E+03  0.00000000000E+00 0. -1.
         22    1    3    3    0    0 -0.73005562960E+02  0.17428087772E+02  0.26553747087E+03  0.27594147731E+03  0.00000000000E+00 0. -1.
         22    1    3    3    0    0  0.32103382852E+02 -0.42673210452E+02  0.34524296016E+03  0.34934843870E+03  0.00000000000E+00 0. -1.
</event>
<event>
 7    1  0.6278987E-006  0.7455363E+02  0.7818608E-02  0.1421344E+00
          2   -1    0    0  502    0  0.00000000000E+00  0.00000000000E+00  0.24047777172E+03  0.24047777172E+03  0.00000000000E+00 0. -1.
          1   -1    0    0  501    0 -0.00000000000E+00 -0.00000000000E+00 -0.11233329657E+04  0.11233329657E+04  0.00000000000E+00 0. -1.
         25    2    1    2    0    0  0.27545255934E+02  0.35157976653E+02  0.11961430099E+03  0.17868348062E+03  0.12500152319E+03 0.  0.
          2    1    1    2  501    0 -0.14990576424E+02 -0.73335211651E+02 -0.10880282238E+04  0.10905999204E+04  0.00000000000E+00 0. -1.
          1    1    1    2  502    0 -0.12554679510E+02  0.38177234998E+02  0.85558728808E+02  0.94527336390E+02  0.00000000000E+00 0. -1.
         22    1    3    3    0    0  0.57856989904E+02  0.49283601238E+02  0.27729923634E+02  0.80902739734E+02  0.00000000000E+00 0.  1.
         22    1    3    3    0    0 -0.30311733970E+02 -0.14125624586E+02  0.91884377355E+02  0.97780740885E+02  0.00000000000E+00 0.  1.
</event>
<event>
 7    1  0.6278987E-006  0.1420948E+03  0.7818608E-02  0.1247053E+00
          2   -1    0    0  502    0  0.00000000000E+00  0.00000000000E+00  0.12577430062E+03  0.12577430062E+03  0.00000000000E+00 0. -1.
          1   -1    0    0  501    0 -0.00000000000E+00 -0.00000000000E+00 -0.11378900319E+04  0.11378900319E+04  0.00000000000E+00 0. -1.
         25    2    1    2    0    0  0.12251191228E+02 -0.51713762611E+02 -0.88460824222E+03  0.89497638446E+03  0.12500632631E+03 0.  0.
          2    1    1    2  501    0  0.60764060655E+02 -0.76099412039E+02 -0.18627271223E+03  0.21019256624E+03  0.00000000000E+00 0. -1.
          1    1    1    2  502    0 -0.73015251883E+02  0.12781317465E+03  0.58765223134E+02  0.15849538186E+03  0.00000000000E+00 0. -1.
         22    1    3    3    0    0  0.54625032071E+02 -0.54551342315E+01 -0.19679948863E+03  0.20431272927E+03  0.00000000000E+00 0.  1.
         22    1    3    3    0    0 -0.42373840843E+02 -0.46258628380E+02 -0.68780875359E+03  0.69066365519E+03  0.00000000000E+00 0.  1.
</event>
<event>
 7    1  0.6278987E-006  0.2094567E+03  0.7818608E-02  0.1242304E+00
          2   -1    0    0  502    0  0.00000000000E+00  0.00000000000E+00  0.16577929062E+04  0.16577929062E+04  0.00000000000E+00 0. -1.
          1   -1    0    0  501    0 -0.00000000000E+00 -0.00000000000E+00 -0.44899756891E+03  0.44899756891E+03  0.00000000000E+00 0. -1.
         25    2    1    2    0    0 -0.15027823791E+03 -0.14931590886E+03  0.12641546947E+03  0.27656066050E+03  0.12500455425E+03 0.  0.
          2    1    1    2  501    0  0.18936838716E+03  0.92089761130E+02 -0.34337083206E+03  0.40279577762E+03  0.00000000000E+00 0. -1.
          1    1    1    2  502    0 -0.39090149245E+02  0.57226147732E+02  0.14257506999E+04  0.14274340370E+04  0.00000000000E+00 0. -1.
         22    1    3    3    0    0 -0.31407180317E+02  0.19708115847E+02  0.33586912371E+02  0.50029006470E+02  0.00000000000E+00 0.  1.
         22    1    3    3    0    0 -0.11887105760E+03 -0.16902402471E+03  0.92828557096E+02  0.22653165403E+03  0.00000000000E+00 0.  1.
</event>
<event>
 7    1  0.6278987E-006  0.7759386E+02  0.7818608E-02  0.1337391E+00
          2   -1    0    0  502    0  0.00000000000E+00  0.00000000000E+00  0.10317256682E+04  0.10317256682E+04  0.00000000000E+00 0. -1.
          1   -1    0    0  501    0 -0.00000000000E+00 -0.00000000000E+00 -0.27748458389E+03  0.27748458389E+03  0.00000000000E+00 0. -1.
         25    2    1    2    0    0  0.22424728083E+02  0.79391796378E+02  0.62853955697E+02  0.16242148795E+03  0.12499677692E+03 0.  0.
          2    1    1    2  501    0 -0.75683957417E+02 -0.24233684261E+02 -0.21910622109E+03  0.23307266889E+03  0.00000000000E+00 0. -1.
          1    1    1    2  502    0  0.53259229334E+02 -0.55158112117E+02  0.91049334974E+03  0.91371609527E+03  0.00000000000E+00 0. -1.
         22    1    3    3    0    0 -0.33227083603E+02  0.56381596111E+02  0.76499949218E+02  0.10067356006E+03  0.00000000000E+00 0. -1.
         22    1    3    3    0    0  0.55651811685E+02  0.23010200266E+02 -0.13645993521E+02  0.61747927895E+02  0.00000000000E+00 0. -1.
</event>
<event>
 7    1  0.6278987E-006  0.5754978E+02  0.7818608E-02  0.1474232E+00
          2   -1    0    0  502    0  0.00000000000E+00  0.00000000000E+00  0.83998841164E+03  0.83998841164E+03  0.00000000000E+00 0. -1.
          1   -1    0    0  501    0 -0.00000000000E+00 -0.00000000000E+00 -0.11950942061E+04  0.11950942061E+04  0.00000000000E+00 0. -1.
         25    2    1    2    0    0  0.40756596889E+02  0.77630459849E+02 -0.42371777492E+02  0.15845786704E+03  0.12500375839E+03 0.  0.
          2    1    1    2  501    0 -0.23746532566E+01 -0.35134330716E+02 -0.10933471532E+04  0.10939140997E+04  0.00000000000E+00 0. -1.
          1    1    1    2  502    0 -0.38381943632E+02 -0.42496129133E+02  0.78061313627E+03  0.78271065095E+03  0.00000000000E+00 0. -1.
         22    1    3    3    0    0  0.67768570516E+02  0.87130571210E+02 -0.59189316035E+02  0.12525051186E+03  0.00000000000E+00 0.  1.
         22    1    3    3    0    0 -0.27011973627E+02 -0.95001113612E+01  0.16817538543E+02  0.33207355175E+02  0.00000000000E+00 0.  1.
</event>
<event>
 7    1  0.6278987E-006  0.4211621E+02  0.7818608E-02  0.1574758E+00
          2   -1    0    0  502    0  0.00000000000E+00  0.00000000000E+00  0.81791025416E+03  0.81791025416E+03  0.00000000000E+00 0. -1.
          1   -1    0    0  501    0 -0.00000000000E+00 -0.00000000000E+00 -0.14042354966E+02  0.14042354966E+02  0.00000000000E+00 0. -1.
         25    2    1    2    0    0  0.12433450574E+02  0.18276810341E+02  0.40934219623E+03  0.42857556819E+03  0.12500940582E+03 0.  0.
          2    1    1    2  501    0  0.23613041566E+01  0.24537739463E+02  0.48563293630E+02  0.54461636988E+02  0.00000000000E+00 0. -1.
          1    1    1    2  502    0 -0.14794754730E+02 -0.42814549804E+02  0.34596240933E+03  0.34891540395E+03  0.00000000000E+00 0. -1.
         22    1    3    3    0    0  0.17634905445E+02 -0.31329195020E+02  0.32553526801E+02  0.48499901627E+02  0.00000000000E+00 0.  1.
         22    1    3    3    0    0 -0.52014548716E+01  0.49606005361E+02  0.37678866943E+03  0.38007566656E+03  0.00000000000E+00 0.  1.
</event>
<event>
 7    1  0.6278987E-006  0.2216131E+03  0.7818608E-02  0.1267089E+00
          2   -1    0    0  502    0  0.00000000000E+00  0.00000000000E+00  0.53294866999E+03  0.53294866999E+03  0.00000000000E+00 0. -1.
          1   -1    0    0  501    0 -0.00000000000E+00 -0.00000000000E+00 -0.55694737793E+03  0.55694737793E+03  0.00000000000E+00 0. -1.
         25    2    1    2    0    0 -0.21671065412E+03  0.15969070206E+03  0.36326519481E+03  0.46909393099E+03  0.12499154530E+03 0.  0.
          2    1    1    2  501    0  0.18119715941E+03 -0.12276558829E+03 -0.47285354818E+03  0.52105112827E+03  0.00000000000E+00 0. -1.
          1    1    1    2  502    0  0.35513494715E+02 -0.36925113771E+02  0.85589645431E+02  0.99750988661E+02  0.00000000000E+00 0. -1.
         22    1    3    3    0    0 -0.20756923670E+03  0.97396423027E+02  0.31574303640E+03  0.39021111758E+03  0.00000000000E+00 0. -1.
         22    1    3    3    0    0 -0.91414174241E+01  0.62294279030E+02  0.47522158402E+02  0.78882813411E+02  0.00000000000E+00 0. -1.
</event>
<event>
 7    1  0.6278987E-006  0.1315937E+03  0.7818608E-02  0.1287616E+00
          2   -1    0    0  502    0  0.00000000000E+00  0.00000000000E+00  0.25652360757E+03  0.25652360757E+03  0.00000000000E+00 0. -1.
          1   -1    0    0  501    0 -0.00000000000E+00 -0.00000000000E+00 -0.91021262843E+03  0.91021262843E+03  0.00000000000E+00 0. -1.
         25    2    1    2    0    0 -0.14849111419E+03  0.11303378782E+03 -0.43653736943E+02  0.22880747283E+03  0.12498384972E+03 0.  0.
          2    1    1    2  501    0  0.78433082118E+02 -0.10207751978E+03 -0.76064499215E+03  0.77146119312E+03  0.00000000000E+00 0. -1.
          1    1    1    2  502    0  0.70058032069E+02 -0.10956268048E+02  0.15060970822E+03  0.16646757005E+03  0.00000000000E+00 0. -1.
         22    1    3    3    0    0 -0.10858039275E+03  0.66216602841E+02 -0.86526785550E+02  0.15382205563E+03  0.00000000000E+00 0.  1.
         22    1    3    3    0    0 -0.39910721441E+02  0.46817184982E+02  0.42873048608E+02  0.74985417199E+02  0.00000000000E+00 0.  1.
</event>
<event>
 7    1  0.6278987E-006  0.2059574E+03  0.7818608E-02  0.1273014E+00
          2   -1    0    0  502    0  0.00000000000E+00  0.00000000000E+00  0.27925015915E+03  0.27925015915E+03  0.00000000000E+00 0. -1.
          1   -1    0    0  501    0 -0.00000000000E+00 -0.00000000000E+00 -0.68429916597E+03  0.68429916597E+03  0.00000000000E+00 0. -1.
         25    2    1    2    0    0 -0.15473422507E+03  0.16844138588E+03 -0.49143598898E+03  0.55628145580E+03  0.12499818364E+03 0.  0.
          2    1    1    2  501    0 -0.12339107511E+02 -0.50573090052E+02 -0.11129375366E+03  0.12286655613E+03  0.00000000000E+00 0. -1.
          1    1    1    2  502    0  0.16707333258E+03 -0.11786829583E+03  0.19768073583E+03  0.28440131318E+03  0.00000000000E+00 0. -1.
         22    1    3    3    0    0 -0.33645321326E+02  0.12756961273E+03 -0.22625402874E+03  0.26191009767E+03  0.00000000000E+00 0. -1.
         22    1    3    3    0    0 -0.12108890374E+03  0.40871773151E+02 -0.26518196024E+03  0.29437135813E+03  0.00000000000E+00 0. -1.
</event>
<event>
 7    1  0.6278987E-006  0.9692036E+02  0.7818608E-02  0.1423924E+00
          2   -1    0    0  502    0  0.00000000000E+00  0.00000000000E+00  0.18285206145E+04  0.18285206145E+04  0.00000000000E+00 0. -1.
          1   -1    0    0  501    0 -0.00000000000E+00 -0.00000000000E+00 -0.65472123392E+03  0.65472123392E+03  0.00000000000E+00 0. -1.
         25    2    1    2    0    0  0.22470082273E+02  0.12443913440E+03  0.98303332722E+02  0.20318113369E+03  0.12501609934E+03 0.  0.
          2    1    1    2  501    0 -0.50946637975E+01 -0.29877709038E+02 -0.60052244985E+03  0.60128682496E+03  0.00000000000E+00 0. -1.
          1    1    1    2  502    0 -0.17375418476E+02 -0.94561425364E+02  0.16760184977E+04  0.16787738897E+04  0.00000000000E+00 0. -1.
         22    1    3    3    0    0  0.60590672578E+01 -0.23135178888E+02  0.33527331358E+02  0.41182893854E+02  0.00000000000E+00 0.  1.
         22    1    3    3    0    0  0.16411015016E+02  0.14757431329E+03  0.64776001364E+02  0.16199823983E+03  0.00000000000E+00 0.  1.
</event>
<event>
 7    1  0.6278987E-006  0.1231776E+03  0.7818608E-02  0.1338208E+00
          2   -1    0    0  502    0  0.00000000000E+00  0.00000000000E+00  0.58066579289E+02  0.58066579289E+02  0.00000000000E+00 0. -1.
          1   -1    0    0  501    0 -0.00000000000E+00 -0.00000000000E+00 -0.10088758705E+04  0.10088758705E+04  0.00000000000E+00 0. -1.
         25    2    1    2    0    0  0.13739555921E+01  0.99490879209E+02 -0.19917356458E+03  0.25533537849E+03  0.12500289549E+03 0.  0.
          2    1    1    2  501    0  0.26662572034E+02  0.39863164641E+02 -0.60672564960E+03  0.60861808922E+03  0.00000000000E+00 0. -1.
          1    1    1    2  502    0 -0.28036527627E+02 -0.13935404385E+03 -0.14491007701E+03  0.20298898206E+03  0.00000000000E+00 0. -1.
         22    1    3    3    0    0 -0.40129186840E+02  0.52241511161E+02 -0.25521174856E+02  0.70646001237E+02  0.00000000000E+00 0. -1.
         22    1    3    3    0    0  0.41503142432E+02  0.47249368048E+02 -0.17365238972E+03  0.18468937725E+03  0.00000000000E+00 0. -1.
</event>
<event>
 7    1  0.6278987E-006  0.1345025E+03  0.7818608E-02  0.1279948E+00
          2   -1    0    0  502    0  0.00000000000E+00  0.00000000000E+00  0.67550252676E+03  0.67550252676E+03  0.00000000000E+00 0. -1.
          1   -1    0    0  501    0 -0.00000000000E+00 -0.00000000000E+00 -0.29897133840E+03  0.29897133840E+03  0.00000000000E+00 0. -1.
         25    2    1    2    0    0 -0.18253795179E+03  0.18393703472E+01 -0.11158122269E+03  0.24778866698E+03  0.12500146841E+03 0.  0.
          2    1    1    2  501    0  0.58551687229E+02  0.46216996185E+02 -0.99420241098E+02  0.12429277997E+03  0.00000000000E+00 0. -1.
          1    1    1    2  502    0  0.12398626456E+03 -0.48056366532E+02  0.58753265215E+03  0.60239241820E+03  0.00000000000E+00 0. -1.
         22    1    3    3    0    0 -0.97844063927E+02 -0.18164118593E+02 -0.12495719476E+03  0.15974259473E+03  0.00000000000E+00 0.  1.
         22    1    3    3    0    0 -0.84693887858E+02  0.20003488940E+02  0.13375972070E+02  0.88046072253E+02  0.00000000000E+00 0.  1.
</event>
<event>
 7    1  0.6278987E-006  0.1531460E+03  0.7818608E-02  0.1228600E+00
          2   -1    0    0  502    0  0.00000000000E+00  0.00000000000E+00  0.19938365943E+04  0.19938365943E+04  0.00000000000E+00 0. -1.
          1   -1    0    0  501    0 -0.00000000000E+00 -0.00000000000E+00 -0.65771750293E+02  0.65771750293E+02  0.00000000000E+00 0. -1.
         25    2    1    2    0    0 -0.20041354314E+03 -0.13119273491E+03  0.98853936482E+03  0.10247985856E+04  0.12499977296E+03 0.  0.
          2    1    1    2  501    0  0.86904793023E+02  0.65877641622E+02  0.26215727303E+02  0.11215868702E+03  0.00000000000E+00 0. -1.
          1    1    1    2  502    0  0.11350875011E+03  0.65315093290E+02  0.91330975185E+03  0.92265107196E+03  0.00000000000E+00 0. -1.
         22    1    3    3    0    0 -0.10202246907E+02 -0.60594486503E+02  0.33149144072E+03  0.33713847735E+03  0.00000000000E+00 0. -1.
         22    1    3    3    0    0 -0.19021129623E+03 -0.70598248409E+02  0.65704792409E+03  0.68766010823E+03  0.00000000000E+00 0. -1.
</event>
<event>
 7    1  0.6278987E-006  0.2467858E+03  0.7818608E-02  0.1285081E+00
          2   -1    0    0  502    0  0.00000000000E+00  0.00000000000E+00  0.59472681906E+03  0.59472681906E+03  0.00000000000E+00 0. -1.
          1   -1    0    0  501    0 -0.00000000000E+00 -0.00000000000E+00 -0.16002960254E+04  0.16002960254E+04  0.00000000000E+00 0. -1.
         25    2    1    2    0    0 -0.76834731336E+01  0.27942783903E+03 -0.51376243130E+03  0.59809389734E+03  0.12500208494E+03 0.  0.
          2    1    1    2  501    0  0.17741759744E+02 -0.34421546174E+02 -0.10167763194E+04  0.10175134871E+04  0.00000000000E+00 0. -1.
          1    1    1    2  502    0 -0.10058286611E+02 -0.24500629286E+03  0.52496954439E+03  0.57941545993E+03  0.00000000000E+00 0. -1.
         22    1    3    3    0    0  0.26262612329E+02  0.26260159590E+03 -0.40964237185E+03  0.48729477300E+03  0.00000000000E+00 0. -1.
         22    1    3    3    0    0 -0.33946085462E+02  0.16826243132E+02 -0.10412005944E+03  0.11079912434E+03  0.00000000000E+00 0. -1.
</event>
<event>
 7    1  0.6278987E-006  0.2194954E+03  0.7818608E-02  0.1329387E+00
          2   -1    0    0  502    0  0.00000000000E+00  0.00000000000E+00  0.19697317240E+04  0.19697317240E+04  0.00000000000E+00 0. -1.
          1   -1    0    0  501    0 -0.00000000000E+00 -0.00000000000E+00 -0.68726460119E+02  0.68726460119E+02  0.00000000000E+00 0. -1.
         25    2    1    2    0    0 -0.15480947440E+03  0.12521531757E+03  0.49294098444E+03  0.54613258535E+03  0.12500055008E+03 0.  0.
          2    1    1    2  501    0 -0.27782318444E+02  0.85617768860E+01 -0.26906335969E+02  0.39612020358E+02  0.00000000000E+00 0. -1.
          1    1    1    2  502    0  0.18259179284E+03 -0.13377709445E+03  0.14349706154E+04  0.14527135784E+04  0.00000000000E+00 0. -1.
         22    1    3    3    0    0 -0.11034992637E+03  0.12152147303E+03  0.46588457412E+03  0.49395648701E+03  0.00000000000E+00 0.  1.
         22    1    3    3    0    0 -0.44459548028E+02  0.36938445397E+01  0.27056410320E+02  0.52176098337E+02  0.00000000000E+00 0.  1.
</event>
<event>
 7    1  0.6278987E-006  0.5031914E+02  0.7818608E-02  0.1525874E+00
          2   -1    0    0  502    0  0.00000000000E+00  0.00000000000E+00  0.36736272121E+03  0.36736272121E+03  0.00000000000E+00 0. -1.
          1   -1    0    0  501    0 -0.00000000000E+00 -0.00000000000E+00 -0.13302557229E+04  0.13302557229E+04  0.00000000000E+00 0. -1.
         25    2    1    2    0    0  0.22189829260E+02 -0.13081781634E+02 -0.11990651144E+03  0.17511461942E+03  0.12499614761E+03 0.  0.
          2    1    1    2  501    0 -0.31859992082E+02  0.39616144737E+02 -0.11816107722E+04  0.11827039000E+04  0.00000000000E+00 0. -1.
          1    1    1    2  502    0  0.96701628220E+01 -0.26534363104E+02  0.33862428198E+03  0.33979992469E+03  0.00000000000E+00 0. -1.
         22    1    3    3    0    0 -0.42262457784E+02  0.21120429060E+02 -0.19772388600E+02  0.51216552134E+02  0.00000000000E+00 0.  1.
         22    1    3    3    0    0  0.64452287044E+02 -0.34202210693E+02 -0.10013412284E+03  0.12389806729E+03  0.00000000000E+00 0.  1.
</event>
<event>
 7    1  0.6278987E-006  0.5153191E+02  0.7818608E-02  0.1519551E+00
          2   -1    0    0  502    0  0.00000000000E+00  0.00000000000E+00  0.13374223833E+03  0.13374223833E+03  0.00000000000E+00 0. -1.
          1   -1    0    0  501    0 -0.00000000000E+00 -0.00000000000E+00 -0.12064835694E+04  0.12064835694E+04  0.00000000000E+00 0. -1.
         25    2    1    2    0    0  0.55373403177E+02 -0.56104111498E+02 -0.15907399731E+03  0.21713008216E+03  0.12500820314E+03 0.  0.
          2    1    1    2  501    0 -0.16647618188E+02  0.23456083866E+02 -0.10120400266E+04  0.10124486884E+04  0.00000000000E+00 0. -1.
          1    1    1    2  502    0 -0.38725784989E+02  0.32648027632E+02  0.98372692895E+02  0.11064703719E+03  0.00000000000E+00 0. -1.
         22    1    3    3    0    0  0.64712688326E+01  0.43194695716E+01  0.20244508125E+02  0.21688136087E+02  0.00000000000E+00 0.  1.
         22    1    3    3    0    0  0.48902134344E+02 -0.60423581069E+02 -0.17931850543E+03  0.19544194607E+03  0.00000000000E+00 0.  1.
</event>
<event>
 7    1  0.6278987E-006  0.6304371E+02  0.7818608E-02  0.1388841E+00
          2   -1    0    0  502    0  0.00000000000E+00  0.00000000000E+00  0.53546989880E+03  0.53546989880E+03  0.00000000000E+00 0. -1.
          1   -1    0    0  501    0 -0.00000000000E+00 -0.00000000000E+00 -0.32209050940E+03  0.32209050940E+03  0.00000000000E+00 0. -1.
         25    2    1    2    0    0 -0.91711344137E+01  0.14338229303E+02 -0.76675972812E+02  0.14762069240E+03  0.12499187771E+03 0.  0.
          2    1    1    2  501    0 -0.16433522477E+02 -0.70100195694E+02 -0.20180610713E+03  0.21426572982E+03  0.00000000000E+00 0. -1.
          1    1    1    2  502    0  0.25604656891E+02  0.55761966391E+02  0.49186146935E+03  0.49567398598E+03  0.00000000000E+00 0. -1.
         22    1    3    3    0    0  0.31199104726E+02 -0.29085208638E+02 -0.77344947546E+02  0.88326521544E+02  0.00000000000E+00 0. -1.
         22    1    3    3    0    0 -0.40370239140E+02  0.43423437940E+02  0.66897473399E+00  0.59294170860E+02  0.00000000000E+00 0. -1.
</event>
<event>
 7    1  0.6278987E-006  0.3565332E+02  0.7818608E-02  0.1569420E+00
          2   -1    0    0  502    0  0.00000000000E+00  0.00000000000E+00  0.34392601689E+03  0.34392601689E+03  0.00000000000E+00 0. -1.
          1   -1    0    0  501    0 -0.00000000000E+00 -0.00000000000E+00 -0.36453363522E+03  0.36453363522E+03  0.00000000000E+00 0. -1.
         25    2    1    2    0    0  0.30145844608E+02  0.10242156675E+02  0.26397500727E+03  0.29380482547E+03  0.12499918914E+03 0.  0.
          2    1    1    2  501    0 -0.11434295892E+02 -0.33826764863E+02 -0.34516361642E+03  0.34700564152E+03  0.00000000000E+00 0. -1.
          1    1    1    2  502    0 -0.18711548716E+02  0.23584608188E+02  0.60580990816E+02  0.67649185117E+02  0.00000000000E+00 0. -1.
         22    1    3    3    0    0 -0.15953174238E+02 -0.43587285316E+02  0.49199211392E+02  0.67638137253E+02  0.00000000000E+00 0. -1.
         22    1    3    3    0    0  0.46099018846E+02  0.53829441991E+02  0.21477579588E+03  0.22616668822E+03  0.00000000000E+00 0. -1.
</event>
<event>
 7    1  0.6278987E-006  0.1040866E+03  0.7818608E-02  0.1289698E+00
          2   -1    0    0  502    0  0.00000000000E+00  0.00000000000E+00  0.80188203361E+03  0.80188203361E+03  0.00000000000E+00 0. -1.
          1   -1    0    0  501    0 -0.00000000000E+00 -0.00000000000E+00 -0.14363968559E+03  0.14363968559E+03  0.00000000000E+00 0. -1.
         25    2    1    2    0    0 -0.12935515051E+03  0.92957138082E+02  0.83959577580E+02  0.21919818357E+03  0.12499939411E+03 0.  0.
          2    1    1    2  501    0  0.27890926625E+02 -0.83372735843E+02 -0.44964414729E+02  0.98745711106E+02  0.00000000000E+00 0. -1.
          1    1    1    2  502    0  0.10146422388E+03 -0.95844022386E+01  0.61924718517E+03  0.62757782452E+03  0.00000000000E+00 0. -1.
         22    1    3    3    0    0  0.15125135781E+02  0.54099951655E+01  0.42235080070E+02  0.45186721154E+02  0.00000000000E+00 0.  1.
         22    1    3    3    0    0 -0.14448028629E+03  0.87547142916E+02  0.41724497510E+02  0.17401146241E+03  0.00000000000E+00 0.  1.
</event>
<event>
 7    1  0.6278987E-006  0.8850488E+02  0.7818608E-02  0.1361611E+00
          2   -1    0    0  502    0  0.00000000000E+00  0.00000000000E+00  0.37793592918E+04  0.37793592918E+04  0.00000000000E+00 0. -1.
          1   -1    0    0  501    0 -0.00000000000E+00 -0.00000000000E+00 -0.28050613593E+03  0.28050613593E+03  0.00000000000E+00 0. -1.
         25    2    1    2    0    0  0.58651905720E+02  0.61476768957E+02  0.83371140134E+03  0.84730072761E+03  0.12499753242E+03 0.  0.
          2    1    1    2  501    0 -0.87402265881E+02 -0.14984944487E+02 -0.26626749348E+03  0.28064583148E+03  0.00000000000E+00 0. -1.
          1    1    1    2  502    0  0.28750360161E+02 -0.46491824470E+02  0.29314092480E+04  0.29319188687E+04  0.00000000000E+00 0. -1.
         22    1    3    3    0    0  0.92678854992E+02  0.18122348405E+02  0.58342664974E+03  0.59101983495E+03  0.00000000000E+00 0. -1.
         22    1    3    3    0    0 -0.34026949272E+02  0.43354420552E+02  0.25028475160E+03  0.25628089266E+03  0.00000000000E+00 0. -1.
</event>
<event>
 7    1  0.6278987E-006  0.9766828E+02  0.7818608E-02  0.1359474E+00
          2   -1    0    0  502    0  0.00000000000E+00  0.00000000000E+00  0.11085853120E+04  0.11085853120E+04  0.00000000000E+00 0. -1.
          1   -1    0    0  501    0 -0.00000000000E+00 -0.00000000000E+00 -0.22137630973E+03  0.22137630973E+03  0.00000000000E+00 0. -1.
         25    2    1    2    0    0  0.54902134149E+02 -0.11436335534E+03  0.29726237024E+02  0.18056178590E+03  0.12500275190E+03 0.  0.
          2    1    1    2  501    0  0.15769241568E+02  0.47902891108E+02 -0.13917560814E+03  0.14803109760E+03  0.00000000000E+00 0. -1.
          1    1    1    2  502    0 -0.70671375717E+02  0.66460464233E+02  0.99665837337E+03  0.10013687382E+04  0.00000000000E+00 0. -1.
         22    1    3    3    0    0 -0.20085898463E+02  0.12643311687E+02  0.22794080403E+02  0.32906940741E+02  0.00000000000E+00 0.  1.
         22    1    3    3    0    0  0.74988032612E+02 -0.12700666703E+03  0.69321566211E+01  0.14765484516E+03  0.00000000000E+00 0.  1.
</event>
<event>
 7    1  0.6278987E-006  0.6739949E+02  0.7818608E-02  0.1436338E+00
          2   -1    0    0  502    0  0.00000000000E+00  0.00000000000E+00  0.18122462863E+03  0.18122462863E+03  0.00000000000E+00 0. -1.
          1   -1    0    0  501    0 -0.00000000000E+00 -0.00000000000E+00 -0.57489834364E+03  0.57489834364E+03  0.00000000000E+00 0. -1.
         25    2    1    2    0    0  0.32987531194E+02  0.38187850995E+02  0.22570397168E+02  0.13667901921E+03  0.12500096914E+03 0.  0.
          2    1    1    2  501    0 -0.66076248434E+01 -0.67816405600E+02 -0.51162492058E+03  0.51614221387E+03  0.00000000000E+00 0. -1.
          1    1    1    2  502    0 -0.26379906351E+02  0.29628554605E+02  0.95380808405E+02  0.10330173919E+03  0.00000000000E+00 0. -1.
         22    1    3    3    0    0  0.50619107188E+02  0.73097545393E+02  0.35130961368E+02  0.95601933043E+02  0.00000000000E+00 0. -1.
         22    1    3    3    0    0 -0.17631575994E+02 -0.34909694398E+02 -0.12560564199E+02  0.41077086167E+02  0.00000000000E+00 0. -1.
</event>
<event>
 7    1  0.6278987E-006  0.2469354E+03  0.7818608E-02  0.1288543E+00
          2   -1    0    0  502    0  0.00000000000E+00  0.00000000000E+00  0.12124468373E+03  0.12124468373E+03  0.00000000000E+00 0. -1.
          1   -1    0    0  501    0 -0.00000000000E+00 -0.00000000000E+00 -0.20194926349E+04  0.20194926349E+04  0.00000000000E+00 0. -1.
         25    2    1    2    0    0 -0.13700623706E+03 -0.16995799714E+03 -0.54761414704E+03  0.60262982537E+03  0.12500009041E+03 0.  0.
          2    1    1    2  501    0 -0.25960070791E+02 -0.27006809484E+02 -0.12692794284E+04  0.12698320993E+04  0.00000000000E+00 0. -1.
          1    1    1    2  502    0  0.16296630785E+03  0.19696480663E+03 -0.81354375703E+02  0.26827539393E+03  0.00000000000E+00 0. -1.
         22    1    3    3    0    0 -0.63721614461E+01  0.19526391933E+02 -0.60262235398E+02  0.63666485992E+02  0.00000000000E+00 0.  1.
         22    1    3    3    0    0 -0.13063407562E+03 -0.18948438907E+03 -0.48735191164E+03  0.53896333938E+03  0.00000000000E+00 0.  1.
</event>
<event>
 7    1  0.6278987E-006  0.8708328E+02  0.7818608E-02  0.1424242E+00
          2   -1    0    0  502    0  0.00000000000E+00  0.00000000000E+00  0.18730788719E+03  0.18730788719E+03  0.00000000000E+00 0. -1.
          1   -1    0    0  501    0 -0.00000000000E+00 -0.00000000000E+00 -0.10668288092E+04  0.10668288092E+04  0.00000000000E+00 0. -1.
         25    2    1    2    0    0 -0.68444077330E+01 -0.71571862649E+02  0.80561801446E+02  0.16518383578E+03  0.12500447316E+03 0.  0.
          2    1    1    2  501    0  0.14294512301E+02 -0.30463843127E+02 -0.98343799758E+03  0.98401355372E+03  0.00000000000E+00 0. -1.
          1    1    1    2  502    0 -0.74501045683E+01  0.10203570578E+03  0.23355274086E+02  0.10493930693E+03  0.00000000000E+00 0. -1.
         22    1    3    3    0    0  0.55075291706E+02 -0.36529571079E+02  0.13584789186E+02  0.67470318044E+02  0.00000000000E+00 0.  1.
         22    1    3    3    0    0 -0.61919699439E+02 -0.35042291569E+02  0.66977012260E+02  0.97713517736E+02  0.00000000000E+00 0.  1.
</event>
<event>
 7    1  0.6278987E-006  0.7426702E+02  0.7818608E-02  0.1364770E+00
          2   -1    0    0  502    0  0.00000000000E+00  0.00000000000E+00  0.26815973002E+02  0.26815973002E+02  0.00000000000E+00 0. -1.
          1   -1    0    0  501    0 -0.00000000000E+00 -0.00000000000E+00 -0.17319717899E+04  0.17319717899E+04  0.00000000000E+00 0. -1.
         25    2    1    2    0    0 -0.49247595167E+02  0.25390163222E+02 -0.84658296192E+03  0.85755355579E+03  0.12500161442E+03 0.  0.
          2    1    1    2  501    0  0.25720160640E+02 -0.84311192335E+02 -0.82453935145E+03  0.82923762933E+03  0.00000000000E+00 0. -1.
          1    1    1    2  502    0  0.23527434527E+02  0.58921029113E+02 -0.34033503490E+02  0.71996577745E+02  0.00000000000E+00 0. -1.
         22    1    3    3    0    0 -0.17498135316E+02  0.44255187680E+02 -0.77970593080E+03  0.78115686319E+03  0.00000000000E+00 0. -1.
         22    1    3    3    0    0 -0.31749459851E+02 -0.18865024458E+02 -0.66877031118E+02  0.76396692597E+02  0.00000000000E+00 0. -1.
</event>
<event>
 7    1  0.6278987E-006  0.6297202E+02  0.7818608E-02  0.1439371E+00
          2   -1    0    0  502    0  0.00000000000E+00  0.00000000000E+00  0.11615872442E+03  0.11615872442E+03  0.00000000000E+00 0. -1.
          1   -1    0    0  501    0 -0.00000000000E+00 -0.00000000000E+00 -0.63517845420E+03  0.63517845420E+03  0.00000000000E+00 0. -1.
         25    2    1    2    0    0 -0.94051971860E+02  0.29747820643E+02 -0.29112927198E+03  0.33183268237E+03  0.12500387929E+03 0.  0.
          2    1    1    2  501    0  0.52838006528E+02 -0.24837103881E+02 -0.31640250947E+03  0.32174412918E+03  0.00000000000E+00 0. -1.
          1    1    1    2  502    0  0.41213965332E+02 -0.49107167621E+01  0.88512051678E+02  0.97760367070E+02  0.00000000000E+00 0. -1.
         22    1    3    3    0    0 -0.14323576125E+02  0.48217169852E+02 -0.30888194647E+02  0.59026611541E+02  0.00000000000E+00 0. -1.
         22    1    3    3    0    0 -0.79728395735E+02 -0.18469349209E+02 -0.26024107734E+03  0.27280607083E+03  0.00000000000E+00 0. -1.
</event>
<event>
 7    1  0.6278987E-006  0.1074550E+03  0.7818608E-02  0.1291057E+00
          2   -1    0    0  502    0  0.00000000000E+00  0.00000000000E+00  0.17364993691E+04  0.17364993691E+04  0.00000000000E+00 0. -1.
          1   -1    0    0  501    0 -0.00000000000E+00 -0.00000000000E+00 -0.12269118503E+04  0.12269118503E+04  0.00000000000E+00 0. -1.
         25    2    1    2    0    0  0.12506120539E+03  0.10693007465E+03  0.81363473240E+02  0.22208092309E+03  0.12500230264E+03 0.  0.
          2    1    1    2  501    0 -0.83609587288E+02 -0.89052078636E+01 -0.11532339501E+04  0.11562951222E+04  0.00000000000E+00 0. -1.
          1    1    1    2  502    0 -0.41451618100E+02 -0.98024866789E+02  0.15814579956E+04  0.15850351741E+04  0.00000000000E+00 0. -1.
         22    1    3    3    0    0  0.50348822596E+02  0.57948032281E+01  0.81932558683E+02  0.96340686388E+02  0.00000000000E+00 0.  1.
         22    1    3    3    0    0  0.74712382792E+02  0.10113527142E+03 -0.56908544354E+00  0.12574023671E+03  0.00000000000E+00 0.  1.
</event>
<event>
 7    1  0.6278987E-006  0.6586717E+02  0.7818608E-02  0.1388401E+00
          2   -1    0    0  502    0  0.00000000000E+00  0.00000000000E+00  0.13754195900E+04  0.13754195900E+04  0.00000000000E+00 0. -1.
          1   -1    0    0  501    0 -0.00000000000E+00 -0.00000000000E+00 -0.12983259533E+04  0.12983259533E+04  0.00000000000E+00 0. -1.
         25    2    1    2    0    0 -0.93198296224E+02 -0.82821846933E+02  0.56343531330E+03  0.59044847864E+03  0.12499869165E+03 0.  0.
          2    1    1    2  501    0  0.50173728822E+02  0.42541495383E+02 -0.12828879492E+04  0.12845733425E+04  0.00000000000E+00 0. -1.
          1    1    1    2  502    0  0.43024567401E+02  0.40280351550E+02  0.79654627258E+03  0.79872372225E+03  0.00000000000E+00 0. -1.
         22    1    3    3    0    0  0.38658671739E+01  0.23756051722E+02  0.33455570645E+02  0.41213712883E+02  0.00000000000E+00 0.  1.
         22    1    3    3    0    0 -0.97064163398E+02 -0.10657789865E+03  0.52997974265E+03  0.54923476576E+03  0.00000000000E+00 0.  1.
</event>
<event>
 7    1  0.6278987E-006  0.1147073E+03  0.7818608E-02  0.1361348E+00
          2   -1    0    0  502    0  0.00000000000E+00  0.00000000000E+00  0.15622355889E+04  0.15622355889E+04  0.00000000000E+00 0. -1.
          1   -1    0    0  501    0 -0.00000000000E+00 -0.00000000000E+00 -0.84811933681E+03  0.84811933681E+03  0.00000000000E+00 0. -1.
         25    2    1    2    0    0  0.23114295631E+02 -0.72137927703E+02  0.13450620541E+03  0.19863131772E+03  0.12499731921E+03 0.  0.
          2    1    1    2  501    0  0.18602239533E+02 -0.37956352188E+02 -0.81302389922E+03  0.81412197409E+03  0.00000000000E+00 0. -1.
          1    1    1    2  502    0 -0.41716535165E+02  0.11009427989E+03  0.13926339459E+04  0.13976016339E+04  0.00000000000E+00 0. -1.
         22    1    3    3    0    0  0.70741338120E+02 -0.18441173214E+02  0.80966360295E+02  0.10908696204E+03  0.00000000000E+00 0. -1.
         22    1    3    3    0    0 -0.47627042488E+02 -0.53696754488E+02  0.53539845117E+02  0.89544355679E+02  0.00000000000E+00 0. -1.
</event>
<event>
 7    1  0.6278987E-006  0.2252035E+03  0.7818608E-02  0.1146010E+00
          2   -1    0    0  502    0  0.00000000000E+00  0.00000000000E+00  0.47744031274E+03  0.47744031274E+03  0.00000000000E+00 0. -1.
          1   -1    0    0  501    0 -0.00000000000E+00 -0.00000000000E+00 -0.94555796057E+03  0.94555796057E+03  0.00000000000E+00 0. -1.
         25    2    1    2    0    0 -0.69366035265E+02  0.39212677769E+03 -0.32991460667E+03  0.53201846366E+03  0.12499976540E+03 0.  0.
          2    1    1    2  501    0  0.34024556506E+02 -0.18252785326E+03 -0.46524840423E+03  0.50092930170E+03  0.00000000000E+00 0. -1.
          1    1    1    2  502    0  0.35341478759E+02 -0.20959892444E+03  0.32704536307E+03  0.39005050795E+03  0.00000000000E+00 0. -1.
         22    1    3    3    0    0 -0.48820941568E+02  0.39374470711E+03 -0.31413716119E+03  0.50606376550E+03  0.00000000000E+00 0. -1.
         22    1    3    3    0    0 -0.20545093697E+02 -0.16179294177E+01 -0.15777445481E+02  0.25954698159E+02  0.00000000000E+00 0. -1.
</event>
<event>
 7    1  0.6278987E-006  0.5253026E+02  0.7818608E-02  0.1450282E+00
          2   -1    0    0  502    0  0.00000000000E+00  0.00000000000E+00  0.44353848535E+03  0.44353848535E+03  0.00000000000E+00 0. -1.
          1   -1    0    0  501    0 -0.00000000000E+00 -0.00000000000E+00 -0.73537924888E+03  0.73537924888E+03  0.00000000000E+00 0. -1.
         25    2    1    2    0    0 -0.36803647561E+02 -0.99474836424E+01  0.20211700054E+03  0.24068460408E+03  0.12499734329E+03 0.  0.
          2    1    1    2  501    0  0.14434265146E+02 -0.43555969374E+02 -0.71155901857E+03  0.71303696075E+03  0.00000000000E+00 0. -1.
          1    1    1    2  502    0  0.22369382416E+02  0.53503453017E+02  0.21760125450E+03  0.22519616940E+03  0.00000000000E+00 0. -1.
         22    1    3    3    0    0 -0.17430449327E+02  0.57344655289E+02  0.80708522979E+02  0.10052907905E+03  0.00000000000E+00 0. -1.
         22    1    3    3    0    0 -0.19373198234E+02 -0.67292138931E+02  0.12140847756E+03  0.14015552503E+03  0.00000000000E+00 0. -1.
</event>
<event>
 7    1  0.6278987E-006  0.1025027E+03  0.7818608E-02  0.1347453E+00
          2   -1    0    0  502    0  0.00000000000E+00  0.00000000000E+00  0.41605475143E+03  0.41605475143E+03  0.00000000000E+00 0. -1.
          1   -1    0    0  501    0 -0.00000000000E+00 -0.00000000000E+00 -0.87342941600E+02  0.87342941600E+02  0.00000000000E+00 0. -1.
         25    2    1    2    0    0 -0.54667482874E+02  0.42225346140E+02  0.12254722869E+03  0.18817310947E+03  0.12497912757E+03 0.  0.
          2    1    1    2  501    0  0.10753937999E+03 -0.48253193926E+02  0.17453603947E+02  0.11915417435E+03  0.00000000000E+00 0. -1.
          1    1    1    2  502    0 -0.52871897121E+02  0.60278477861E+01  0.18871097720E+03  0.19607040921E+03  0.00000000000E+00 0. -1.
         22    1    3    3    0    0  0.31323768094E+02 -0.38471600584E+00  0.74563174035E+02  0.80876408032E+02  0.00000000000E+00 0. -1.
         22    1    3    3    0    0 -0.85991250967E+02  0.42610062146E+02  0.47984054654E+02  0.10729670144E+03  0.00000000000E+00 0. -1.
</event>
<event>
 7    1  0.6278987E-006  0.1205617E+03  0.7818608E-02  0.1363105E+00
          2   -1    0    0  502    0  0.00000000000E+00  0.00000000000E+00  0.10446135911E+04  0.10446135911E+04  0.00000000000E+00 0. -1.
          1   -1    0    0  501    0 -0.00000000000E+00 -0.00000000000E+00 -0.33882244283E+03  0.33882244283E+03  0.00000000000E+00 0. -1.
         25    2    1    2    0    0  0.14702291573E+03 -0.10137458115E+02  0.13844532339E+03  0.23771864951E+03  0.12499817178E+03 0.  0.
          2    1    1    2  501    0 -0.11443184946E+03  0.32683905764E+02 -0.27645724399E+03  0.30098420826E+03  0.00000000000E+00 0. -1.
          1    1    1    2  502    0 -0.32591066271E+02 -0.22546447648E+02  0.84380306888E+03  0.84473317619E+03  0.00000000000E+00 0. -1.
         22    1    3    3    0    0  0.62088721096E+02  0.51787186226E+02  0.28797090284E+02  0.85826536417E+02  0.00000000000E+00 0.  1.
         22    1    3    3    0    0  0.84934194633E+02 -0.61924644341E+02  0.10964823311E+03  0.15189211309E+03  0.00000000000E+00 0.  1.
</event>
<event>
 7    1  0.6278987E-006  0.5432891E+02  0.7818608E-02  0.1448785E+00
          2   -1    0    0  502    0  0.00000000000E+00  0.00000000000E+00  0.18940359389E+04  0.18940359389E+04  0.00000000000E+00 0. -1.
          1   -1    0    0  501    0 -0.00000000000E+00 -0.00000000000E+00 -0.28445033028E+03  0.28445033028E+03  0.00000000000E+00 0. -1.
         25    2    1    2    0    0  0.72458043001E+02 -0.66151243445E+02  0.13994895248E+04  0.14084823961E+04  0.12500230029E+03 0.  0.
          2    1    1    2  501    0 -0.35033717007E+02  0.41418631455E+02 -0.27628405441E+03  0.28155948409E+03  0.00000000000E+00 0. -1.
          1    1    1    2  502    0 -0.37424325994E+02  0.24732611990E+02  0.48638013817E+03  0.48844438893E+03  0.00000000000E+00 0. -1.
         22    1    3    3    0    0 -0.27182309006E+01 -0.82027837612E+02  0.72091154806E+03  0.72556833934E+03  0.00000000000E+00 0.  1.
         22    1    3    3    0    0  0.75176273901E+02  0.15876594167E+02  0.67857797676E+03  0.68291405678E+03  0.00000000000E+00 0.  1.
</event>
<event>
 7    1  0.6278987E-006  0.1572672E+03  0.7818608E-02  0.1205123E+00
          2   -1    0    0  502    0  0.00000000000E+00  0.00000000000E+00  0.81773121613E+03  0.81773121613E+03  0.00000000000E+00 0. -1.
          1   -1    0    0  501    0 -0.00000000000E+00 -0.00000000000E+00 -0.57743898841E+03  0.57743898841E+03  0.00000000000E+00 0. -1.
         25    2    1    2    0    0  0.13784753019E+03  0.54795422677E+02  0.12668738537E+03  0.23168629120E+03  0.12499745594E+03 0.  0.
          2    1    1    2  501    0 -0.85292950145E+02  0.10600174987E+03 -0.50456389930E+03  0.52258586548E+03  0.00000000000E+00 0. -1.
          1    1    1    2  502    0 -0.52554580048E+02 -0.16079717254E+03  0.61816874166E+03  0.64089804785E+03  0.00000000000E+00 0. -1.
         22    1    3    3    0    0  0.54928811914E+02 -0.30032532167E+01  0.11805542522E+03  0.13024314697E+03  0.00000000000E+00 0.  1.
         22    1    3    3    0    0  0.82918718280E+02  0.57798675894E+02  0.86319601477E+01  0.10144314423E+03  0.00000000000E+00 0.  1.
</event>
<event>
 7    1  0.6278987E-006  0.1276334E+03  0.7818608E-02  0.1398200E+00
          2   -1    0    0  502    0  0.00000000000E+00  0.00000000000E+00  0.53477409197E+02  0.53477409197E+02  0.00000000000E+00 0. -1.
          1   -1    0    0  501    0 -0.00000000000E+00 -0.00000000000E+00 -0.16635867106E+04  0.16635867106E+04  0.00000000000E+00 0. -1.
         25    2    1    2    0    0 -0.10713738910E+03  0.20599635297E+02 -0.30224173346E+03  0.34478356290E+03  0.12499149844E+03 0.  0.
          2    1    1    2  501    0 -0.24349291462E+02  0.14072440883E+02 -0.11956340363E+04  0.11959647446E+04  0.00000000000E+00 0. -1.
          1    1    1    2  502    0  0.13148668057E+03 -0.34672076180E+02 -0.11223353161E+03  0.17631581225E+03  0.00000000000E+00 0. -1.
         22    1    3    3    0    0 -0.10016183418E+03  0.65767674495E+02 -0.20803240945E+03  0.24007345421E+03  0.00000000000E+00 0. -1.
         22    1    3    3    0    0 -0.69755549214E+01 -0.45168039198E+02 -0.94209324008E+02  0.10471010869E+03  0.00000000000E+00 0. -1.
</event>
<event>
 7    1  0.8835725E-006  0.5697242E+02  0.7818608E-02  0.1459850E+00
          2   -1    0    0  502    0  0.00000000000E+00  0.00000000000E+00  0.13721096384E+04  0.13721096384E+04  0.00000000000E+00 0. -1.
          1   -1    0    0  501    0 -0.00000000000E+00 -0.00000000000E+00 -0.13021707637E+04  0.13021707637E+04  0.00000000000E+00 0. -1.
         25    2    1    2    0    0  0.59331489876E+02 -0.42697038984E+01 -0.25471028178E+03  0.28989754658E+03  0.12499921524E+03 0.  0.
          2    1    1    2  501    0 -0.41672323068E+02  0.39544145722E+02 -0.10287780913E+04  0.10303808438E+04  0.00000000000E+00 0. -1.
          1    1    1    2  502    0 -0.17659166808E+02 -0.35274441824E+02  0.13534272478E+04  0.13540020117E+04  0.00000000000E+00 0. -1.
         22    1    3    3    0    0  0.28069363992E+02  0.19040351045E+02 -0.17648115526E+01  0.33963785458E+02  0.00000000000E+00 0. -1.
         22    1    3    3    0    0  0.31262125884E+02 -0.23310054944E+02 -0.25294547022E+03  0.25593376112E+03  0.00000000000E+00 0. -1.
</event>
<event>
 7    1  0.6278987E-006  0.1501871E+03  0.7818608E-02  0.1268673E+00
          2   -1    0    0  502    0  0.00000000000E+00  0.00000000000E+00  0.55006942076E+03  0.55006942076E+03  0.00000000000E+00 0. -1.
          1   -1    0    0  501    0 -0.00000000000E+00 -0.00000000000E+00 -0.62281943929E+03  0.62281943929E+03  0.00000000000E+00 0. -1.
         25    2    1    2    0    0 -0.32579606755E+02  0.87062569130E+02 -0.27428546906E+02  0.15817419959E+03  0.12500172203E+03 0.  0.
          2    1    1    2  501    0  0.19270151759E+02 -0.16030678567E+03 -0.51471982644E+03  0.53944981603E+03  0.00000000000E+00 0. -1.
          1    1    1    2  502    0  0.13309454996E+02  0.73244216543E+02  0.46939835481E+03  0.47526484443E+03  0.00000000000E+00 0. -1.
         22    1    3    3    0    0 -0.17232643087E+02  0.52216499860E+02  0.48444578075E+02  0.73283040264E+02  0.00000000000E+00 0. -1.
         22    1    3    3    0    0 -0.15346963668E+02  0.34846069269E+02 -0.75873124981E+02  0.84891159326E+02  0.00000000000E+00 0. -1.
</event>
<event>
 7    1  0.6278987E-006  0.1148768E+03  0.7818608E-02  0.1377838E+00
          2   -1    0    0  502    0  0.00000000000E+00  0.00000000000E+00  0.63814895421E+03  0.63814895421E+03  0.00000000000E+00 0. -1.
          1   -1    0    0  501    0 -0.00000000000E+00 -0.00000000000E+00 -0.90160497577E+03  0.90160497577E+03  0.00000000000E+00 0. -1.
         25    2    1    2    0    0  0.13157987716E+03  0.41729788624E+01 -0.40664833592E+03  0.44532995907E+03  0.12500090207E+03 0.  0.
          2    1    1    2  501    0 -0.10768914377E+03  0.23842271989E+02 -0.46866042495E+03  0.48146443226E+03  0.00000000000E+00 0. -1.
          1    1    1    2  502    0 -0.23890733396E+02 -0.28015250851E+02  0.61185273930E+03  0.61295953864E+03  0.00000000000E+00 0. -1.
         22    1    3    3    0    0  0.97962486296E+02 -0.66007609520E+01 -0.39667632672E+03  0.40864694658E+03  0.00000000000E+00 0.  1.
         22    1    3    3    0    0  0.33617390866E+02  0.10773739814E+02 -0.99720091908E+01  0.36683012493E+02  0.00000000000E+00 0.  1.
</event>
<event>
 7    1  0.6278987E-006  0.2214271E+03  0.7818608E-02  0.1277115E+00
          2   -1    0    0  502    0  0.00000000000E+00  0.00000000000E+00  0.56337173292E+03  0.56337173292E+03  0.00000000000E+00 0. -1.
          1   -1    0    0  501    0 -0.00000000000E+00 -0.00000000000E+00 -0.56022669584E+03  0.56022669584E+03  0.00000000000E+00 0. -1.
         25    2    1    2    0    0  0.15181205072E+03 -0.14879301856E+03  0.12750593601E+03  0.27761056381E+03  0.12499440109E+03 0.  0.
          2    1    1    2  501    0  0.38915798939E+02  0.25548049071E+02 -0.44811951693E+03  0.45053106849E+03  0.00000000000E+00 0. -1.
          1    1    1    2  502    0 -0.19072784966E+03  0.12324496949E+03  0.32375861799E+03  0.39545679646E+03  0.00000000000E+00 0. -1.
         22    1    3    3    0    0  0.17020682962E+03 -0.11673648672E+03  0.12328759973E+03  0.24041132342E+03  0.00000000000E+00 0.  1.
         22    1    3    3    0    0 -0.18394778900E+02 -0.32056531843E+02  0.42183362820E+01  0.37199240390E+02  0.00000000000E+00 0.  1.
</event>
<event>
 7    1  0.6278987E-006  0.1049174E+03  0.7818608E-02  0.1380026E+00
          2   -1    0    0  502    0  0.00000000000E+00  0.00000000000E+00  0.25533584277E+04  0.25533584277E+04  0.00000000000E+00 0. -1.
          1   -1    0    0  501    0 -0.00000000000E+00 -0.00000000000E+00 -0.20023626066E+02  0.20023626066E+02  0.00000000000E+00 0. -1.
         25    2    1    2    0    0 -0.99250678662E+02 -0.21909922402E+02  0.19762985828E+04  0.19828544578E+04  0.12499988202E+03 0.  0.
          2    1    1    2  501    0  0.16021031694E+01 -0.39567220383E+02  0.26644024960E+02  0.47728772554E+02  0.00000000000E+00 0. -1.
          1    1    1    2  502    0  0.97648575493E+02  0.61477142785E+02  0.53039219387E+03  0.54279882342E+03  0.00000000000E+00 0. -1.
         22    1    3    3    0    0  0.37881085971E+01  0.25102992039E+02  0.94759367782E+03  0.94793369400E+03  0.00000000000E+00 0.  1.
         22    1    3    3    0    0 -0.10303878726E+03 -0.47012914440E+02  0.10287049050E+04  0.10349207638E+04  0.00000000000E+00 0.  1.
</event>
<event>
 7    1  0.6278987E-006  0.1095094E+03  0.7818608E-02  0.1301939E+00
          2   -1    0    0  502    0  0.00000000000E+00  0.00000000000E+00  0.12896794637E+03  0.12896794637E+03  0.00000000000E+00 0. -1.
          1   -1    0    0  501    0 -0.00000000000E+00 -0.00000000000E+00 -0.17031524941E+04  0.17031524941E+04  0.00000000000E+00 0. -1.
         25    2    1    2    0    0  0.11316819774E+03 -0.13507852558E+03 -0.93505554628E+02  0.23541759584E+03  0.12499962652E+03 0.  0.
          2    1    1    2  501    0 -0.85346480617E+02  0.65872677969E+02 -0.15119754103E+04  0.15158142607E+04  0.00000000000E+00 0. -1.
          1    1    1    2  502    0 -0.27821717126E+02  0.69205847611E+02  0.31296417204E+02  0.80888583974E+02  0.00000000000E+00 0. -1.
         22    1    3    3    0    0 -0.21995987832E+01  0.15858351445E+02  0.10193850470E+02  0.18979992960E+02  0.00000000000E+00 0. -1.
         22    1    3    3    0    0  0.11536779653E+03 -0.15093687703E+03 -0.10369940510E+03  0.21643760288E+03  0.00000000000E+00 0. -1.
</event>
<event>
 7    1  0.6278987E-006  0.1552589E+03  0.7818608E-02  0.1330960E+00
          2   -1    0    0  502    0  0.00000000000E+00  0.00000000000E+00  0.78375634848E+03  0.78375634848E+03  0.00000000000E+00 0. -1.
          1   -1    0    0  501    0 -0.00000000000E+00 -0.00000000000E+00 -0.74468005953E+03  0.74468005953E+03  0.00000000000E+00 0. -1.
         25    2    1    2    0    0  0.27023283927E+01 -0.12700411776E+03 -0.96411212216E+02  0.20262735688E+03  0.12500150163E+03 0.  0.
          2    1    1    2  501    0  0.30792480292E+02 -0.26361385246E+02 -0.58602071342E+03  0.58742095301E+03  0.00000000000E+00 0. -1.
          1    1    1    2  502    0 -0.33494808685E+02  0.15336550301E+03  0.72150821459E+03  0.73838809811E+03  0.00000000000E+00 0. -1.
         22    1    3    3    0    0 -0.17746976970E+02 -0.14736170116E+03 -0.72672825726E+02  0.16526271739E+03  0.00000000000E+00 0. -1.
         22    1    3    3    0    0  0.20449305363E+02  0.20357583396E+02 -0.23738386490E+02  0.37364639497E+02  0.00000000000E+00 0. -1.
</event>
<event>
 7    1  0.6278987E-006  0.2914021E+02  0.7818608E-02  0.1661430E+00
          2   -1    0    0  502    0  0.00000000000E+00  0.00000000000E+00  0.12153859157E+04  0.12153859157E+04  0.00000000000E+00 0. -1.
          1   -1    0    0  501    0 -0.00000000000E+00 -0.00000000000E+00 -0.72473037472E+03  0.72473037472E+03  0.00000000000E+00 0. -1.
         25    2    1    2    0    0 -0.53341106094E+01  0.15055119272E+02  0.57397711426E+03  0.58763875677E+03  0.12495787857E+03 0.  0.
          2    1    1    2  501    0 -0.21359608514E+02 -0.12639325096E+01 -0.71738430066E+03  0.71770332676E+03  0.00000000000E+00 0. -1.
          1    1    1    2  502    0  0.26693719123E+02 -0.13791186762E+02  0.63406272744E+03  0.63477420694E+03  0.00000000000E+00 0. -1.
         22    1    3    3    0    0 -0.34867908138E+02 -0.12725142239E+02  0.50918922303E+02  0.63011403027E+02  0.00000000000E+00 0. -1.
         22    1    3    3    0    0  0.29533797528E+02  0.27780261511E+02  0.52305819195E+03  0.52462735374E+03  0.00000000000E+00 0. -1.
</event>
<event>
 7    1  0.6278987E-006  0.6620980E+02  0.7818608E-02  0.1436735E+00
          2   -1    0    0  502    0  0.00000000000E+00  0.00000000000E+00  0.31889715777E+03  0.31889715777E+03  0.00000000000E+00 0. -1.
          1   -1    0    0  501    0 -0.00000000000E+00 -0.00000000000E+00 -0.88424729247E+03  0.88424729247E+03  0.00000000000E+00 0. -1.
         25    2    1    2    0    0 -0.61249274036E+02  0.21785248849E+02  0.10053553829E+02  0.14124612315E+03  0.12499329072E+03 0.  0.
          2    1    1    2  501    0  0.63848735050E+02  0.18393900003E+02 -0.81562455937E+03  0.81832659640E+03  0.00000000000E+00 0. -1.
          1    1    1    2  502    0 -0.25994610133E+01 -0.40179148853E+02  0.24022087084E+03  0.24357173068E+03  0.00000000000E+00 0. -1.
         22    1    3    3    0    0 -0.95000426296E+02  0.15585943285E+02  0.30883821925E+02  0.10110298255E+03  0.00000000000E+00 0. -1.
         22    1    3    3    0    0  0.33751152260E+02  0.61993055643E+01 -0.20830268096E+02  0.40143140601E+02  0.00000000000E+00 0. -1.
</event>
<event>
 7    1  0.6278987E-006  0.4997937E+02  0.7818608E-02  0.1472225E+00
          2   -1    0    0  502    0  0.00000000000E+00  0.00000000000E+00  0.14890599440E+04  0.14890599440E+04  0.00000000000E+00 0. -1.
          1   -1    0    0  501    0 -0.00000000000E+00 -0.00000000000E+00 -0.11228298882E+04  0.11228298882E+04  0.00000000000E+00 0. -1.
         25    2    1    2    0    0  0.31202217484E+02  0.28877458402E+02  0.23964017752E+03  0.27360906336E+03  0.12500807530E+03 0.  0.
          2    1    1    2  501    0  0.18907347741E+02 -0.36529669620E+02 -0.11049413826E+04  0.11057067259E+04  0.00000000000E+00 0. -1.
          1    1    1    2  502    0 -0.50109565225E+02  0.76522112183E+01  0.12315312609E+04  0.12325740430E+04  0.00000000000E+00 0. -1.
         22    1    3    3    0    0 -0.33984488068E+02 -0.25676352697E+02  0.49303505693E+02  0.65154095732E+02  0.00000000000E+00 0. -1.
         22    1    3    3    0    0  0.65186705552E+02  0.54553811099E+02  0.19033667183E+03  0.20845496763E+03  0.00000000000E+00 0. -1.
</event>
<event>
 7    1  0.6278987E-006  0.2839622E+02  0.7818608E-02  0.1666724E+00
          2   -1    0    0  502    0  0.00000000000E+00  0.00000000000E+00  0.16437533523E+03  0.16437533523E+03  0.00000000000E+00 0. -1.
          1   -1    0    0  501    0 -0.00000000000E+00 -0.00000000000E+00 -0.91535803973E+03  0.91535803973E+03  0.00000000000E+00 0. -1.
         25    2    1    2    0    0  0.10356728670E+02 -0.30201725065E+01 -0.27066760507E+03  0.29833182570E+03  0.12499817007E+03 0.  0.
          2    1    1    2  501    0 -0.17131337255E+02  0.23237300162E+02 -0.62977100117E+03  0.63043236652E+03  0.00000000000E+00 0. -1.
          1    1    1    2  502    0  0.67746085846E+01 -0.20217127656E+02  0.14945590174E+03  0.15096918274E+03  0.00000000000E+00 0. -1.
         22    1    3    3    0    0  0.47986122553E+02 -0.30605744207E+02 -0.22836969296E+03  0.23535525530E+03  0.00000000000E+00 0.  1.
         22    1    3    3    0    0 -0.37629393883E+02  0.27585571700E+02 -0.42297912112E+02  0.62976570398E+02  0.00000000000E+00 0.  1.
</event>
<event>
 7    1  0.6278987E-006  0.6419093E+02  0.7818608E-02  0.1397226E+00
          2   -1    0    0  502    0  0.00000000000E+00  0.00000000000E+00  0.37315329616E+03  0.37315329616E+03  0.00000000000E+00 0. -1.
          1   -1    0    0  501    0 -0.00000000000E+00 -0.00000000000E+00 -0.16321742526E+04  0.16321742526E+04  0.00000000000E+00 0. -1.
         25    2    1    2    0    0  0.49765525096E+02 -0.39153294295E+02 -0.53895614448E+03  0.55687116607E+03  0.12498872744E+03 0.  0.
          2    1    1    2  501    0 -0.65064693471E+02 -0.15083286253E+02 -0.10810438498E+04  0.10831051311E+04  0.00000000000E+00 0. -1.
          1    1    1    2  502    0  0.15299168375E+02  0.54236580548E+02  0.36097903787E+03  0.36535125154E+03  0.00000000000E+00 0. -1.
         22    1    3    3    0    0 -0.23278888707E+02 -0.28079403965E+02 -0.47475849701E+02  0.59869156427E+02  0.00000000000E+00 0. -1.
         22    1    3    3    0    0  0.73044413802E+02 -0.11073890330E+02 -0.49148029478E+03  0.49700200965E+03  0.00000000000E+00 0. -1.
</event>
<event>
 7    1  0.6278987E-006  0.8324750E+02  0.7818608E-02  0.1435183E+00
          2   -1    0    0  502    0  0.00000000000E+00  0.00000000000E+00  0.17460587184E+04  0.17460587184E+04  0.00000000000E+00 0. -1.
          1   -1    0    0  501    0 -0.00000000000E+00 -0.00000000000E+00 -0.48926723389E+02  0.48926723389E+02  0.00000000000E+00 0. -1.
         25    2    1    2    0    0 -0.35799990089E+02 -0.10710336474E+03  0.48284882756E+03  0.51139126725E+03  0.12500107164E+03 0.  0.
          2    1    1    2  501    0  0.10069563203E+02  0.30793975467E+02 -0.25480377730E+02  0.41217892686E+02  0.00000000000E+00 0. -1.
          1    1    1    2  502    0  0.25730426886E+02  0.76309389268E+02  0.12397635452E+04  0.12423762818E+04  0.00000000000E+00 0. -1.
         22    1    3    3    0    0  0.18535710096E+02  0.22706262438E+01  0.67159933432E+01  0.19845222571E+02  0.00000000000E+00 0. -1.
         22    1    3    3    0    0 -0.54335700184E+02 -0.10937399098E+03  0.47613283422E+03  0.49154604468E+03  0.00000000000E+00 0. -1.
</event>
<event>
 7    1  0.6278987E-006  0.8960846E+02  0.7818608E-02  0.1332708E+00
          2   -1    0    0  502    0  0.00000000000E+00  0.00000000000E+00  0.11976607391E+04  0.11976607391E+04  0.00000000000E+00 0. -1.
          1   -1    0    0  501    0 -0.00000000000E+00 -0.00000000000E+00 -0.48655108942E+03  0.48655108942E+03  0.00000000000E+00 0. -1.
         25    2    1    2    0    0  0.64793833753E+02  0.56997050233E+02  0.48682720296E+03  0.50997300413E+03  0.12499933908E+03 0.  0.
          2    1    1    2  501    0 -0.38916312003E+01 -0.89778139440E+02 -0.46899164286E+03  0.47752321429E+03  0.00000000000E+00 0. -1.
          1    1    1    2  502    0 -0.60902202552E+02  0.32781089208E+02  0.69327408962E+03  0.69671561014E+03  0.00000000000E+00 0. -1.
         22    1    3    3    0    0  0.88370907862E+02  0.74308877726E+02  0.31124142120E+03  0.33196754199E+03  0.00000000000E+00 0. -1.
         22    1    3    3    0    0 -0.23577074109E+02 -0.17311827494E+02  0.17558578176E+03  0.17800546214E+03  0.00000000000E+00 0. -1.
</event>
<event>
 7    1  0.6278987E-006  0.1863620E+03  0.7818608E-02  0.1251585E+00
          2   -1    0    0  502    0  0.00000000000E+00  0.00000000000E+00  0.18100017045E+04  0.18100017045E+04  0.00000000000E+00 0. -1.
          1   -1    0    0  501    0 -0.00000000000E+00 -0.00000000000E+00 -0.14155747855E+03  0.14155747855E+03  0.00000000000E+00 0. -1.
         25    2    1    2    0    0 -0.15358633566E+03  0.66243140014E+02  0.44905738728E+03  0.49523180557E+03  0.12500035230E+03 0.  0.
          2    1    1    2  501    0  0.13727495203E+02  0.69620804061E+02 -0.99995017783E+02  0.12261526848E+03  0.00000000000E+00 0. -1.
          1    1    1    2  502    0  0.13985884046E+03 -0.13586394408E+03  0.13193818565E+04  0.13337121090E+04  0.00000000000E+00 0. -1.
         22    1    3    3    0    0 -0.62948431861E+02  0.91654830606E+02  0.19764011739E+03  0.22677021199E+03  0.00000000000E+00 0. -1.
         22    1    3    3    0    0 -0.90637903803E+02 -0.25411690592E+02  0.25141726990E+03  0.26846159358E+03  0.00000000000E+00 0. -1.
</event>
<event>
 7    1  0.6278987E-006  0.1177704E+03  0.7818608E-02  0.1387284E+00
          2   -1    0    0  502    0  0.00000000000E+00  0.00000000000E+00  0.84015601590E+03  0.84015601590E+03  0.00000000000E+00 0. -1.
          1   -1    0    0  501    0 -0.00000000000E+00 -0.00000000000E+00 -0.40798513434E+02  0.40798513434E+02  0.00000000000E+00 0. -1.
         25    2    1    2    0    0  0.86992243748E+02 -0.35256323308E+02  0.56474122219E+03  0.58597624656E+03  0.12499941875E+03 0.  0.
          2    1    1    2  501    0 -0.10707128854E+03  0.61772804523E+02  0.10826077244E+03  0.16431839537E+03  0.00000000000E+00 0. -1.
          1    1    1    2  502    0  0.20079044793E+02 -0.26516481215E+02  0.12635550784E+03  0.13065988740E+03  0.00000000000E+00 0. -1.
         22    1    3    3    0    0  0.64186828699E+02 -0.58151171285E+01  0.53346538297E+03  0.53734446995E+03  0.00000000000E+00 0. -1.
         22    1    3    3    0    0  0.22805415049E+02 -0.29441206179E+02  0.31275839224E+02  0.48631776608E+02  0.00000000000E+00 0. -1.
</event>
<event>
 7    1  0.6278987E-006  0.4288367E+02  0.7818608E-02  0.1532931E+00
          2   -1    0    0  502    0  0.00000000000E+00  0.00000000000E+00  0.16844355023E+04  0.16844355023E+04  0.00000000000E+00 0. -1.
          1   -1    0    0  501    0 -0.00000000000E+00 -0.00000000000E+00 -0.19356873768E+04  0.19356873768E+04  0.00000000000E+00 0. -1.
         25    2    1    2    0    0  0.65019378987E+01 -0.10369245256E+02  0.34463913872E+03  0.36681423509E+03  0.12500700254E+03 0.  0.
          2    1    1    2  501    0 -0.33605678666E+02  0.26673489768E+02 -0.19241724189E+04  0.19246506993E+04  0.00000000000E+00 0. -1.
          1    1    1    2  502    0  0.27103740767E+02 -0.16304244512E+02  0.13282814057E+04  0.13286579447E+04  0.00000000000E+00 0. -1.
         22    1    3    3    0    0  0.30728163454E+02  0.38391781488E+02  0.62790207123E+02  0.79754366812E+02  0.00000000000E+00 0.  1.
         22    1    3    3    0    0 -0.24226225555E+02 -0.48761026744E+02  0.28184893160E+03  0.28705986828E+03  0.00000000000E+00 0.  1.
</event>
<event>
 7    1  0.6278987E-006  0.7355268E+02  0.7818608E-02  0.1384837E+00
          2   -1    0    0  502    0  0.00000000000E+00  0.00000000000E+00  0.14660793026E+04  0.14660793026E+04  0.00000000000E+00 0. -1.
          1   -1    0    0  501    0 -0.00000000000E+00 -0.00000000000E+00 -0.86886869942E+03  0.86886869942E+03  0.00000000000E+00 0. -1.
         25    2    1    2    0    0 -0.42605912364E+02  0.35972392128E+02  0.13902582371E+03  0.19509575317E+03  0.12499958592E+03 0.  0.
          2    1    1    2  501    0 -0.31849328908E+02 -0.44003842451E+02 -0.83887526377E+03  0.84063215860E+03  0.00000000000E+00 0. -1.
          1    1    1    2  502    0  0.74455241271E+02  0.80314503229E+01  0.12970600432E+04  0.12992200903E+04  0.00000000000E+00 0. -1.
         22    1    3    3    0    0 -0.77152330056E+02  0.51794119847E+02  0.12225439587E+03  0.15356187741E+03  0.00000000000E+00 0.  1.
         22    1    3    3    0    0  0.34546417692E+02 -0.15821727719E+02  0.16771427841E+02  0.41533875755E+02  0.00000000000E+00 0.  1.
</event>
<event>
 7    1  0.6278987E-006  0.4304533E+03  0.7818608E-02  0.1291585E+00
          2   -1    0    0  502    0  0.00000000000E+00  0.00000000000E+00  0.18055984607E+04  0.18055984607E+04  0.00000000000E+00 0. -1.
          1   -1    0    0  501    0 -0.00000000000E+00 -0.00000000000E+00 -0.77821064852E+03  0.77821064852E+03  0.00000000000E+00 0. -1.
         25    2    1    2    0    0 -0.48205469706E+02 -0.40769146884E+03  0.12803462687E+04  0.13503511017E+04  0.12500171628E+03 0.  0.
          2    1    1    2  501    0  0.49821727157E+02  0.42851523947E+03 -0.68032895538E+03  0.80557743420E+03  0.00000000000E+00 0. -1.
          1    1    1    2  502    0 -0.16162574508E+01 -0.20823770628E+02  0.42737049886E+03  0.42788057330E+03  0.00000000000E+00 0. -1.
         22    1    3    3    0    0 -0.25123798999E+01 -0.36313432575E+03  0.11330833042E+04  0.11898531947E+04  0.00000000000E+00 0.  1.
         22    1    3    3    0    0 -0.45693089806E+02 -0.44557143091E+02  0.14726296441E+03  0.16049790698E+03  0.00000000000E+00 0.  1.
</event>
<event>
 7    1  0.6278987E-006  0.1659197E+03  0.7818608E-02  0.1280049E+00
          2   -1    0    0  502    0  0.00000000000E+00  0.00000000000E+00  0.15310359115E+04  0.15310359115E+04  0.00000000000E+00 0. -1.
          1   -1    0    0  501    0 -0.00000000000E+00 -0.00000000000E+00 -0.60922606506E+03  0.60922606506E+03  0.00000000000E+00 0. -1.
         25    2    1    2    0    0  0.83780869132E+02  0.20089648677E+03 -0.29353578352E+02  0.25271533130E+03  0.12499909473E+03 0.  0.
          2    1    1    2  501    0  0.13004448971E+01 -0.60397698369E+02 -0.46146430298E+03  0.46540184363E+03  0.00000000000E+00 0. -1.
          1    1    1    2  502    0 -0.85081314029E+02 -0.14049878840E+03  0.14126277277E+04  0.14221448016E+04  0.00000000000E+00 0. -1.
         22    1    3    3    0    0  0.65380308153E+02  0.52367981134E+02 -0.55912048416E+02  0.10071319328E+03  0.00000000000E+00 0. -1.
         22    1    3    3    0    0  0.18400560979E+02  0.14852850564E+03  0.26558470064E+02  0.15200213802E+03  0.00000000000E+00 0. -1.
</event>
<event>
 7    1  0.6278987E-006  0.1036354E+03  0.7818608E-02  0.1319998E+00
          2   -1    0    0  502    0  0.00000000000E+00  0.00000000000E+00  0.14750991731E+04  0.14750991731E+04  0.00000000000E+00 0. -1.
          1   -1    0    0  501    0 -0.00000000000E+00 -0.00000000000E+00 -0.11236097906E+03  0.11236097906E+03  0.00000000000E+00 0. -1.
         25    2    1    2    0    0  0.10174264062E+01 -0.85317578504E+02  0.90742755701E+03  0.91996245831E+03  0.12500411641E+03 0.  0.
          2    1    1    2  501    0 -0.56731413982E+02 -0.35492919136E+02 -0.86629855475E+02  0.10946658166E+03  0.00000000000E+00 0. -1.
          1    1    1    2  502    0  0.55713987576E+02  0.12081049764E+03  0.54194049251E+03  0.55803111219E+03  0.00000000000E+00 0. -1.
         22    1    3    3    0    0 -0.11580774760E+02 -0.10770719721E+03  0.85213456936E+03  0.85899259542E+03  0.00000000000E+00 0.  1.
         22    1    3    3    0    0  0.12598201167E+02  0.22389618705E+02  0.55292987649E+02  0.60969862896E+02  0.00000000000E+00 0.  1.
</event>
<event>
 7    1  0.6278987E-006  0.9811147E+02  0.7818608E-02  0.1340893E+00
          2   -1    0    0  502    0  0.00000000000E+00  0.00000000000E+00  0.17217820136E+04  0.17217820136E+04  0.00000000000E+00 0. -1.
          1   -1    0    0  501    0 -0.00000000000E+00 -0.00000000000E+00 -0.39113655716E+04  0.39113655716E+04  0.00000000000E+00 0. -1.
         25    2    1    2    0    0  0.77663793775E+01 -0.48365447831E+02 -0.19963062387E+04  0.20008164087E+04  0.12501267718E+03 0.  0.
          2    1    1    2  501    0  0.50007063859E+02 -0.30979235397E+02 -0.19109506959E+04  0.19118558998E+04  0.00000000000E+00 0. -1.
          1    1    1    2  502    0 -0.57773443237E+02  0.79344683228E+02  0.17176733765E+04  0.17204752768E+04  0.00000000000E+00 0. -1.
         22    1    3    3    0    0 -0.51317861539E+02  0.64399937179E+01 -0.62042988721E+03  0.62258191539E+03  0.00000000000E+00 0.  1.
         22    1    3    3    0    0  0.59084240916E+02 -0.54805441549E+02 -0.13758763514E+04  0.13782344933E+04  0.00000000000E+00 0.  1.
</event>
<event>
 7    1  0.6278987E-006  0.1108144E+03  0.7818608E-02  0.1461039E+00
          2   -1    0    0  502    0  0.00000000000E+00  0.00000000000E+00  0.55111683482E+03  0.55111683482E+03  0.00000000000E+00 0. -1.
          1   -1    0    0  501    0 -0.00000000000E+00 -0.00000000000E+00 -0.25612316580E+04  0.25612316580E+04  0.00000000000E+00 0. -1.
         25    2    1    2    0    0 -0.41785579831E+02 -0.12395293707E+03 -0.14426839264E+04  0.14539849356E+04  0.12499966406E+03 0.  0.
          2    1    1    2  501    0  0.53483452394E+01  0.19382519281E+02 -0.11071847495E+04  0.11073673087E+04  0.00000000000E+00 0. -1.
          1    1    1    2  502    0  0.36437234592E+02  0.10457041779E+03  0.53975385276E+03  0.55099624854E+03  0.00000000000E+00 0. -1.
         22    1    3    3    0    0 -0.52097570244E+01 -0.11288832040E+03 -0.13340157716E+04  0.13387938576E+04  0.00000000000E+00 0. -1.
         22    1    3    3    0    0 -0.36575822807E+02 -0.11064616669E+02 -0.10866815486E+03  0.11519107794E+03  0.00000000000E+00 0. -1.
</event>
<event>
 7    1  0.6278987E-006  0.5538563E+02  0.7818608E-02  0.1560541E+00
          2   -1    0    0  502    0  0.00000000000E+00  0.00000000000E+00  0.13240966708E+04  0.13240966708E+04  0.00000000000E+00 0. -1.
          1   -1    0    0  501    0 -0.00000000000E+00 -0.00000000000E+00 -0.37616407107E+02  0.37616407107E+02  0.00000000000E+00 0. -1.
         25    2    1    2    0    0  0.28962921801E+02  0.48134989931E+02  0.46354493515E+03  0.48337885085E+03  0.12500151379E+03 0.  0.
          2    1    1    2  501    0 -0.43872320569E+02 -0.34073560383E+02  0.40774715551E+00  0.55551366203E+02  0.00000000000E+00 0. -1.
          1    1    1    2  502    0  0.14909398768E+02 -0.14061429549E+02  0.82252758139E+03  0.82278286086E+03  0.00000000000E+00 0. -1.
         22    1    3    3    0    0  0.81663058218E+01 -0.21532176485E+02  0.33426390425E+03  0.33505623537E+03  0.00000000000E+00 0.  1.
         22    1    3    3    0    0  0.20796615979E+02  0.69667166416E+02  0.12928103090E+03  0.14832261548E+03  0.00000000000E+00 0.  1.
</event>
<event>
 7    1  0.6278987E-006  0.6264587E+02  0.7818608E-02  0.1484427E+00
          2   -1    0    0  502    0  0.00000000000E+00  0.00000000000E+00  0.29293431174E+04  0.29293431174E+04  0.00000000000E+00 0. -1.
          1   -1    0    0  501    0 -0.00000000000E+00 -0.00000000000E+00 -0.14933843309E+02  0.14933843309E+02  0.00000000000E+00 0. -1.
         25    2    1    2    0    0 -0.19467751734E+02  0.79604164809E+02  0.88904566984E+03  0.90152309869E+03  0.12500351193E+03 0.  0.
          2    1    1    2  501    0 -0.38693027894E+01 -0.60593852723E+02  0.98870969409E+02  0.11602609656E+03  0.00000000000E+00 0. -1.
          1    1    1    2  502    0  0.23337054523E+02 -0.19010312086E+02  0.19264926349E+04  0.19267277655E+04  0.00000000000E+00 0. -1.
         22    1    3    3    0    0 -0.57602278291E+02  0.27712892641E+02  0.21214337794E+03  0.22156452714E+03  0.00000000000E+00 0.  1.
         22    1    3    3    0    0  0.38134526557E+02  0.51891272168E+02  0.67690229190E+03  0.67995857155E+03  0.00000000000E+00 0.  1.
</event>
<event>
 7    1  0.6278987E-006  0.3259272E+02  0.7818608E-02  0.1582251E+00
          2   -1    0    0  502    0  0.00000000000E+00  0.00000000000E+00  0.47289560168E+02  0.47289560168E+02  0.00000000000E+00 0. -1.
          1   -1    0    0  501    0 -0.00000000000E+00 -0.00000000000E+00 -0.34984124257E+03  0.34984124257E+03  0.00000000000E+00 0. -1.
         25    2    1    2    0    0 -0.85342854807E+01 -0.27898162131E+01 -0.28823132892E+03  0.31429690968E+03  0.12499852543E+03 0.  0.
          2    1    1    2  501    0  0.29369824121E+01 -0.30269077743E+02 -0.32651868938E+02  0.44620482721E+02  0.00000000000E+00 0. -1.
          1    1    1    2  502    0  0.55973030686E+01  0.33058893956E+02  0.18331515451E+02  0.38213410342E+02  0.00000000000E+00 0. -1.
         22    1    3    3    0    0 -0.57324585731E+02 -0.33681436198E+02 -0.13348758781E+03  0.14912908292E+03  0.00000000000E+00 0. -1.
         22    1    3    3    0    0  0.48790300250E+02  0.30891619985E+02 -0.15474374110E+03  0.16516782675E+03  0.00000000000E+00 0. -1.
</event>
<event>
 7    1  0.6278987E-006  0.4126670E+02  0.7818608E-02  0.1594491E+00
          2   -1    0    0  502    0  0.00000000000E+00  0.00000000000E+00  0.22919258491E+03  0.22919258491E+03  0.00000000000E+00 0. -1.
          1   -1    0    0  501    0 -0.00000000000E+00 -0.00000000000E+00 -0.39570476427E+03  0.39570476427E+03  0.00000000000E+00 0. -1.
         25    2    1    2    0    0  0.26698225860E+02  0.34824133289E+02  0.11212523005E+03  0.17355061836E+03  0.12498893710E+03 0.  0.
          2    1    1    2  501    0  0.11811175424E+02 -0.18902190936E+02 -0.35959966996E+03  0.36028977133E+03  0.00000000000E+00 0. -1.
          1    1    1    2  502    0 -0.38509401285E+02 -0.15921942353E+02  0.80962260557E+02  0.91056959482E+02  0.00000000000E+00 0. -1.
         22    1    3    3    0    0 -0.21440371508E+02  0.44683134870E+02 -0.16811190011E+01  0.49589295552E+02  0.00000000000E+00 0.  1.
         22    1    3    3    0    0  0.48138597369E+02 -0.98590015811E+01  0.11380634905E+03  0.12396132281E+03  0.00000000000E+00 0.  1.
</event>
<event>
 7    1  0.6278987E-006  0.2491498E+03  0.7818608E-02  0.1233742E+00
          2   -1    0    0  502    0  0.00000000000E+00  0.00000000000E+00  0.75275896919E+03  0.75275896919E+03  0.00000000000E+00 0. -1.
          1   -1    0    0  501    0 -0.00000000000E+00 -0.00000000000E+00 -0.35739337399E+03  0.35739337399E+03  0.00000000000E+00 0. -1.
         25    2    1    2    0    0  0.14798143573E+03  0.19333650369E+03  0.56594619691E+02  0.27947231093E+03  0.12499725044E+03 0.  0.
          2    1    1    2  501    0 -0.19967613646E+03 -0.15633503654E+03 -0.17811646696E+03  0.30989785240E+03  0.00000000000E+00 0. -1.
          1    1    1    2  502    0  0.51694700736E+02 -0.37001467153E+02  0.51688744248E+03  0.52078217985E+03  0.00000000000E+00 0. -1.
         22    1    3    3    0    0  0.46729150227E+02  0.49895942905E+02  0.76706017436E+02  0.10274741705E+03  0.00000000000E+00 0.  1.
         22    1    3    3    0    0  0.10125228550E+03  0.14344056079E+03 -0.20111397745E+02  0.17672489388E+03  0.00000000000E+00 0.  1.
</event>
<event>
 7    1  0.6278987E-006  0.4236022E+02  0.7818608E-02  0.1534848E+00
          2   -1    0    0  502    0  0.00000000000E+00  0.00000000000E+00  0.61101621229E+03  0.61101621229E+03  0.00000000000E+00 0. -1.
          1   -1    0    0  501    0 -0.00000000000E+00 -0.00000000000E+00 -0.62690755078E+02  0.62690755078E+02  0.00000000000E+00 0. -1.
         25    2    1    2    0    0 -0.68328499486E+02 -0.15536615268E+02  0.14667631269E+03  0.20505809238E+03  0.12499884116E+03 0.  0.
          2    1    1    2  501    0  0.26867458869E+02  0.16672887414E+02 -0.24801131449E+02  0.40186336509E+02  0.00000000000E+00 0. -1.
          1    1    1    2  502    0  0.41461040617E+02 -0.11362721466E+01  0.42645027597E+03  0.42846253848E+03  0.00000000000E+00 0. -1.
         22    1    3    3    0    0 -0.32351827458E+02 -0.26195738801E+02 -0.10936599289E+02  0.43040291300E+02  0.00000000000E+00 0. -1.
         22    1    3    3    0    0 -0.35976672029E+02  0.10659123533E+02  0.15761291198E+03  0.16201780108E+03  0.00000000000E+00 0. -1.
</event>
<event>
 7    1  0.6278987E-006  0.6567739E+02  0.7818608E-02  0.1380145E+00
          2   -1    0    0  502    0  0.00000000000E+00  0.00000000000E+00  0.69270496589E+03  0.69270496589E+03  0.00000000000E+00 0. -1.
          1   -1    0    0  501    0 -0.00000000000E+00 -0.00000000000E+00 -0.81051641637E+03  0.81051641637E+03  0.00000000000E+00 0. -1.
         25    2    1    2    0    0  0.90246307421E+02  0.91495716345E+02 -0.25166856672E+03  0.30899903734E+03  0.12500990157E+03 0.  0.
          2    1    1    2  501    0 -0.44367376570E+02 -0.45005419040E+02 -0.52668283952E+03  0.53046089893E+03  0.00000000000E+00 0. -1.
          1    1    1    2  502    0 -0.45878930852E+02 -0.46490297305E+02  0.66053995575E+03  0.66376144599E+03  0.00000000000E+00 0. -1.
         22    1    3    3    0    0  0.11127176492E+03  0.10372960477E+03 -0.19490845704E+03  0.24724591645E+03  0.00000000000E+00 0.  1.
         22    1    3    3    0    0 -0.21025457503E+02 -0.12233888425E+02 -0.56760109681E+02  0.61753120894E+02  0.00000000000E+00 0.  1.
</event>
<event>
 7    1  0.6278987E-006  0.1226470E+03  0.7818608E-02  0.1318668E+00
          2   -1    0    0  502    0  0.00000000000E+00  0.00000000000E+00  0.49863708037E+03  0.49863708037E+03  0.00000000000E+00 0. -1.
          1   -1    0    0  501    0 -0.00000000000E+00 -0.00000000000E+00 -0.11887393389E+04  0.11887393389E+04  0.00000000000E+00 0. -1.
         25    2    1    2    0    0  0.70920252566E+02  0.40616254150E+02  0.99647346855E+02  0.17953703325E+03  0.12499836098E+03 0.  0.
          2    1    1    2  501    0 -0.12269785501E+03 -0.16253331302E+02 -0.11431527070E+04  0.11498334861E+04  0.00000000000E+00 0. -1.
          1    1    1    2  502    0  0.51777602439E+02 -0.24362922848E+02  0.35340310159E+03  0.35800589987E+03  0.00000000000E+00 0. -1.
         22    1    3    3    0    0  0.65409441947E+02  0.29632943530E+02  0.12904240849E+03  0.14767684188E+03  0.00000000000E+00 0.  1.
         22    1    3    3    0    0  0.55108106187E+01  0.10983310620E+02 -0.29395061634E+02  0.31860191373E+02  0.00000000000E+00 0.  1.
</event>
<event>
 7    1  0.6278987E-006  0.1159515E+03  0.7818608E-02  0.1278220E+00
          2   -1    0    0  502    0  0.00000000000E+00  0.00000000000E+00  0.36312241901E+03  0.36312241901E+03  0.00000000000E+00 0. -1.
          1   -1    0    0  501    0 -0.00000000000E+00 -0.00000000000E+00 -0.56868750489E+03  0.56868750489E+03  0.00000000000E+00 0. -1.
         25    2    1    2    0    0 -0.14493474974E+03 -0.99650839582E+02 -0.17094040469E+03  0.27528483830E+03  0.12499899493E+03 0.  0.
          2    1    1    2  501    0  0.87958901081E+02  0.10734994888E+01 -0.32917961180E+03  0.34073030024E+03  0.00000000000E+00 0. -1.
          1    1    1    2  502    0  0.56975848657E+02  0.98577340094E+02  0.29455493061E+03  0.31579478536E+03  0.00000000000E+00 0. -1.
         22    1    3    3    0    0 -0.23932362293E+02 -0.91396462866E+02 -0.73052174388E+02  0.11942651118E+03  0.00000000000E+00 0.  1.
         22    1    3    3    0    0 -0.12100238744E+03 -0.82543767164E+01 -0.97888230304E+02  0.15585832712E+03  0.00000000000E+00 0.  1.
</event>
<event>
 7    1  0.6278987E-006  0.2315183E+03  0.7818608E-02  0.1221364E+00
          2   -1    0    0  502    0  0.00000000000E+00  0.00000000000E+00  0.16271392793E+04  0.16271392793E+04  0.00000000000E+00 0. -1.
          1   -1    0    0  501    0 -0.00000000000E+00 -0.00000000000E+00 -0.80712050178E+03  0.80712050178E+03  0.00000000000E+00 0. -1.
         25    2    1    2    0    0 -0.15691939768E+03  0.25692390849E+03 -0.30008541520E+03  0.44307362652E+03  0.12501755870E+03 0.  0.
          2    1    1    2  501    0  0.14401509102E+02 -0.76435767298E+02 -0.42348045813E+03  0.43056419777E+03  0.00000000000E+00 0. -1.
          1    1    1    2  502    0  0.14251788858E+03 -0.18048814119E+03  0.15435846509E+04  0.15606219568E+04  0.00000000000E+00 0. -1.
         22    1    3    3    0    0 -0.13461529471E+03  0.26311375223E+03 -0.29820107044E+03  0.41984997629E+03  0.00000000000E+00 0.  1.
         22    1    3    3    0    0 -0.22304102968E+02 -0.61898437393E+01 -0.18843447574E+01  0.23223650227E+02  0.00000000000E+00 0.  1.
</event>
<event>
 7    1  0.6278987E-006  0.2009803E+03  0.7818608E-02  0.1279292E+00
          2   -1    0    0  502    0  0.00000000000E+00  0.00000000000E+00  0.72138357752E+03  0.72138357752E+03  0.00000000000E+00 0. -1.
          1   -1    0    0  501    0 -0.00000000000E+00 -0.00000000000E+00 -0.25374428222E+03  0.25374428222E+03  0.00000000000E+00 0. -1.
         25    2    1    2    0    0 -0.22834765354E+03  0.70112480684E+02 -0.28251036502E+02  0.27107251708E+03  0.12499511042E+03 0.  0.
          2    1    1    2  501    0  0.48940770591E+02  0.11324998680E+02 -0.80518442648E+02  0.94903499554E+02  0.00000000000E+00 0. -1.
          1    1    1    2  502    0  0.17940688294E+03 -0.81437479364E+02  0.57640877445E+03  0.60915184310E+03  0.00000000000E+00 0. -1.
         22    1    3    3    0    0 -0.19360145675E+03  0.64930522869E+02 -0.70590122940E+02  0.21605661830E+03  0.00000000000E+00 0.  1.
         22    1    3    3    0    0 -0.34746196788E+02  0.51819578146E+01  0.42339086438E+02  0.55015898778E+02  0.00000000000E+00 0.  1.
</event>
<event>
 7    1  0.6278987E-006  0.5544621E+02  0.7818608E-02  0.1529296E+00
          2   -1    0    0  502    0  0.00000000000E+00  0.00000000000E+00  0.52396374061E+02  0.52396374061E+02  0.00000000000E+00 0. -1.
          1   -1    0    0  501    0 -0.00000000000E+00 -0.00000000000E+00 -0.51282489459E+03  0.51282489459E+03  0.00000000000E+00 0. -1.
         25    2    1    2    0    0  0.64984058220E+01  0.34766063584E+02 -0.22627708306E+03  0.26091603129E+03  0.12499979446E+03 0.  0.
          2    1    1    2  501    0  0.18235240679E+02  0.17183953927E+02 -0.24455463584E+03  0.24583486772E+03  0.00000000000E+00 0. -1.
          1    1    1    2  502    0 -0.24733646501E+02 -0.51950017511E+02  0.10403198372E+02  0.58470369632E+02  0.00000000000E+00 0. -1.
         22    1    3    3    0    0  0.10436558044E+02  0.59815436249E+02 -0.22756499375E+03  0.23552629266E+03  0.00000000000E+00 0.  1.
         22    1    3    3    0    0 -0.39381522220E+01 -0.25049372665E+02  0.12879106893E+01  0.25389738631E+02  0.00000000000E+00 0.  1.
</event>
<event>
 7    1  0.6278987E-006  0.7469739E+02  0.7818608E-02  0.1345395E+00
          2   -1    0    0  502    0  0.00000000000E+00  0.00000000000E+00  0.20479054733E+03  0.20479054733E+03  0.00000000000E+00 0. -1.
          1   -1    0    0  501    0 -0.00000000000E+00 -0.00000000000E+00 -0.43529887470E+04  0.43529887470E+04  0.00000000000E+00 0. -1.
         25    2    1    2    0    0 -0.54173463189E+02 -0.37236094371E+02 -0.55633905437E+03  0.57398525673E+03  0.12499856274E+03 0.  0.
          2    1    1    2  501    0 -0.11154955822E+02  0.73859783285E+02 -0.37802884810E+04  0.37810264083E+04  0.00000000000E+00 0. -1.
          1    1    1    2  502    0  0.65328419011E+02 -0.36623688914E+02  0.18842933572E+03  0.20276762928E+03  0.00000000000E+00 0. -1.
         22    1    3    3    0    0 -0.76358931874E+02  0.33740335891E+01 -0.46858328196E+03  0.47477611852E+03  0.00000000000E+00 0.  1.
         22    1    3    3    0    0  0.22185468685E+02 -0.40610127960E+02 -0.87755772407E+02  0.99209138211E+02  0.00000000000E+00 0.  1.
</event>
<event>
 7    1  0.6278987E-006  0.4613379E+02  0.7818608E-02  0.1533323E+00
          2   -1    0    0  502    0  0.00000000000E+00  0.00000000000E+00  0.29689420843E+03  0.29689420843E+03  0.00000000000E+00 0. -1.
          1   -1    0    0  501    0 -0.00000000000E+00 -0.00000000000E+00 -0.94023338556E+03  0.94023338556E+03  0.00000000000E+00 0. -1.
         25    2    1    2    0    0 -0.38185912180E+02 -0.59070723357E+02  0.14324681654E+03  0.20270713548E+03  0.12499207206E+03 0.  0.
          2    1    1    2  501    0  0.12899059420E+02  0.44219005792E+02 -0.90817630741E+03  0.90934367076E+03  0.00000000000E+00 0. -1.
          1    1    1    2  502    0  0.25286852760E+02  0.14851717565E+02  0.12159031375E+03  0.12507678775E+03  0.00000000000E+00 0. -1.
         22    1    3    3    0    0  0.38622347883E+02 -0.25408165351E+02  0.13398970334E+02  0.48133076242E+02  0.00000000000E+00 0.  1.
         22    1    3    3    0    0 -0.76808260063E+02 -0.33662558006E+02  0.12984784621E+03  0.15457405924E+03  0.00000000000E+00 0.  1.
</event>
<event>
 7    1  0.6278987E-006  0.4764621E+02  0.7818608E-02  0.1462587E+00
          2   -1    0    0  502    0  0.00000000000E+00  0.00000000000E+00  0.81383793431E+02  0.81383793431E+02  0.00000000000E+00 0. -1.
          1   -1    0    0  501    0 -0.00000000000E+00 -0.00000000000E+00 -0.65706324136E+03  0.65706324136E+03  0.00000000000E+00 0. -1.
         25    2    1    2    0    0 -0.59043021543E+02 -0.51231473562E+01 -0.69135430536E+02  0.15465144923E+03  0.12500015184E+03 0.  0.
          2    1    1    2  501    0  0.30864142554E+02 -0.34435178031E+02 -0.52848265506E+03  0.53050192599E+03  0.00000000000E+00 0. -1.
          1    1    1    2  502    0  0.28178878989E+02  0.39558325387E+02  0.21938637665E+02  0.53293659577E+02  0.00000000000E+00 0. -1.
         22    1    3    3    0    0 -0.59563973043E+02  0.35964548366E+02 -0.85663465304E+02  0.11036097549E+03  0.00000000000E+00 0. -1.
         22    1    3    3    0    0  0.52095149917E+00 -0.41087695722E+02  0.16528034768E+02  0.44290473733E+02  0.00000000000E+00 0. -1.
</event>
<event>
 7    1  0.6278987E-006  0.7601704E+02  0.7818608E-02  0.1397282E+00
          2   -1    0    0  502    0  0.00000000000E+00  0.00000000000E+00  0.97443080481E+02  0.97443080481E+02  0.00000000000E+00 0. -1.
          1   -1    0    0  501    0 -0.00000000000E+00 -0.00000000000E+00 -0.27002084265E+04  0.27002084265E+04  0.00000000000E+00 0. -1.
         25    2    1    2    0    0 -0.44753762808E+02  0.72548408642E+02 -0.80936670472E+03  0.82338614472E+03  0.12499643889E+03 0.  0.
          2    1    1    2  501    0  0.47434836491E+02  0.35159966638E+01 -0.18674608651E+04  0.18680665161E+04  0.00000000000E+00 0. -1.
          1    1    1    2  502    0 -0.26810736835E+01 -0.76064405306E+02  0.74062223847E+02  0.10619884609E+03  0.00000000000E+00 0. -1.
         22    1    3    3    0    0  0.15093049999E+02  0.23612663564E+02 -0.59232696061E+03  0.59298953304E+03  0.00000000000E+00 0.  1.
         22    1    3    3    0    0 -0.59846812806E+02  0.48935745078E+02 -0.21703974411E+03  0.23039661168E+03  0.00000000000E+00 0.  1.
</event>
<event>
 7    1  0.6278987E-006  0.4207933E+02  0.7818608E-02  0.1598981E+00
          2   -1    0    0  502    0  0.00000000000E+00  0.00000000000E+00  0.12781117168E+04  0.12781117168E+04  0.00000000000E+00 0. -1.
          1   -1    0    0  501    0 -0.00000000000E+00 -0.00000000000E+00 -0.10053573318E+03  0.10053573318E+03  0.00000000000E+00 0. -1.
         25    2    1    2    0    0  0.37988615321E+02 -0.38649047431E+02  0.17513351634E+03  0.22188593817E+03  0.12499894899E+03 0.  0.
          2    1    1    2  501    0  0.17095857656E+00  0.21272750082E+02 -0.75277752190E+02  0.78225949004E+02  0.00000000000E+00 0. -1.
          1    1    1    2  502    0 -0.38159573898E+02  0.17376297349E+02  0.10777202194E+04  0.10785355628E+04  0.00000000000E+00 0. -1.
         22    1    3    3    0    0  0.39909813019E+02  0.40569338504E+02  0.77201949386E+02  0.95910402934E+02  0.00000000000E+00 0.  1.
         22    1    3    3    0    0 -0.19211976978E+01 -0.79218385934E+02  0.97931566958E+02  0.12597553523E+03  0.00000000000E+00 0.  1.
</event>
<event>
 7    1  0.6278987E-006  0.1168931E+03  0.7818608E-02  0.1375966E+00
          2   -1    0    0  502    0  0.00000000000E+00  0.00000000000E+00  0.96476271416E+03  0.96476271416E+03  0.00000000000E+00 0. -1.
          1   -1    0    0  501    0 -0.00000000000E+00 -0.00000000000E+00 -0.95819352208E+03  0.95819352208E+03  0.00000000000E+00 0. -1.
         25    2    1    2    0    0 -0.25127809597E+02  0.80501690609E+02 -0.13315360530E+02  0.15137439576E+03  0.12499991944E+03 0.  0.
          2    1    1    2  501    0  0.49418766131E+02 -0.10806957129E+03 -0.87143766766E+03  0.87950261813E+03  0.00000000000E+00 0. -1.
          1    1    1    2  502    0 -0.24290956534E+02  0.27567880685E+02  0.89132222026E+03  0.89207922235E+03  0.00000000000E+00 0. -1.
         22    1    3    3    0    0  0.21087491965E+02 -0.15343875894E+02  0.27045498384E+02  0.37570943928E+02  0.00000000000E+00 0. -1.
         22    1    3    3    0    0 -0.46215301562E+02  0.95845566503E+02 -0.40360858913E+02  0.11380345183E+03  0.00000000000E+00 0. -1.
</event>
<event>
 7    1  0.6278987E-006  0.1108174E+03  0.7818608E-02  0.1349600E+00
          2   -1    0    0  502    0  0.00000000000E+00  0.00000000000E+00  0.11056450720E+03  0.11056450720E+03  0.00000000000E+00 0. -1.
          1   -1    0    0  501    0 -0.00000000000E+00 -0.00000000000E+00 -0.55511969898E+03  0.55511969898E+03  0.00000000000E+00 0. -1.
         25    2    1    2    0    0 -0.92232396542E+02 -0.64565285153E+02 -0.30360909753E+03  0.34710166525E+03  0.12500236355E+03 0.  0.
          2    1    1    2  501    0 -0.17707689299E+02  0.44964875296E+02 -0.19040835287E+03  0.19644526747E+03  0.00000000000E+00 0. -1.
          1    1    1    2  502    0  0.10994008584E+03  0.19600409857E+02  0.49462258618E+02  0.12213727346E+03  0.00000000000E+00 0. -1.
         22    1    3    3    0    0 -0.13471229228E+02 -0.58604669725E+02 -0.23470096162E+03  0.24228190753E+03  0.00000000000E+00 0.  1.
         22    1    3    3    0    0 -0.78761167314E+02 -0.59606154281E+01 -0.68908135909E+02  0.10481975772E+03  0.00000000000E+00 0.  1.
</event>
<event>
 7    1  0.6278987E-006  0.8828666E+02  0.7818608E-02  0.1438732E+00
          2   -1    0    0  502    0  0.00000000000E+00  0.00000000000E+00  0.94777050249E+03  0.94777050249E+03  0.00000000000E+00 0. -1.
          1   -1    0    0  501    0 -0.00000000000E+00 -0.00000000000E+00 -0.14354705896E+03  0.14354705896E+03  0.00000000000E+00 0. -1.
         25    2    1    2    0    0  0.99557686172E+02  0.39397980544E+02  0.12440877097E+02  0.16505462385E+03  0.12499727870E+03 0.  0.
          2    1    1    2  501    0 -0.70267076862E+02 -0.44585284580E+02 -0.41124202881E+02  0.92825156905E+02  0.00000000000E+00 0. -1.
          1    1    1    2  502    0 -0.29290609310E+02  0.51873040354E+01  0.83290676932E+03  0.83343778070E+03  0.00000000000E+00 0. -1.
         22    1    3    3    0    0  0.44665817407E+02 -0.44360224890E+02 -0.59696082425E+01  0.63233701612E+02  0.00000000000E+00 0. -1.
         22    1    3    3    0    0  0.54891868765E+02  0.83758205434E+02  0.18410485339E+02  0.10182092223E+03  0.00000000000E+00 0. -1.
</event>
<event>
 7    1  0.6278987E-006  0.7442254E+02  0.7818608E-02  0.1347051E+00
          2   -1    0    0  502    0  0.00000000000E+00  0.00000000000E+00  0.27147521044E+04  0.27147521044E+04  0.00000000000E+00 0. -1.
          1   -1    0    0  501    0 -0.00000000000E+00 -0.00000000000E+00 -0.40740050072E+03  0.40740050072E+03  0.00000000000E+00 0. -1.
         25    2    1    2    0    0 -0.16264691049E+02  0.81565347278E+02  0.70100475650E+03  0.71690293984E+03  0.12499884181E+03 0.  0.
          2    1    1    2  501    0  0.69181873661E+02 -0.27433239137E+02 -0.39526325616E+03  0.40220859753E+03  0.00000000000E+00 0. -1.
          1    1    1    2  502    0 -0.52917182612E+02 -0.54132108142E+02  0.20016101034E+04  0.20030410678E+04  0.00000000000E+00 0. -1.
         22    1    3    3    0    0  0.50168268629E+02  0.29282876032E+02  0.18162925571E+03  0.19069223513E+03  0.00000000000E+00 0. -1.
         22    1    3    3    0    0 -0.66432959678E+02  0.52282471246E+02  0.51937550079E+03  0.52621070471E+03  0.00000000000E+00 0. -1.
</event>
<event>
 7    1  0.6278987E-006  0.2091285E+03  0.7818608E-02  0.1285091E+00
          2   -1    0    0  502    0  0.00000000000E+00  0.00000000000E+00  0.17606043367E+03  0.17606043367E+03  0.00000000000E+00 0. -1.
          1   -1    0    0  501    0 -0.00000000000E+00 -0.00000000000E+00 -0.44427518171E+03  0.44427518171E+03  0.00000000000E+00 0. -1.
         25    2    1    2    0    0  0.21072343320E+03  0.35187131205E+02 -0.58423159730E+02  0.25431927187E+03  0.12499010741E+03 0.  0.
          2    1    1    2  501    0 -0.18273117876E+02  0.41880826683E+02 -0.14001197392E+03  0.14727954142E+03  0.00000000000E+00 0. -1.
          1    1    1    2  502    0 -0.19245031532E+03 -0.77067957887E+02 -0.69779614382E+02  0.21873680208E+03  0.00000000000E+00 0. -1.
         22    1    3    3    0    0  0.50308462622E+02  0.46831266589E+02 -0.63255493220E+02  0.93409669543E+02  0.00000000000E+00 0.  1.
         22    1    3    3    0    0  0.16041497058E+03 -0.11644135384E+02  0.48323334896E+01  0.16090960233E+03  0.00000000000E+00 0.  1.
</event>
<event>
 7    1  0.6278987E-006  0.1118601E+03  0.7818608E-02  0.1358955E+00
          2   -1    0    0  502    0  0.00000000000E+00  0.00000000000E+00  0.50033195270E+03  0.50033195270E+03  0.00000000000E+00 0. -1.
          1   -1    0    0  501    0 -0.00000000000E+00 -0.00000000000E+00 -0.55465521110E+03  0.55465521110E+03  0.00000000000E+00 0. -1.
         25    2    1    2    0    0  0.11362580621E+03 -0.94249341541E+02  0.14419810737E+03  0.24127078624E+03  0.12499894362E+03 0.  0.
          2    1    1    2  501    0 -0.70231158806E+02  0.85715319485E+02 -0.49841207474E+03  0.51058214610E+03  0.00000000000E+00 0. -1.
          1    1    1    2  502    0 -0.43394647401E+02  0.85340220558E+01  0.29989070898E+03  0.30313423147E+03  0.00000000000E+00 0. -1.
         22    1    3    3    0    0  0.10201471011E+03 -0.64674966588E+01  0.57190755622E+02  0.11713074797E+03  0.00000000000E+00 0. -1.
         22    1    3    3    0    0  0.11611096102E+02 -0.87781844882E+02  0.87007351744E+02  0.12414003827E+03  0.00000000000E+00 0. -1.
</event>
<event>
 7    1  0.6278987E-006  0.1371690E+03  0.7818608E-02  0.1350966E+00
          2   -1    0    0  502    0  0.00000000000E+00  0.00000000000E+00  0.24829485437E+04  0.24829485437E+04  0.00000000000E+00 0. -1.
          1   -1    0    0  501    0 -0.00000000000E+00 -0.00000000000E+00 -0.61861969942E+03  0.61861969942E+03  0.00000000000E+00 0. -1.
         25    2    1    2    0    0  0.13749503826E+02  0.11522648026E+03  0.39727157354E+02  0.17512705321E+03  0.12500018852E+03 0.  0.
          2    1    1    2  501    0  0.17349418700E+02 -0.13807493774E+03 -0.54197204556E+03  0.55955284731E+03  0.00000000000E+00 0. -1.
          1    1    1    2  502    0 -0.31098922526E+02  0.22848457488E+02  0.23665737325E+04  0.23668883426E+04  0.00000000000E+00 0. -1.
         22    1    3    3    0    0  0.46981196412E+02  0.75433790094E+02 -0.24885365194E+02  0.92286352757E+02  0.00000000000E+00 0. -1.
         22    1    3    3    0    0 -0.33231692586E+02  0.39792690161E+02  0.64612522548E+02  0.82840700458E+02  0.00000000000E+00 0. -1.
</event>
<event>
 7    1  0.6278987E-006  0.7875997E+02  0.7818608E-02  0.1344306E+00
          2   -1    0    0  502    0  0.00000000000E+00  0.00000000000E+00  0.10667389694E+04  0.10667389694E+04  0.00000000000E+00 0. -1.
          1   -1    0    0  501    0 -0.00000000000E+00 -0.00000000000E+00 -0.33177442143E+03  0.33177442143E+03  0.00000000000E+00 0. -1.
         25    2    1    2    0    0 -0.61770121638E+02  0.72650482866E+02  0.11691311090E+03  0.19592672149E+03  0.12499985643E+03 0.  0.
          2    1    1    2  501    0 -0.91276094763E+01 -0.78669369893E+02 -0.28547806410E+03  0.29625986582E+03  0.00000000000E+00 0. -1.
          1    1    1    2  502    0  0.70897731115E+02  0.60188870278E+01  0.90352950122E+03  0.90632680356E+03  0.00000000000E+00 0. -1.
         22    1    3    3    0    0 -0.30152854960E+02  0.10373187336E+03  0.59308177237E+02  0.12323536871E+03  0.00000000000E+00 0.  1.
         22    1    3    3    0    0 -0.31617266678E+02 -0.31081390498E+02  0.57604933663E+02  0.72691352785E+02  0.00000000000E+00 0.  1.
</event>
<event>
 7    1  0.6278987E-006  0.7562531E+02  0.7818608E-02  0.1398752E+00
          2   -1    0    0  502    0  0.00000000000E+00  0.00000000000E+00  0.29309224744E+04  0.29309224744E+04  0.00000000000E+00 0. -1.
          1   -1    0    0  501    0 -0.00000000000E+00 -0.00000000000E+00 -0.19984349708E+02  0.19984349708E+02  0.00000000000E+00 0. -1.
         25    2    1    2    0    0  0.26046726999E+02 -0.66976678379E+02  0.97691843536E+03  0.98750178361E+03  0.12500334336E+03 0.  0.
          2    1    1    2  501    0  0.20587520602E+02  0.74620058636E+02  0.89709940716E+02  0.11848996843E+03  0.00000000000E+00 0. -1.
          1    1    1    2  502    0 -0.46634247601E+02 -0.76433802563E+01  0.18443097486E+04  0.18449150721E+04  0.00000000000E+00 0. -1.
         22    1    3    3    0    0  0.19922010256E+02  0.26445944450E+02  0.52201689634E+03  0.52306587972E+03  0.00000000000E+00 0. -1.
         22    1    3    3    0    0  0.61247167437E+01 -0.93422622829E+02  0.45490153903E+03  0.46443590389E+03  0.00000000000E+00 0. -1.
</event>
<event>
 7    1  0.6278987E-006  0.6391449E+02  0.7818608E-02  0.1535854E+00
          2   -1    0    0  502    0  0.00000000000E+00  0.00000000000E+00  0.84025796626E+02  0.84025796626E+02  0.00000000000E+00 0. -1.
          1   -1    0    0  501    0 -0.00000000000E+00 -0.00000000000E+00 -0.19037964996E+04  0.19037964996E+04  0.00000000000E+00 0. -1.
         25    2    1    2    0    0 -0.54732089589E+02  0.48591792579E+02 -0.10132544167E+03  0.17675647470E+03  0.12497696701E+03 0.  0.
          2    1    1    2  501    0  0.34538767806E+02 -0.53658148295E+02 -0.17618084839E+04  0.17629637708E+04  0.00000000000E+00 0. -1.
          1    1    1    2  502    0  0.20193321782E+02  0.50663557158E+01  0.43363222603E+02  0.48102050678E+02  0.00000000000E+00 0. -1.
         22    1    3    3    0    0 -0.25728999058E+02 -0.24927455415E+02 -0.90061081563E+02  0.96924495554E+02  0.00000000000E+00 0. -1.
         22    1    3    3    0    0 -0.29003090531E+02  0.73519247994E+02 -0.11264360108E+02  0.79831979147E+02  0.00000000000E+00 0. -1.
</event>
<event>
 7    1  0.6278987E-006  0.7648564E+02  0.7818608E-02  0.1428271E+00
          2   -1    0    0  502    0  0.00000000000E+00  0.00000000000E+00  0.72160147024E+03  0.72160147024E+03  0.00000000000E+00 0. -1.
          1   -1    0    0  501    0 -0.00000000000E+00 -0.00000000000E+00 -0.73188900939E+03  0.73188900939E+03  0.00000000000E+00 0. -1.
         25    2    1    2    0    0 -0.31919721792E+02  0.24913649322E+02  0.15085984799E+02  0.13225533216E+03  0.12499730952E+03 0.  0.
          2    1    1    2  501    0  0.59206888454E+02 -0.50130758681E+02 -0.67053335536E+03  0.67500631793E+03  0.00000000000E+00 0. -1.
          1    1    1    2  502    0 -0.27287166662E+02  0.25217109360E+02  0.64515983140E+03  0.64622882954E+03  0.00000000000E+00 0. -1.
         22    1    3    3    0    0 -0.54955697855E+02 -0.33684872155E+02  0.23758783714E+02  0.68697009705E+02  0.00000000000E+00 0. -1.
         22    1    3    3    0    0  0.23035976063E+02  0.58598521477E+02 -0.86727989145E+01  0.63558322457E+02  0.00000000000E+00 0. -1.
</event>
<event>
 7    1  0.6278987E-006  0.1817703E+03  0.7818608E-02  0.1211517E+00
          2   -1    0    0  502    0  0.00000000000E+00  0.00000000000E+00  0.83671265168E+03  0.83671265168E+03  0.00000000000E+00 0. -1.
          1   -1    0    0  501    0 -0.00000000000E+00 -0.00000000000E+00 -0.53285889413E+03  0.53285889413E+03  0.00000000000E+00 0. -1.
         25    2    1    2    0    0  0.36044798279E+02  0.12874475373E+03 -0.27845760617E+03  0.33322024776E+03  0.12499062359E+03 0.  0.
          2    1    1    2  501    0 -0.10080828871E+03  0.43834042974E+02 -0.20237625834E+03  0.23030389562E+03  0.00000000000E+00 0. -1.
          1    1    1    2  502    0  0.64763490432E+02 -0.17257879671E+03  0.78468762206E+03  0.80604740244E+03  0.00000000000E+00 0. -1.
         22    1    3    3    0    0 -0.97977465544E+01  0.82378924992E+02 -0.24751616188E+03  0.26104891019E+03  0.00000000000E+00 0.  1.
         22    1    3    3    0    0  0.45842544834E+02  0.46365828741E+02 -0.30941444290E+02  0.72171337569E+02  0.00000000000E+00 0.  1.
</event>
<event>
 7    1  0.6278987E-006  0.6103438E+02  0.7818608E-02  0.1410276E+00
          2   -1    0    0  502    0  0.00000000000E+00  0.00000000000E+00  0.43247205262E+04  0.43247205262E+04  0.00000000000E+00 0. -1.
          1   -1    0    0  501    0 -0.00000000000E+00 -0.00000000000E+00 -0.25176443821E+03  0.25176443821E+03  0.00000000000E+00 0. -1.
         25    2    1    2    0    0 -0.10931621666E+02 -0.11093929784E+03  0.44789723047E+03  0.47819212209E+03  0.12501499272E+03 0.  0.
          2    1    1    2  501    0 -0.62772233031E+01  0.60303857644E+02 -0.23254473219E+03  0.24031856202E+03  0.00000000000E+00 0. -1.
          1    1    1    2  502    0  0.17208844969E+02  0.50635440198E+02  0.38576035897E+04  0.38579742803E+04  0.00000000000E+00 0. -1.
         22    1    3    3    0    0 -0.27932622708E+02 -0.16449336605E+02  0.16756120097E+02  0.36490815924E+02  0.00000000000E+00 0.  1.
         22    1    3    3    0    0  0.17001001042E+02 -0.94489961237E+02  0.43114111038E+03  0.44170130616E+03  0.00000000000E+00 0.  1.
</event>
<event>
 7    1  0.6278987E-006  0.4112289E+02  0.7818608E-02  0.1513833E+00
          2   -1    0    0  502    0  0.00000000000E+00  0.00000000000E+00  0.22070227912E+04  0.22070227912E+04  0.00000000000E+00 0. -1.
          1   -1    0    0  501    0 -0.00000000000E+00 -0.00000000000E+00 -0.12863490990E+03  0.12863490990E+03  0.00000000000E+00 0. -1.
         25    2    1    2    0    0  0.30201677692E+01  0.99793101968E+01  0.15332601061E+03  0.19809947193E+03  0.12500330879E+03 0.  0.
          2    1    1    2  501    0  0.27492605073E+02 -0.31701577240E+02 -0.10192520202E+03  0.11022513389E+03  0.00000000000E+00 0. -1.
          1    1    1    2  502    0 -0.30512772842E+02  0.21722267043E+02  0.20269870727E+04  0.20273330952E+04  0.00000000000E+00 0. -1.
         22    1    3    3    0    0  0.52349984836E+02  0.35950760107E+02  0.11182440394E+03  0.12859889339E+03  0.00000000000E+00 0.  1.
         22    1    3    3    0    0 -0.49329817067E+02 -0.25971449910E+02  0.41501606669E+02  0.69500578548E+02  0.00000000000E+00 0.  1.
</event>
<event>
 7    1  0.6278987E-006  0.6768397E+02  0.7818608E-02  0.1513948E+00
          2   -1    0    0  502    0  0.00000000000E+00  0.00000000000E+00  0.62542852392E+03  0.62542852392E+03  0.00000000000E+00 0. -1.
          1   -1    0    0  501    0 -0.00000000000E+00 -0.00000000000E+00 -0.14648302528E+04  0.14648302528E+04  0.00000000000E+00 0. -1.
         25    2    1    2    0    0 -0.42455206763E+02  0.15798505686E+02 -0.10302005173E+03  0.16819739306E+03  0.12500077844E+03 0.  0.
          2    1    1    2  501    0 -0.21784151423E+02  0.65204302406E+01 -0.13271735310E+04  0.13273683161E+04  0.00000000000E+00 0. -1.
          1    1    1    2  502    0  0.64239358186E+02 -0.22318935927E+02  0.59079185384E+03  0.59469306756E+03  0.00000000000E+00 0. -1.
         22    1    3    3    0    0  0.42106400783E+01  0.64346797655E+02 -0.39466764014E+02  0.75603341990E+02  0.00000000000E+00 0. -1.
         22    1    3    3    0    0 -0.46665846841E+02 -0.48548291968E+02 -0.63553287711E+02  0.92594051069E+02  0.00000000000E+00 0. -1.
</event>
<event>
 7    1  0.6278987E-006  0.2844499E+02  0.7818608E-02  0.1636318E+00
          2   -1    0    0  502    0  0.00000000000E+00  0.00000000000E+00  0.82180307205E+03  0.82180307205E+03  0.00000000000E+00 0. -1.
          1   -1    0    0  501    0 -0.00000000000E+00 -0.00000000000E+00 -0.13616866243E+04  0.13616866243E+04  0.00000000000E+00 0. -1.
         25    2    1    2    0    0 -0.26615952501E+02  0.52923581192E+01 -0.90956818046E+03  0.91851898795E+03  0.12500575320E+03 0.  0.
          2    1    1    2  501    0  0.13085762784E+02 -0.26628428121E+02 -0.44695583345E+03  0.44793953546E+03  0.00000000000E+00 0. -1.
          1    1    1    2  502    0  0.13530189717E+02  0.21336070002E+02  0.81664046167E+03  0.81703117294E+03  0.00000000000E+00 0. -1.
         22    1    3    3    0    0 -0.20117294781E+02  0.64884262422E+02 -0.47159364264E+03  0.47646115984E+03  0.00000000000E+00 0.  1.
         22    1    3    3    0    0 -0.64986577199E+01 -0.59591904303E+02 -0.43797453782E+03  0.44205782811E+03  0.00000000000E+00 0.  1.
</event>
<event>
 7    1  0.6278987E-006  0.4489713E+02  0.7818608E-02  0.1497515E+00
          2   -1    0    0  502    0  0.00000000000E+00  0.00000000000E+00  0.18773362477E+04  0.18773362477E+04  0.00000000000E+00 0. -1.
          1   -1    0    0  501    0 -0.00000000000E+00 -0.00000000000E+00 -0.14356820313E+04  0.14356820313E+04  0.00000000000E+00 0. -1.
         25    2    1    2    0    0 -0.86620312677E+01  0.86513458384E+01  0.63241875401E+03  0.64477050919E+03  0.12500261006E+03 0.  0.
          2    1    1    2  501    0 -0.44009113612E+01 -0.44701538389E+02 -0.14288564237E+04  0.14295622669E+04  0.00000000000E+00 0. -1.
          1    1    1    2  502    0  0.13062942629E+02  0.36050192551E+02  0.12380918860E+04  0.12386855029E+04  0.00000000000E+00 0. -1.
         22    1    3    3    0    0  0.35095859192E+02 -0.14599666163E+02  0.52610190307E+03  0.52747329980E+03  0.00000000000E+00 0. -1.
         22    1    3    3    0    0 -0.43757890460E+02  0.23251012001E+02  0.10631685094E+03  0.11729720939E+03  0.00000000000E+00 0. -1.
</event>
<event>
 7    1  0.6278987E-006  0.6199164E+02  0.7818608E-02  0.1495521E+00
          2   -1    0    0  502    0  0.00000000000E+00  0.00000000000E+00  0.13968272820E+04  0.13968272820E+04  0.00000000000E+00 0. -1.
          1   -1    0    0  501    0 -0.00000000000E+00 -0.00000000000E+00 -0.31570995181E+03  0.31570995181E+03  0.00000000000E+00 0. -1.
         25    2    1    2    0    0 -0.69727449465E+02  0.54256288396E+02 -0.17469026839E+02  0.15406463281E+03  0.12500032858E+03 0.  0.
          2    1    1    2  501    0  0.49623945919E+02 -0.34543961607E+02 -0.22581621064E+03  0.23377079005E+03  0.00000000000E+00 0. -1.
          1    1    1    2  502    0  0.20103503546E+02 -0.19712326789E+02  0.13244025677E+04  0.13247018110E+04  0.00000000000E+00 0. -1.
         22    1    3    3    0    0 -0.53916470490E+02 -0.32862883098E+02 -0.17499196356E+02  0.65522337784E+02  0.00000000000E+00 0.  1.
         22    1    3    3    0    0 -0.15810978975E+02  0.87119171494E+02  0.30169517039E-01  0.88542295024E+02  0.00000000000E+00 0.  1.
</event>
<event>
 7    1  0.6278987E-006  0.9365711E+02  0.7818608E-02  0.1380442E+00
          2   -1    0    0  502    0  0.00000000000E+00  0.00000000000E+00  0.17927451773E+04  0.17927451773E+04  0.00000000000E+00 0. -1.
          1   -1    0    0  501    0 -0.00000000000E+00 -0.00000000000E+00 -0.14932359939E+03  0.14932359939E+03  0.00000000000E+00 0. -1.
         25    2    1    2    0    0 -0.55341153750E+02  0.10518716103E+03  0.27951176192E+02  0.17475065127E+03  0.12501815758E+03 0.  0.
          2    1    1    2  501    0  0.15017837674E+02 -0.87060131361E+02 -0.49830702710E+02  0.10143027582E+03  0.00000000000E+00 0. -1.
          1    1    1    2  502    0  0.40323316075E+02 -0.18127029672E+02  0.16653011044E+04  0.16658878496E+04  0.00000000000E+00 0. -1.
         22    1    3    3    0    0 -0.65989254414E+02  0.10619910195E+02  0.41428206403E+02  0.78636254211E+02  0.00000000000E+00 0.  1.
         22    1    3    3    0    0  0.10648100664E+02  0.94567250839E+02 -0.13477030211E+02  0.96114397060E+02  0.00000000000E+00 0.  1.
</event>
<event>
 7    1  0.6278987E-006  0.2049514E+03  0.7818608E-02  0.1329460E+00
          2   -1    0    0  502    0  0.00000000000E+00  0.00000000000E+00  0.70974006026E+03  0.70974006026E+03  0.00000000000E+00 0. -1.
          1   -1    0    0  501    0 -0.00000000000E+00 -0.00000000000E+00 -0.13879435690E+04  0.13879435690E+04  0.00000000000E+00 0. -1.
         25    2    1    2    0    0 -0.22701413505E+03 -0.59952273666E+02 -0.95976165509E+03  0.99594043609E+03  0.12500090017E+03 0.  0.
          2    1    1    2  501    0  0.31083161766E+02  0.14046843532E+01 -0.39435147661E+03  0.39557707616E+03  0.00000000000E+00 0. -1.
          1    1    1    2  502    0  0.19593097329E+03  0.58547589313E+02  0.67590962291E+03  0.70616611704E+03  0.00000000000E+00 0. -1.
         22    1    3    3    0    0 -0.31442565964E+02  0.24021078876E+02 -0.30249675567E+03  0.30507365402E+03  0.00000000000E+00 0.  1.
         22    1    3    3    0    0 -0.19557156909E+03 -0.83973352542E+02 -0.65726489941E+03  0.69086678208E+03  0.00000000000E+00 0.  1.
</event>
<event>
 7    1  0.6278987E-006  0.9315460E+02  0.7818608E-02  0.1366070E+00
          2   -1    0    0  502    0  0.00000000000E+00  0.00000000000E+00  0.39732816896E+03  0.39732816896E+03  0.00000000000E+00 0. -1.
          1   -1    0    0  501    0 -0.00000000000E+00 -0.00000000000E+00 -0.93771109926E+03  0.93771109926E+03  0.00000000000E+00 0. -1.
         25    2    1    2    0    0 -0.48346237328E+02  0.51259075368E+02  0.39345717067E+02  0.14879111910E+03  0.12500344075E+03 0.  0.
          2    1    1    2  501    0  0.90735897403E+02 -0.24675262738E+02 -0.87839797721E+03  0.88341659370E+03  0.00000000000E+00 0. -1.
          1    1    1    2  502    0 -0.42389660075E+02 -0.26583812630E+02  0.29866932983E+03  0.30283155542E+03  0.00000000000E+00 0. -1.
         22    1    3    3    0    0 -0.26586167433E+02 -0.39135276492E+02  0.28378324121E+02  0.55169950560E+02  0.00000000000E+00 0.  1.
         22    1    3    3    0    0 -0.21760069895E+02  0.90394351860E+02  0.10967392946E+02  0.93621168536E+02  0.00000000000E+00 0.  1.
</event>
<event>
 7    1  0.6278987E-006  0.9499918E+02  0.7818608E-02  0.1346884E+00
          2   -1    0    0  502    0  0.00000000000E+00  0.00000000000E+00  0.90412653670E+03  0.90412653670E+03  0.00000000000E+00 0. -1.
          1   -1    0    0  501    0 -0.00000000000E+00 -0.00000000000E+00 -0.28600299974E+03  0.28600299974E+03  0.00000000000E+00 0. -1.
         25    2    1    2    0    0 -0.82766981799E+02 -0.73667259401E+02 -0.14761294995E+03  0.22291566159E+03  0.12499828321E+03 0.  0.
          2    1    1    2  501    0  0.26789038105E+02  0.87650005220E+02 -0.78702088289E+02  0.12080643476E+03  0.00000000000E+00 0. -1.
          1    1    1    2  502    0  0.55977943694E+02 -0.13982745819E+02  0.84443857519E+03  0.84640744009E+03  0.00000000000E+00 0. -1.
         22    1    3    3    0    0 -0.47657451236E+02 -0.48223411151E+02  0.13069744903E+01  0.67811785286E+02  0.00000000000E+00 0.  1.
         22    1    3    3    0    0 -0.35109530563E+02 -0.25443848250E+02 -0.14891992444E+03  0.15510387630E+03  0.00000000000E+00 0.  1.
</event>
<event>
 7    1  0.6278987E-006  0.1544924E+03  0.7818608E-02  0.1280010E+00
          2   -1    0    0  502    0  0.00000000000E+00  0.00000000000E+00  0.24035525420E+04  0.24035525420E+04  0.00000000000E+00 0. -1.
          1   -1    0    0  501    0 -0.00000000000E+00 -0.00000000000E+00 -0.25793430770E+03  0.25793430770E+03  0.00000000000E+00 0. -1.
         25    2    1    2    0    0 -0.34377525281E+02 -0.17565988405E+03  0.79487652899E+03  0.82431297985E+03  0.12499993320E+03 0.  0.
          2    1    1    2  501    0 -0.44491387990E+02  0.47255690542E+02 -0.23525005526E+03  0.24403928453E+03  0.00000000000E+00 0. -1.
          1    1    1    2  502    0  0.78868913271E+02  0.12840419351E+03  0.15859917606E+04  0.15931345853E+04  0.00000000000E+00 0. -1.
         22    1    3    3    0    0 -0.52376634182E+02 -0.18691491002E+03  0.74929345462E+03  0.77402918326E+03  0.00000000000E+00 0. -1.
         22    1    3    3    0    0  0.17999108901E+02  0.11255025970E+02  0.45583074375E+02  0.50283796597E+02  0.00000000000E+00 0. -1.
</event>
<event>
 7    1  0.6278987E-006  0.7033227E+02  0.7818608E-02  0.1443443E+00
          2   -1    0    0  502    0  0.00000000000E+00  0.00000000000E+00  0.22716094014E+03  0.22716094014E+03  0.00000000000E+00 0. -1.
          1   -1    0    0  501    0 -0.00000000000E+00 -0.00000000000E+00 -0.16504257560E+04  0.16504257560E+04  0.00000000000E+00 0. -1.
         25    2    1    2    0    0 -0.85819658219E+02  0.44505687241E+02 -0.63864162639E+03  0.65790075592E+03  0.12499803096E+03 0.  0.
          2    1    1    2  501    0  0.49787780116E+02 -0.45656829781E+02 -0.99951299566E+03  0.10017931911E+04  0.00000000000E+00 0. -1.
          1    1    1    2  502    0  0.36031878103E+02  0.11511425396E+01  0.21488980615E+03  0.21789274921E+03  0.00000000000E+00 0. -1.
         22    1    3    3    0    0  0.80063805398E+01  0.61693366498E+02 -0.27594179190E+03  0.28286754164E+03  0.00000000000E+00 0.  1.
         22    1    3    3    0    0 -0.93826038759E+02 -0.17187679257E+02 -0.36269983449E+03  0.37503321428E+03  0.00000000000E+00 0.  1.
</event>
<event>
 7    1  0.6278987E-006  0.1178639E+03  0.7818608E-02  0.1302717E+00
          2   -1    0    0  502    0  0.00000000000E+00  0.00000000000E+00  0.62296314677E+03  0.62296314677E+03  0.00000000000E+00 0. -1.
          1   -1    0    0  501    0 -0.00000000000E+00 -0.00000000000E+00 -0.18870743225E+03  0.18870743225E+03  0.00000000000E+00 0. -1.
         25    2    1    2    0    0  0.19033388455E+02  0.56311612799E+02  0.15813791875E+02  0.13931303661E+03  0.12499911417E+03 0.  0.
          2    1    1    2  501    0 -0.88771955841E+01  0.68233590272E+02 -0.10977701270E+03  0.12955932988E+03  0.00000000000E+00 0. -1.
          1    1    1    2  502    0 -0.10156192871E+02 -0.12454520307E+03  0.52821893535E+03  0.54279821253E+03  0.00000000000E+00 0. -1.
         22    1    3    3    0    0  0.54643198693E+02  0.21014161482E+02  0.51336943964E+02  0.77864985466E+02  0.00000000000E+00 0. -1.
         22    1    3    3    0    0 -0.35609810237E+02  0.35297451316E+02 -0.35523152089E+02  0.61448051140E+02  0.00000000000E+00 0. -1.
</event>
<event>
 7    1  0.6278987E-006  0.9201211E+02  0.7818608E-02  0.1376559E+00
          2   -1    0    0  502    0  0.00000000000E+00  0.00000000000E+00  0.45881404079E+03  0.45881404079E+03  0.00000000000E+00 0. -1.
          1   -1    0    0  501    0 -0.00000000000E+00 -0.00000000000E+00 -0.10402013008E+04  0.10402013008E+04  0.00000000000E+00 0. -1.
         25    2    1    2    0    0  0.10899409087E+03 -0.27451756072E+02 -0.86392138630E+03  0.88012568716E+03  0.12501101046E+03 0.  0.
          2    1    1    2  501    0 -0.36349631827E+02 -0.28922550818E+02 -0.16015286242E+03  0.16675355775E+03  0.00000000000E+00 0. -1.
          1    1    1    2  502    0 -0.72644459040E+02  0.56374306890E+02  0.44268698873E+03  0.45213609666E+03  0.00000000000E+00 0. -1.
         22    1    3    3    0    0  0.13184969351E+01  0.39042732187E+02 -0.14602265764E+03  0.15115783114E+03  0.00000000000E+00 0.  1.
         22    1    3    3    0    0  0.10767559393E+03 -0.66494488259E+02 -0.71789872865E+03  0.72896785601E+03  0.00000000000E+00 0.  1.
</event>
<event>
 7    1  0.6278987E-006  0.9148365E+02  0.7818608E-02  0.1438538E+00
          2   -1    0    0  502    0  0.00000000000E+00  0.00000000000E+00  0.19378444927E+04  0.19378444927E+04  0.00000000000E+00 0. -1.
          1   -1    0    0  501    0 -0.00000000000E+00 -0.00000000000E+00 -0.26185854778E+03  0.26185854778E+03  0.00000000000E+00 0. -1.
         25    2    1    2    0    0 -0.53118014610E+02 -0.80090129716E+02  0.64111223815E+02  0.17019089552E+03  0.12497495567E+03 0.  0.
          2    1    1    2  501    0  0.25430021374E+02  0.87826941216E+02 -0.19869013704E+03  0.21871906214E+03  0.00000000000E+00 0. -1.
          1    1    1    2  502    0  0.27687993235E+02 -0.77368114999E+01  0.18105648582E+04  0.18107930828E+04  0.00000000000E+00 0. -1.
         22    1    3    3    0    0  0.56585778645E+01 -0.73063143774E+02 -0.11484534535E+02  0.74176391225E+02  0.00000000000E+00 0. -1.
         22    1    3    3    0    0 -0.58776592474E+02 -0.70269859416E+01  0.75595758350E+02  0.96014504294E+02  0.00000000000E+00 0. -1.
</event>
<event>
 7    1  0.6278987E-006  0.9872793E+02  0.7818608E-02  0.1401885E+00
          2   -1    0    0  502    0  0.00000000000E+00  0.00000000000E+00  0.74374638535E+03  0.74374638535E+03  0.00000000000E+00 0. -1.
          1   -1    0    0  501    0 -0.00000000000E+00 -0.00000000000E+00 -0.29446148235E+03  0.29446148235E+03  0.00000000000E+00 0. -1.
         25    2    1    2    0    0 -0.37286384771E+02  0.77554188476E+02  0.12300541329E+03  0.19534727533E+03  0.12500119855E+03 0.  0.
          2    1    1    2  501    0  0.27019650522E+02  0.22734716292E+02 -0.25270732540E+03  0.25516253869E+03  0.00000000000E+00 0. -1.
          1    1    1    2  502    0  0.10266734249E+02 -0.10028890477E+03  0.57898681511E+03  0.58769805370E+03  0.00000000000E+00 0. -1.
         22    1    3    3    0    0 -0.54017804326E+02 -0.57739908794E+01  0.88024350531E+02  0.10343862161E+03  0.00000000000E+00 0. -1.
         22    1    3    3    0    0  0.16731419556E+02  0.83328179356E+02  0.34981062762E+02  0.91908653711E+02  0.00000000000E+00 0. -1.
</event>
<event>
 7    1  0.6278987E-006  0.1328504E+03  0.7818608E-02  0.1348914E+00
          2   -1    0    0  502    0  0.00000000000E+00  0.00000000000E+00  0.10075880873E+04  0.10075880873E+04  0.00000000000E+00 0. -1.
          1   -1    0    0  501    0 -0.00000000000E+00 -0.00000000000E+00 -0.40120178788E+03  0.40120178788E+03  0.00000000000E+00 0. -1.
         25    2    1    2    0    0  0.12329903492E+03 -0.23000566917E+02  0.17326600932E+03  0.24774320318E+03  0.12499562651E+03 0.  0.
          2    1    1    2  501    0 -0.43352542693E+01 -0.40315971678E+02 -0.35711145157E+03  0.35940612244E+03  0.00000000000E+00 0. -1.
          1    1    1    2  502    0 -0.11896378065E+03  0.63316538595E+02  0.79023174169E+03  0.80164054959E+03  0.00000000000E+00 0. -1.
         22    1    3    3    0    0  0.43696263224E+02  0.50593839095E+02  0.49318960171E+02  0.83075025167E+02  0.00000000000E+00 0.  1.
         22    1    3    3    0    0  0.79602771698E+02 -0.73594406012E+02  0.12394704915E+03  0.16466817801E+03  0.00000000000E+00 0.  1.
</event>
<event>
 7    1  0.6278987E-006  0.4660334E+02  0.7818608E-02  0.1541876E+00
          2   -1    0    0  502    0  0.00000000000E+00  0.00000000000E+00  0.12524803028E+04  0.12524803028E+04  0.00000000000E+00 0. -1.
          1   -1    0    0  501    0 -0.00000000000E+00 -0.00000000000E+00 -0.17686455523E+03  0.17686455523E+03  0.00000000000E+00 0. -1.
         25    2    1    2    0    0 -0.57837069290E+02 -0.21295373753E+02  0.19168098308E+03  0.23699198134E+03  0.12499992168E+03 0.  0.
          2    1    1    2  501    0  0.46306709835E+02 -0.36191764783E+01 -0.15052526785E+03  0.15752861986E+03  0.00000000000E+00 0. -1.
          1    1    1    2  502    0  0.11530359454E+02  0.24914550232E+02  0.10344600323E+04  0.10348242568E+04  0.00000000000E+00 0. -1.
         22    1    3    3    0    0 -0.17907247562E+00  0.14411094820E+02  0.16253948228E+03  0.16317718903E+03  0.00000000000E+00 0. -1.
         22    1    3    3    0    0 -0.57657996814E+02 -0.35706468573E+02  0.29141500797E+02  0.73814792307E+02  0.00000000000E+00 0. -1.
</event>
<event>
 7    1  0.6278987E-006  0.5242472E+02  0.7818608E-02  0.1500060E+00
          2   -1    0    0  502    0  0.00000000000E+00  0.00000000000E+00  0.10548964588E+04  0.10548964588E+04  0.00000000000E+00 0. -1.
          1   -1    0    0  501    0 -0.00000000000E+00 -0.00000000000E+00 -0.11257314669E+04  0.11257314669E+04  0.00000000000E+00 0. -1.
         25    2    1    2    0    0  0.58593576437E+02  0.58297109459E+02  0.23069204691E+03  0.27509250067E+03  0.12500121297E+03 0.  0.
          2    1    1    2  501    0 -0.42790356008E+02 -0.30163872100E+02 -0.11025853047E+04  0.11038275354E+04  0.00000000000E+00 0. -1.
          1    1    1    2  502    0 -0.15803220429E+02 -0.28133237359E+02  0.80105824969E+03  0.80170788959E+03  0.00000000000E+00 0. -1.
         22    1    3    3    0    0  0.24403318992E+02  0.34306667917E+02  0.22947744546E+03  0.23330745255E+03  0.00000000000E+00 0.  1.
         22    1    3    3    0    0  0.34190257445E+02  0.23990441542E+02  0.12146014550E+01  0.41785048118E+02  0.00000000000E+00 0.  1.
</event>
<event>
 7    1  0.6278987E-006  0.1544750E+03  0.7818608E-02  0.1307347E+00
          2   -1    0    0  502    0  0.00000000000E+00  0.00000000000E+00  0.49954835423E+03  0.49954835423E+03  0.00000000000E+00 0. -1.
          1   -1    0    0  501    0 -0.00000000000E+00 -0.00000000000E+00 -0.28983423577E+03  0.28983423577E+03  0.00000000000E+00 0. -1.
         25    2    1    2    0    0 -0.54615594870E+02 -0.19252080125E+03  0.22999206059E+03  0.32949833564E+03  0.12500273253E+03 0.  0.
          2    1    1    2  501    0  0.48481802902E+02  0.14257212912E+03 -0.21291219571E+03  0.26078516119E+03  0.00000000000E+00 0. -1.
          1    1    1    2  502    0  0.61337919678E+01  0.49948672131E+02  0.19263425358E+03  0.19909909317E+03  0.00000000000E+00 0. -1.
         22    1    3    3    0    0  0.27965507612E+02 -0.24708898593E+02  0.85057474332E+02  0.92883654242E+02  0.00000000000E+00 0. -1.
         22    1    3    3    0    0 -0.82581102483E+02 -0.16781190265E+03  0.14493458626E+03  0.23661468140E+03  0.00000000000E+00 0. -1.
</event>
<event>
 7    1  0.6278987E-006  0.5277680E+02  0.7818608E-02  0.1554182E+00
          2   -1    0    0  502    0  0.00000000000E+00  0.00000000000E+00  0.98352986945E+02  0.98352986945E+02  0.00000000000E+00 0. -1.
          1   -1    0    0  501    0 -0.00000000000E+00 -0.00000000000E+00 -0.18254640479E+03  0.18254640479E+03  0.00000000000E+00 0. -1.
         25    2    1    2    0    0  0.15647701188E+02 -0.49608428005E+02 -0.61703053364E+02  0.14879150185E+03  0.12500319014E+03 0.  0.
          2    1    1    2  501    0  0.20082863009E+02  0.99105800208E+01 -0.61838503250E+02  0.65768848760E+02  0.00000000000E+00 0. -1.
          1    1    1    2  502    0 -0.35730564197E+02  0.39697847984E+02  0.39348138773E+02  0.66339041124E+02  0.00000000000E+00 0. -1.
         22    1    3    3    0    0  0.51527762952E+02  0.21213599341E+02 -0.20774159799E+02  0.59470100615E+02  0.00000000000E+00 0. -1.
         22    1    3    3    0    0 -0.35880061764E+02 -0.70822027346E+02 -0.40928893565E+02  0.89321401232E+02  0.00000000000E+00 0. -1.
</event>
<event>
 7    1  0.6278987E-006  0.8852672E+02  0.7818608E-02  0.1339490E+00
          2   -1    0    0  502    0  0.00000000000E+00  0.00000000000E+00  0.21188845654E+02  0.21188845654E+02  0.00000000000E+00 0. -1.
          1   -1    0    0  501    0 -0.00000000000E+00 -0.00000000000E+00 -0.13660366965E+04  0.13660366965E+04  0.00000000000E+00 0. -1.
         25    2    1    2    0    0  0.59663016971E+02 -0.53388944696E+02 -0.62225276451E+03  0.63971693401E+03  0.12501678971E+03 0.  0.
          2    1    1    2  501    0 -0.99465524471E+02  0.75246610934E+00 -0.60085911023E+03  0.60903663856E+03  0.00000000000E+00 0. -1.
          1    1    1    2  502    0  0.39802507500E+02  0.52636478587E+02 -0.12173597609E+03  0.13847196957E+03  0.00000000000E+00 0. -1.
         22    1    3    3    0    0  0.15146975392E+02  0.40761027467E+02 -0.21550377838E+03  0.21984715308E+03  0.00000000000E+00 0.  1.
         22    1    3    3    0    0  0.44516041579E+02 -0.94149972163E+02 -0.40674898613E+03  0.41986978092E+03  0.00000000000E+00 0.  1.
</event>
<event>
 7    1  0.6278987E-006  0.1408590E+03  0.7818608E-02  0.1298590E+00
          2   -1    0    0  502    0  0.00000000000E+00  0.00000000000E+00  0.59983519728E+03  0.59983519728E+03  0.00000000000E+00 0. -1.
          1   -1    0    0  501    0 -0.00000000000E+00 -0.00000000000E+00 -0.24764891260E+04  0.24764891260E+04  0.00000000000E+00 0. -1.
         25    2    1    2    0    0  0.71825645136E+02  0.16733869244E+03  0.24312005260E+03  0.32847087638E+03  0.12499838146E+03 0.  0.
          2    1    1    2  501    0 -0.11161466842E+01 -0.59795113081E+02 -0.24202413955E+04  0.24209801969E+04  0.00000000000E+00 0. -1.
          1    1    1    2  502    0 -0.70709498452E+02 -0.10754357936E+03  0.30046741414E+03  0.32687325004E+03  0.00000000000E+00 0. -1.
         22    1    3    3    0    0 -0.31126100230E+02  0.38079191721E+02  0.93053268986E+02  0.10525098492E+03  0.00000000000E+00 0. -1.
         22    1    3    3    0    0  0.10295174537E+03  0.12925950072E+03  0.15006678361E+03  0.22321989146E+03  0.00000000000E+00 0. -1.
</event>
<event>
 7    1  0.6278987E-006  0.9206795E+02  0.7818608E-02  0.1331850E+00
          2   -1    0    0  502    0  0.00000000000E+00  0.00000000000E+00  0.15783803655E+04  0.15783803655E+04  0.00000000000E+00 0. -1.
          1   -1    0    0  501    0 -0.00000000000E+00 -0.00000000000E+00 -0.17523979064E+02  0.17523979064E+02  0.00000000000E+00 0. -1.
         25    2    1    2    0    0  0.24327943035E+02 -0.85795343541E+02  0.79711038320E+03  0.81176508875E+03  0.12499962608E+03 0.  0.
          2    1    1    2  501    0 -0.86055429424E+02  0.57690868603E+02  0.55696818170E+03  0.56652213432E+03  0.00000000000E+00 0. -1.
          1    1    1    2  502    0  0.61727486388E+02  0.28104474938E+02  0.20677782154E+03  0.21761712150E+03  0.00000000000E+00 0. -1.
         22    1    3    3    0    0  0.70357904015E+01 -0.78205963943E+02  0.20762125939E+03  0.22197356260E+03  0.00000000000E+00 0. -1.
         22    1    3    3    0    0  0.17292152634E+02 -0.75893795977E+01  0.58948912381E+03  0.58979152615E+03  0.00000000000E+00 0. -1.
</event>
<event>
 7    1  0.6278987E-006  0.1075981E+03  0.7818608E-02  0.1339614E+00
          2   -1    0    0  502    0  0.00000000000E+00  0.00000000000E+00  0.34564873436E+03  0.34564873436E+03  0.00000000000E+00 0. -1.
          1   -1    0    0  501    0 -0.00000000000E+00 -0.00000000000E+00 -0.50148275793E+04  0.50148275793E+04  0.00000000000E+00 0. -1.
         25    2    1    2    0    0 -0.54460669768E+02  0.37702790798E+02 -0.77952597992E+02  0.16151818775E+03  0.12499620976E+03 0.  0.
          2    1    1    2  501    0  0.57295408460E+02 -0.91865242408E+02 -0.48920682979E+04  0.48932662116E+04  0.00000000000E+00 0. -1.
          1    1    1    2  502    0 -0.28347386918E+01  0.54162451611E+02  0.30084205089E+03  0.30569191434E+03  0.00000000000E+00 0. -1.
         22    1    3    3    0    0  0.31939805061E+01  0.31800365521E+02  0.26860651762E+02  0.41748764913E+02  0.00000000000E+00 0.  1.
         22    1    3    3    0    0 -0.57654650274E+02  0.59024252769E+01 -0.10481324975E+03  0.11976942283E+03  0.00000000000E+00 0.  1.
</event>
<event>
 7    1  0.6278987E-006  0.1192618E+03  0.7818608E-02  0.1288590E+00
          2   -1    0    0  502    0  0.00000000000E+00  0.00000000000E+00  0.36144948851E+03  0.36144948851E+03  0.00000000000E+00 0. -1.
          1   -1    0    0  501    0 -0.00000000000E+00 -0.00000000000E+00 -0.13738629310E+04  0.13738629310E+04  0.00000000000E+00 0. -1.
         25    2    1    2    0    0 -0.42790144680E+02  0.80647366961E+02 -0.71259678721E+02  0.17040341847E+03  0.12499755572E+03 0.  0.
          2    1    1    2  501    0 -0.24165188425E+02 -0.11973361627E+03 -0.12451781684E+04  0.12511549729E+04  0.00000000000E+00 0. -1.
          1    1    1    2  502    0  0.66955333105E+02  0.39086249314E+02  0.30402440465E+03  0.31375402809E+03  0.00000000000E+00 0. -1.
         22    1    3    3    0    0 -0.65897319128E+02  0.50226801595E+02 -0.94506399707E+02  0.12568471606E+03  0.00000000000E+00 0. -1.
         22    1    3    3    0    0  0.23107174447E+02  0.30420565367E+02  0.23246720986E+02  0.44718702405E+02  0.00000000000E+00 0. -1.
</event>
<event>
 7    1  0.6278987E-006  0.4971936E+02  0.7818608E-02  0.1470457E+00
          2   -1    0    0  502    0  0.00000000000E+00  0.00000000000E+00  0.51760864298E+03  0.51760864298E+03  0.00000000000E+00 0. -1.
          1   -1    0    0  501    0 -0.00000000000E+00 -0.00000000000E+00 -0.10695205315E+04  0.10695205315E+04  0.00000000000E+00 0. -1.
         25    2    1    2    0    0  0.18655785032E+02  0.73108740109E+01  0.12048107544E+03  0.17476449600E+03  0.12500180930E+03 0.  0.
          2    1    1    2  501    0 -0.41357299113E+02  0.27875277588E+02 -0.10405948525E+04  0.10417893762E+04  0.00000000000E+00 0. -1.
          1    1    1    2  502    0  0.22701514081E+02 -0.35186151599E+02  0.36820188850E+03  0.37057530234E+03  0.00000000000E+00 0. -1.
         22    1    3    3    0    0 -0.16972217191E+02 -0.48622015311E+02  0.85438034551E+02  0.99758780452E+02  0.00000000000E+00 0.  1.
         22    1    3    3    0    0  0.35628002223E+02  0.55932889321E+02  0.35043040884E+02  0.75005715547E+02  0.00000000000E+00 0.  1.
</event>
<event>
 7    1  0.6278987E-006  0.3098328E+02  0.7818608E-02  0.1587995E+00
          2   -1    0    0  502    0  0.00000000000E+00  0.00000000000E+00  0.70003826474E+03  0.70003826474E+03  0.00000000000E+00 0. -1.
          1   -1    0    0  501    0 -0.00000000000E+00 -0.00000000000E+00 -0.14769742157E+03  0.14769742157E+03  0.00000000000E+00 0. -1.
         25    2    1    2    0    0 -0.63755344004E+01 -0.22125842144E+02  0.56523182612E+03  0.57934627571E+03  0.12499955837E+03 0.  0.
          2    1    1    2  501    0 -0.29104189094E+02  0.10331671612E+02 -0.13613743137E+03  0.13959655254E+03  0.00000000000E+00 0. -1.
          1    1    1    2  502    0  0.35479723494E+02  0.11794170532E+02  0.12324644841E+03  0.12879285805E+03  0.00000000000E+00 0. -1.
         22    1    3    3    0    0  0.27512243298E+02 -0.11605942207E+02  0.27969503601E+02  0.40913500920E+02  0.00000000000E+00 0.  1.
         22    1    3    3    0    0 -0.33887777698E+02 -0.10519899937E+02  0.53726232252E+03  0.53843277479E+03  0.00000000000E+00 0.  1.
</event>
<event>
 7    1  0.6278987E-006  0.1576729E+03  0.7818608E-02  0.1319042E+00
          2   -1    0    0  502    0  0.00000000000E+00  0.00000000000E+00  0.28039925502E+04  0.28039925502E+04  0.00000000000E+00 0. -1.
          1   -1    0    0  501    0 -0.00000000000E+00 -0.00000000000E+00 -0.40061335852E+03  0.40061335852E+03  0.00000000000E+00 0. -1.
         25    2    1    2    0    0  0.88605190558E+02 -0.12548164867E+03 -0.27136737181E+03  0.33594661004E+03  0.12499340132E+03 0.  0.
          2    1    1    2  501    0 -0.37470424790E+02 -0.23749023664E+02 -0.89512569952E+02  0.99902697853E+02  0.00000000000E+00 0. -1.
          1    1    1    2  502    0 -0.51134765769E+02  0.14923067233E+03  0.27642591334E+04  0.27687566008E+04  0.00000000000E+00 0. -1.
         22    1    3    3    0    0  0.32052409323E+02 -0.16899285116E+02  0.21311474088E+01  0.36297170277E+02  0.00000000000E+00 0.  1.
         22    1    3    3    0    0  0.56552781236E+02 -0.10858236355E+03 -0.27349851922E+03  0.29964943977E+03  0.00000000000E+00 0.  1.
</event>
<event>
 7    1  0.6278987E-006  0.3378295E+02  0.7818608E-02  0.1568088E+00
          2   -1    0    0  502    0  0.00000000000E+00  0.00000000000E+00  0.93239758309E+03  0.93239758309E+03  0.00000000000E+00 0. -1.
          1   -1    0    0  501    0 -0.00000000000E+00 -0.00000000000E+00 -0.11403228179E+02  0.11403228179E+02  0.00000000000E+00 0. -1.
         25    2    1    2    0    0  0.77699148794E+01 -0.19355884173E+02  0.50872606459E+03  0.52427639740E+03  0.12501404021E+03 0.  0.
          2    1    1    2  501    0 -0.38363917492E+02  0.98433115801E+01  0.14392295245E+03  0.14927322999E+03  0.00000000000E+00 0. -1.
          1    1    1    2  502    0  0.30594002612E+02  0.95125725934E+01  0.26834533787E+03  0.27025118388E+03  0.00000000000E+00 0. -1.
         22    1    3    3    0    0  0.88033359900E+01 -0.38780412640E+02  0.50218056887E+03  0.50375266042E+03  0.00000000000E+00 0. -1.
         22    1    3    3    0    0 -0.10334211106E+01  0.19424528467E+02  0.65454957155E+01  0.20523736977E+02  0.00000000000E+00 0. -1.
</event>
<event>
 7    1  0.6278987E-006  0.1034033E+03  0.7818608E-02  0.1461154E+00
          2   -1    0    0  502    0  0.00000000000E+00  0.00000000000E+00  0.92491652520E+03  0.92491652520E+03  0.00000000000E+00 0. -1.
          1   -1    0    0  501    0 -0.00000000000E+00 -0.00000000000E+00 -0.55829887291E+02  0.55829887291E+02  0.00000000000E+00 0. -1.
         25    2    1    2    0    0  0.11090744356E+03 -0.43456181475E+02  0.37139151175E+03  0.40956781734E+03  0.12500096502E+03 0.  0.
          2    1    1    2  501    0 -0.89537758600E+02  0.46077955570E+02  0.32975104967E+02  0.10596011397E+03  0.00000000000E+00 0. -1.
          1    1    1    2  502    0 -0.21369684962E+02 -0.26217740958E+01  0.46472002120E+03  0.46521848118E+03  0.00000000000E+00 0. -1.
         22    1    3    3    0    0  0.71968848288E+02 -0.87822567503E+02  0.23791620570E+03  0.26362177342E+03  0.00000000000E+00 0.  1.
         22    1    3    3    0    0  0.38938595274E+02  0.44366386029E+02  0.13347530605E+03  0.14594604392E+03  0.00000000000E+00 0.  1.
</event>
<event>
 7    1  0.6278987E-006  0.1209549E+03  0.7818608E-02  0.1304832E+00
          2   -1    0    0  502    0  0.00000000000E+00  0.00000000000E+00  0.10085229608E+04  0.10085229608E+04  0.00000000000E+00 0. -1.
          1   -1    0    0  501    0 -0.00000000000E+00 -0.00000000000E+00 -0.70284653410E+03  0.70284653410E+03  0.00000000000E+00 0. -1.
         25    2    1    2    0    0  0.31498193633E+02  0.11749110772E+03  0.24938232992E+02  0.17619051571E+03  0.12499954306E+03 0.  0.
          2    1    1    2  501    0 -0.65760542859E+02 -0.57520147776E+00 -0.62139047095E+03  0.62486070227E+03  0.00000000000E+00 0. -1.
          1    1    1    2  502    0  0.34262349225E+02 -0.11691590624E+03  0.90212866463E+03  0.91031827690E+03  0.00000000000E+00 0. -1.
         22    1    3    3    0    0 -0.45962108203E+01  0.85406989870E+02 -0.40684064110E+02  0.94713632308E+02  0.00000000000E+00 0. -1.
         22    1    3    3    0    0  0.36094404454E+02  0.32084117852E+02  0.65622297102E+02  0.81476883397E+02  0.00000000000E+00 0. -1.
</event>
<event>
 7    1  0.6278987E-006  0.1456458E+03  0.7818608E-02  0.1299780E+00
          2   -1    0    0  502    0  0.00000000000E+00  0.00000000000E+00  0.22088265530E+04  0.22088265530E+04  0.00000000000E+00 0. -1.
          1   -1    0    0  501    0 -0.00000000000E+00 -0.00000000000E+00 -0.20156403114E+03  0.20156403114E+03  0.00000000000E+00 0. -1.
         25    2    1    2    0    0  0.22445629787E+02 -0.12535161728E+03  0.86599293764E+02  0.19834627958E+03  0.12499989876E+03 0.  0.
          2    1    1    2  501    0 -0.79420945340E+02  0.13051075466E+03 -0.10512348399E+03  0.18544996771E+03  0.00000000000E+00 0. -1.
          1    1    1    2  502    0  0.56975315553E+02 -0.51591373733E+01  0.20257867121E+04  0.20265943368E+04  0.00000000000E+00 0. -1.
         22    1    3    3    0    0  0.58641149133E+02 -0.58615479885E+02  0.89973970049E+02  0.12235143702E+03  0.00000000000E+00 0.  1.
         22    1    3    3    0    0 -0.36195519346E+02 -0.66736137399E+02 -0.33746762853E+01  0.75994842560E+02  0.00000000000E+00 0.  1.
</event>
<event>
 7    1  0.6278987E-006  0.5647037E+02  0.7818608E-02  0.1459302E+00
          2   -1    0    0  502    0  0.00000000000E+00  0.00000000000E+00  0.19903316835E+03  0.19903316835E+03  0.00000000000E+00 0. -1.
          1   -1    0    0  501    0 -0.00000000000E+00 -0.00000000000E+00 -0.18455875762E+04  0.18455875762E+04  0.00000000000E+00 0. -1.
         25    2    1    2    0    0  0.43824720186E+02  0.79145862686E+02 -0.20352817922E+03  0.25540658644E+03  0.12499652387E+03 0.  0.
          2    1    1    2  501    0 -0.31434319157E+02 -0.24667459832E+02 -0.16113577896E+04  0.16118531342E+04  0.00000000000E+00 0. -1.
          1    1    1    2  502    0 -0.12390401029E+02 -0.54478402854E+02  0.16833156094E+03  0.17736102397E+03  0.00000000000E+00 0. -1.
         22    1    3    3    0    0  0.78319049530E+01 -0.10182163578E+02 -0.13874484398E+03  0.13933824645E+03  0.00000000000E+00 0.  1.
         22    1    3    3    0    0  0.35992815233E+02  0.89328026264E+02 -0.64783335233E+02  0.11606833999E+03  0.00000000000E+00 0.  1.
</event>
<event>
 7    1  0.6278987E-006  0.2078409E+03  0.7818608E-02  0.1326289E+00
          2   -1    0    0  502    0  0.00000000000E+00  0.00000000000E+00  0.10783207104E+04  0.10783207104E+04  0.00000000000E+00 0. -1.
          1   -1    0    0  501    0 -0.00000000000E+00 -0.00000000000E+00 -0.81344809632E+03  0.81344809632E+03  0.00000000000E+00 0. -1.
         25    2    1    2    0    0 -0.19065235730E+03 -0.12376996567E+03 -0.24464963217E+01  0.25942084625E+03  0.12500345748E+03 0.  0.
          2    1    1    2  501    0  0.15964357336E+03  0.12960554109E+03 -0.66675379114E+03  0.69774227677E+03  0.00000000000E+00 0. -1.
          1    1    1    2  502    0  0.31008783936E+02 -0.58355754238E+01  0.93407290151E+03  0.93460568367E+03  0.00000000000E+00 0. -1.
         22    1    3    3    0    0 -0.57818213374E+01 -0.61885410262E+02  0.14205578147E+02  0.63757602776E+02  0.00000000000E+00 0. -1.
         22    1    3    3    0    0 -0.18487053596E+03 -0.61884555406E+02 -0.16652074468E+02  0.19566324348E+03  0.00000000000E+00 0. -1.
</event>
<event>
 7    1  0.6278987E-006  0.8269542E+02  0.7818608E-02  0.1489758E+00
          2   -1    0    0  502    0  0.00000000000E+00  0.00000000000E+00  0.18887096803E+04  0.18887096803E+04  0.00000000000E+00 0. -1.
          1   -1    0    0  501    0 -0.00000000000E+00 -0.00000000000E+00 -0.68991883621E+02  0.68991883621E+02  0.00000000000E+00 0. -1.
         25    2    1    2    0    0 -0.52451415669E+02  0.37219159468E+02  0.11949100207E+03  0.18450341954E+03  0.12500798138E+03 0.  0.
          2    1    1    2  501    0 -0.21967074637E+02  0.17054050041E+00 -0.32085391438E+02  0.38885135925E+02  0.00000000000E+00 0. -1.
          1    1    1    2  502    0  0.74418490305E+02 -0.37389699969E+02  0.17323121861E+04  0.17343130085E+04  0.00000000000E+00 0. -1.
         22    1    3    3    0    0 -0.86464207272E+02  0.28517902496E+02  0.43730273345E+02  0.10100330048E+03  0.00000000000E+00 0. -1.
         22    1    3    3    0    0  0.34012791603E+02  0.87012569729E+01  0.75760728722E+02  0.83500119054E+02  0.00000000000E+00 0. -1.
</event>
<event>
 7    1  0.9957443E-006  0.5155494E+02  0.7818608E-02  0.1518337E+00
          2   -1    0    0  502    0  0.00000000000E+00  0.00000000000E+00  0.13591374868E+04  0.13591374868E+04  0.00000000000E+00 0. -1.
          1   -1    0    0  501    0 -0.00000000000E+00 -0.00000000000E+00 -0.19486664070E+04  0.19486664070E+04  0.00000000000E+00 0. -1.
         25    2    1    2    0    0  0.43706824429E+02 -0.54833661257E+02 -0.45713798976E+03  0.47907700988E+03  0.12499049084E+03 0.  0.
          2    1    1    2  501    0 -0.15398092849E+02  0.48607860618E+02 -0.14799640225E+04  0.14808421028E+04  0.00000000000E+00 0. -1.
          1    1    1    2  502    0 -0.28308731580E+02  0.62258006393E+01  0.13475730920E+04  0.13478847811E+04  0.00000000000E+00 0. -1.
         22    1    3    3    0    0  0.31095165316E+02  0.11615675296E+02 -0.35516361029E+03  0.35671140056E+03  0.00000000000E+00 0. -1.
         22    1    3    3    0    0  0.12611659113E+02 -0.66449336553E+02 -0.10197437948E+03  0.12236560932E+03  0.00000000000E+00 0. -1.
</event>
<event>
 7    1  0.6278987E-006  0.1153777E+03  0.7818608E-02  0.1387234E+00
          2   -1    0    0  502    0  0.00000000000E+00  0.00000000000E+00  0.48866327800E+03  0.48866327800E+03  0.00000000000E+00 0. -1.
          1   -1    0    0  501    0 -0.00000000000E+00 -0.00000000000E+00 -0.19197402052E+04  0.19197402052E+04  0.00000000000E+00 0. -1.
         25    2    1    2    0    0  0.45410432301E+02 -0.70905944864E+02 -0.21908562073E+03  0.26592013483E+03  0.12500099408E+03 0.  0.
          2    1    1    2  501    0 -0.64756263735E+02  0.98822395453E+02 -0.16745331982E+04  0.16786961224E+04  0.00000000000E+00 0. -1.
          1    1    1    2  502    0  0.19345831434E+02 -0.27916450589E+02  0.46254189170E+03  0.46378722598E+03  0.00000000000E+00 0. -1.
         22    1    3    3    0    0  0.50408404716E+02 -0.10027128335E+03 -0.20327068747E+03  0.23219455187E+03  0.00000000000E+00 0. -1.
         22    1    3    3    0    0 -0.49979724149E+01  0.29365338485E+02 -0.15814933256E+02  0.33725582968E+02  0.00000000000E+00 0. -1.
</event>
<event>
 7    1  0.6278987E-006  0.1705808E+03  0.7818608E-02  0.1329727E+00
          2   -1    0    0  502    0  0.00000000000E+00  0.00000000000E+00  0.56013684192E+03  0.56013684192E+03  0.00000000000E+00 0. -1.
          1   -1    0    0  501    0 -0.00000000000E+00 -0.00000000000E+00 -0.21395692546E+03  0.21395692546E+03  0.00000000000E+00 0. -1.
         25    2    1    2    0    0 -0.97560868743E+01 -0.17096554759E+03  0.22707499827E+02  0.21322086330E+03  0.12499242499E+03 0.  0.
          2    1    1    2  501    0 -0.27508171320E+02  0.16941928935E+03 -0.55255516646E+02  0.18031297018E+03  0.00000000000E+00 0. -1.
          1    1    1    2  502    0  0.37264258194E+02  0.15462582333E+01  0.37872793327E+03  0.38055993390E+03  0.00000000000E+00 0. -1.
         22    1    3    3    0    0  0.15140636037E+02 -0.12006525223E+03  0.69659557679E+02  0.13963293891E+03  0.00000000000E+00 0.  1.
         22    1    3    3    0    0 -0.24896722911E+02 -0.50900295361E+02 -0.46952057851E+02  0.73587924390E+02  0.00000000000E+00 0.  1.
</event>
<event>
 7    1  0.6278987E-006  0.5560931E+02  0.7818608E-02  0.1500294E+00
          2   -1    0    0  502    0  0.00000000000E+00  0.00000000000E+00  0.62252380024E+03  0.62252380024E+03  0.00000000000E+00 0. -1.
          1   -1    0    0  501    0 -0.00000000000E+00 -0.00000000000E+00 -0.90092841857E+03  0.90092841857E+03  0.00000000000E+00 0. -1.
         25    2    1    2    0    0  0.20718550953E+02 -0.14663272119E+02  0.25868701519E+03  0.28842496772E+03  0.12500288107E+03 0.  0.
          2    1    1    2  501    0 -0.43970543969E+02  0.34201953179E+02 -0.88452074989E+03  0.88627317421E+03  0.00000000000E+00 0. -1.
          1    1    1    2  502    0  0.23251993016E+02 -0.19538681060E+02  0.34742911638E+03  0.34875407689E+03  0.00000000000E+00 0. -1.
         22    1    3    3    0    0 -0.26253024661E+02  0.42553770580E+02  0.13872140584E+03  0.14745736039E+03  0.00000000000E+00 0. -1.
         22    1    3    3    0    0  0.46971575614E+02 -0.57217042699E+02  0.11996560935E+03  0.14096760733E+03  0.00000000000E+00 0. -1.
</event>
<event>
 7    1  0.6278987E-006  0.1027166E+03  0.7818608E-02  0.1283138E+00
          2   -1    0    0  502    0  0.00000000000E+00  0.00000000000E+00  0.66763172481E+03  0.66763172481E+03  0.00000000000E+00 0. -1.
          1   -1    0    0  501    0 -0.00000000000E+00 -0.00000000000E+00 -0.10719924185E+04  0.10719924185E+04  0.00000000000E+00 0. -1.
         25    2    1    2    0    0 -0.12902236058E+03 -0.72659969720E+02 -0.34229243477E+02  0.19679827532E+03  0.12502671446E+03 0.  0.
          2    1    1    2  501    0  0.37012281520E+02  0.95341522547E+02 -0.94988672417E+03  0.95537673389E+03  0.00000000000E+00 0. -1.
          1    1    1    2  502    0  0.92010079062E+02 -0.22681552827E+02  0.57975527396E+03  0.58744913411E+03  0.00000000000E+00 0. -1.
         22    1    3    3    0    0 -0.10207597150E+03  0.12091300637E+02 -0.32656519627E+02  0.10785245376E+03  0.00000000000E+00 0. -1.
         22    1    3    3    0    0 -0.26946389084E+02 -0.84751270356E+02 -0.15727238505E+01  0.88945821554E+02  0.00000000000E+00 0. -1.
</event>
<event>
 7    1  0.6278987E-006  0.9279793E+02  0.7818608E-02  0.1392083E+00
          2   -1    0    0  502    0  0.00000000000E+00  0.00000000000E+00  0.14947349513E+03  0.14947349513E+03  0.00000000000E+00 0. -1.
          1   -1    0    0  501    0 -0.00000000000E+00 -0.00000000000E+00 -0.83904127152E+03  0.83904127152E+03  0.00000000000E+00 0. -1.
         25    2    1    2    0    0 -0.53713057511E+02  0.28997195877E+02 -0.59218289114E+02  0.15118824851E+03  0.12500060322E+03 0.  0.
          2    1    1    2  501    0 -0.27388064995E+02  0.29990481464E+02 -0.70882463912E+03  0.70998725630E+03  0.00000000000E+00 0. -1.
          1    1    1    2  502    0  0.81101122506E+02 -0.58987677341E+02  0.78475151852E+02  0.12733926185E+03  0.00000000000E+00 0. -1.
         22    1    3    3    0    0 -0.77398793637E+02 -0.23436609908E+02 -0.42035849617E+02  0.91141980412E+02  0.00000000000E+00 0.  1.
         22    1    3    3    0    0  0.23685736125E+02  0.52433805785E+02 -0.17182439498E+02  0.60046268094E+02  0.00000000000E+00 0.  1.
</event>
<event>
 7    1  0.6278987E-006  0.4989143E+02  0.7818608E-02  0.1465541E+00
          2   -1    0    0  502    0  0.00000000000E+00  0.00000000000E+00  0.50934458498E+03  0.50934458498E+03  0.00000000000E+00 0. -1.
          1   -1    0    0  501    0 -0.00000000000E+00 -0.00000000000E+00 -0.30136058522E+02  0.30136058522E+02  0.00000000000E+00 0. -1.
         25    2    1    2    0    0 -0.29264599030E+02 -0.14232990356E+02  0.23262517405E+03  0.26607765477E+03  0.12499540789E+03 0.  0.
          2    1    1    2  501    0  0.51140856296E+02 -0.30606552128E+02  0.18373139620E+03  0.19315634643E+03  0.00000000000E+00 0. -1.
          1    1    1    2  502    0 -0.21876257266E+02  0.44839542484E+02  0.62851956212E+02  0.80246642308E+02  0.00000000000E+00 0. -1.
         22    1    3    3    0    0 -0.13801095490E+01 -0.45337978623E+02  0.20321406246E+02  0.49703084007E+02  0.00000000000E+00 0.  1.
         22    1    3    3    0    0 -0.27884489482E+02  0.31104988267E+02  0.21230376780E+03  0.21637457076E+03  0.00000000000E+00 0.  1.
</event>
<event>
 7    1  0.6278987E-006  0.4792691E+02  0.7818608E-02  0.1480170E+00
          2   -1    0    0  502    0  0.00000000000E+00  0.00000000000E+00  0.15979628974E+04  0.15979628974E+04  0.00000000000E+00 0. -1.
          1   -1    0    0  501    0 -0.00000000000E+00 -0.00000000000E+00 -0.53622731755E+02  0.53622731755E+02  0.00000000000E+00 0. -1.
         25    2    1    2    0    0  0.10292418768E+02 -0.79019749499E+01  0.36240413111E+03  0.38357549498E+03  0.12500012406E+03 0.  0.
          2    1    1    2  501    0 -0.96361838334E+01  0.48438045771E+02 -0.28416425669E+02  0.56978887009E+02  0.00000000000E+00 0. -1.
          1    1    1    2  502    0 -0.65623493453E+00 -0.40536070821E+02  0.12103524602E+04  0.12110312471E+04  0.00000000000E+00 0. -1.
         22    1    3    3    0    0  0.59594011794E+02 -0.35300599278E+02  0.19822942245E+03  0.20998210037E+03  0.00000000000E+00 0. -1.
         22    1    3    3    0    0 -0.49301593026E+02  0.27398624328E+02  0.16417470866E+03  0.17359339461E+03  0.00000000000E+00 0. -1.
</event>
<event>
 7    1  0.6278987E-006  0.1460076E+03  0.7818608E-02  0.1209540E+00
          2   -1    0    0  502    0  0.00000000000E+00  0.00000000000E+00  0.45046816862E+03  0.45046816862E+03  0.00000000000E+00 0. -1.
          1   -1    0    0  501    0 -0.00000000000E+00 -0.00000000000E+00 -0.63311274835E+03  0.63311274835E+03  0.00000000000E+00 0. -1.
         25    2    1    2    0    0  0.54645541820E+02  0.71929576008E+02 -0.52388217749E+02  0.16287978576E+03  0.12500120041E+03 0.  0.
          2    1    1    2  501    0  0.71754663911E+02 -0.14501307348E+03 -0.49874926742E+03  0.52433610883E+03  0.00000000000E+00 0. -1.
          1    1    1    2  502    0 -0.12640020573E+03  0.73083497476E+02  0.36849290544E+03  0.39636502239E+03  0.00000000000E+00 0. -1.
         22    1    3    3    0    0  0.29946048070E+02  0.99659293720E+02 -0.66116169672E+02  0.12328863902E+03  0.00000000000E+00 0. -1.
         22    1    3    3    0    0  0.24699493750E+02 -0.27729717713E+02  0.13727951923E+02  0.39591146737E+02  0.00000000000E+00 0. -1.
</event>
<event>
 7    1  0.6278987E-006  0.1527504E+03  0.7818608E-02  0.1285833E+00
          2   -1    0    0  502    0  0.00000000000E+00  0.00000000000E+00  0.40510526857E+03  0.40510526857E+03  0.00000000000E+00 0. -1.
          1   -1    0    0  501    0 -0.00000000000E+00 -0.00000000000E+00 -0.14808923428E+04  0.14808923428E+04  0.00000000000E+00 0. -1.
         25    2    1    2    0    0  0.11434868690E+02  0.15462640069E+03 -0.41687855989E+03  0.46200932624E+03  0.12499921527E+03 0.  0.
          2    1    1    2  501    0 -0.71120979433E+02 -0.13739982541E+03 -0.10331275366E+04  0.10446479850E+04  0.00000000000E+00 0. -1.
          1    1    1    2  502    0  0.59686110744E+02 -0.17226575287E+02  0.37421902223E+03  0.37934030014E+03  0.00000000000E+00 0. -1.
         22    1    3    3    0    0 -0.13252828661E+01 -0.15947739764E+02 -0.62519349544E+01  0.17180613171E+02  0.00000000000E+00 0.  1.
         22    1    3    3    0    0  0.12760151556E+02  0.17057414046E+03 -0.41062662494E+03  0.44482871306E+03  0.00000000000E+00 0.  1.
</event>
<event>
 7    1  0.6278987E-006  0.1240067E+03  0.7818608E-02  0.1342203E+00
          2   -1    0    0  502    0  0.00000000000E+00  0.00000000000E+00  0.22599414465E+03  0.22599414465E+03  0.00000000000E+00 0. -1.
          1   -1    0    0  501    0 -0.00000000000E+00 -0.00000000000E+00 -0.46666746316E+03  0.46666746316E+03  0.00000000000E+00 0. -1.
         25    2    1    2    0    0  0.99052492252E+02 -0.11696585651E+03  0.74735821965E+02  0.21143191982E+03  0.12500242326E+03 0.  0.
          2    1    1    2  501    0 -0.99667234033E+02  0.70952277735E+02 -0.38153341872E+03  0.40066885686E+03  0.00000000000E+00 0. -1.
          1    1    1    2  502    0  0.61474178144E+00  0.46013578779E+02  0.66124278247E+02  0.80560831135E+02  0.00000000000E+00 0. -1.
         22    1    3    3    0    0  0.72177460726E+02 -0.18496760209E+02  0.79874292546E+02  0.10923194855E+03  0.00000000000E+00 0. -1.
         22    1    3    3    0    0  0.26875031526E+02 -0.98469096304E+02 -0.51384705809E+01  0.10219997126E+03  0.00000000000E+00 0. -1.
</event>
<event>
 7    1  0.6278987E-006  0.8564250E+02  0.7818608E-02  0.1489154E+00
          2   -1    0    0  502    0  0.00000000000E+00  0.00000000000E+00  0.11166865746E+04  0.11166865746E+04  0.00000000000E+00 0. -1.
          1   -1    0    0  501    0 -0.00000000000E+00 -0.00000000000E+00 -0.10172548815E+03  0.10172548815E+03  0.00000000000E+00 0. -1.
         25    2    1    2    0    0  0.46261516337E+02 -0.94580077676E+02  0.54036209060E+03  0.56453587525E+03  0.12499618593E+03 0.  0.
          2    1    1    2  501    0 -0.32171422989E+02  0.78604707982E+02 -0.69264350900E+02  0.10959585248E+03  0.00000000000E+00 0. -1.
          1    1    1    2  502    0 -0.14090093348E+02  0.15975369694E+02  0.54386334672E+03  0.54428033500E+03  0.00000000000E+00 0. -1.
         22    1    3    3    0    0 -0.18728677483E+02 -0.43757808994E+02  0.39113911687E+03  0.39402451441E+03  0.00000000000E+00 0. -1.
         22    1    3    3    0    0  0.64990193820E+02 -0.50822268682E+02  0.14922297374E+03  0.17051136085E+03  0.00000000000E+00 0. -1.
</event>
<event>
 7    1  0.6278987E-006  0.2028121E+03  0.7818608E-02  0.1273243E+00
          2   -1    0    0  502    0  0.00000000000E+00  0.00000000000E+00  0.47281178884E+03  0.47281178884E+03  0.00000000000E+00 0. -1.
          1   -1    0    0  501    0 -0.00000000000E+00 -0.00000000000E+00 -0.91761447576E+03  0.91761447576E+03  0.00000000000E+00 0. -1.
         25    2    1    2    0    0 -0.15820258668E+02 -0.20174179463E+03  0.60383976484E+02  0.24540105578E+03  0.12500168510E+03 0.  0.
          2    1    1    2  501    0 -0.52049136003E+02  0.85564856880E+01 -0.79137420085E+03  0.79313016068E+03  0.00000000000E+00 0. -1.
          1    1    1    2  502    0  0.67869394671E+02  0.19318530894E+03  0.28618753744E+03  0.35189504815E+03  0.00000000000E+00 0. -1.
         22    1    3    3    0    0 -0.38019735414E+02 -0.15635683659E+03 -0.71359402068E+01  0.16107104728E+03  0.00000000000E+00 0. -1.
         22    1    3    3    0    0  0.22199476746E+02 -0.45384958037E+02  0.67519916691E+02  0.84330008501E+02  0.00000000000E+00 0. -1.
</event>
<event>
 7    1  0.6278987E-006  0.7825205E+02  0.7818608E-02  0.1380713E+00
          2   -1    0    0  502    0  0.00000000000E+00  0.00000000000E+00  0.13127611501E+04  0.13127611501E+04  0.00000000000E+00 0. -1.
          1   -1    0    0  501    0 -0.00000000000E+00 -0.00000000000E+00 -0.24230867718E+03  0.24230867718E+03  0.00000000000E+00 0. -1.
         25    2    1    2    0    0  0.19127610044E+02  0.11511667243E+03  0.64331523983E+03  0.66565545200E+03  0.12499987698E+03 0.  0.
          2    1    1    2  501    0  0.13905469765E+02 -0.50933296276E+02 -0.22610927768E+03  0.23219166267E+03  0.00000000000E+00 0. -1.
          1    1    1    2  502    0 -0.33033079809E+02 -0.64183376149E+02  0.65324651077E+03  0.65722271261E+03  0.00000000000E+00 0. -1.
         22    1    3    3    0    0  0.46408109369E+02  0.35512716363E+02  0.99682232625E+02  0.11554831517E+03  0.00000000000E+00 0. -1.
         22    1    3    3    0    0 -0.27280499325E+02  0.79603956063E+02  0.54363300721E+03  0.55010713683E+03  0.00000000000E+00 0. -1.
</event>
<event>
 7    1  0.6278987E-006  0.5901595E+02  0.7818608E-02  0.1530205E+00
          2   -1    0    0  502    0  0.00000000000E+00  0.00000000000E+00  0.14064616269E+04  0.14064616269E+04  0.00000000000E+00 0. -1.
          1   -1    0    0  501    0 -0.00000000000E+00 -0.00000000000E+00 -0.37193326766E+03  0.37193326766E+03  0.00000000000E+00 0. -1.
         25    2    1    2    0    0 -0.62190201506E+02  0.14109398343E+02  0.68974783492E+02  0.15635598429E+03  0.12499190686E+03 0.  0.
          2    1    1    2  501    0  0.13446300842E+02  0.19150608001E+02 -0.32715169843E+03  0.32798747321E+03  0.00000000000E+00 0. -1.
          1    1    1    2  502    0  0.48743900664E+02 -0.33260006343E+02  0.12927052742E+04  0.12940514371E+04  0.00000000000E+00 0. -1.
         22    1    3    3    0    0 -0.32143811062E+02 -0.24086772332E+02 -0.27261884832E+02  0.48544902467E+02  0.00000000000E+00 0.  1.
         22    1    3    3    0    0 -0.30046390444E+02  0.38196170675E+02  0.96236668324E+02  0.10781108182E+03  0.00000000000E+00 0.  1.
</event>
<event>
 7    1  0.6278987E-006  0.1440026E+03  0.7818608E-02  0.1336994E+00
          2   -1    0    0  502    0  0.00000000000E+00  0.00000000000E+00  0.91386673368E+03  0.91386673368E+03  0.00000000000E+00 0. -1.
          1   -1    0    0  501    0 -0.00000000000E+00 -0.00000000000E+00 -0.85609687363E+03  0.85609687363E+03  0.00000000000E+00 0. -1.
         25    2    1    2    0    0 -0.10455625853E+03 -0.10758418214E+03 -0.43103425969E+03  0.47320307341E+03  0.12499699280E+03 0.  0.
          2    1    1    2  501    0  0.12372077490E+03  0.70821866506E+02 -0.39089829218E+03  0.41608177291E+03  0.00000000000E+00 0. -1.
          1    1    1    2  502    0 -0.19164516369E+02  0.36762315629E+02  0.87970241192E+03  0.88067876100E+03  0.00000000000E+00 0. -1.
         22    1    3    3    0    0 -0.57226687334E+02 -0.92917261381E+02 -0.13762484388E+03  0.17563914387E+03  0.00000000000E+00 0.  1.
         22    1    3    3    0    0 -0.47329571195E+02 -0.14666920754E+02 -0.29340941581E+03  0.29756392954E+03  0.00000000000E+00 0.  1.
</event>
<event>
 7    1  0.6278987E-006  0.1076166E+03  0.7818608E-02  0.1276048E+00
          2   -1    0    0  502    0  0.00000000000E+00  0.00000000000E+00  0.81585427861E+03  0.81585427861E+03  0.00000000000E+00 0. -1.
          1   -1    0    0  501    0 -0.00000000000E+00 -0.00000000000E+00 -0.32834330303E+03  0.32834330303E+03  0.00000000000E+00 0. -1.
         25    2    1    2    0    0 -0.45343762979E+00 -0.70891161251E+02  0.41217727782E+03  0.43650988384E+03  0.12500003197E+03 0.  0.
          2    1    1    2  501    0  0.47691555906E+02 -0.84197804030E+02 -0.29122296160E+03  0.30687875142E+03  0.00000000000E+00 0. -1.
          1    1    1    2  502    0 -0.47238118276E+02  0.15508896528E+03  0.36655665937E+03  0.40080894638E+03  0.00000000000E+00 0. -1.
         22    1    3    3    0    0 -0.45967597477E+01  0.28499307674E+02  0.20115700978E+03  0.20321782235E+03  0.00000000000E+00 0. -1.
         22    1    3    3    0    0  0.41433221179E+01 -0.99390468924E+02  0.21102026804E+03  0.23329206149E+03  0.00000000000E+00 0. -1.
</event>
<event>
 7    1  0.6278987E-006  0.4867774E+02  0.7818608E-02  0.1523464E+00
          2   -1    0    0  502    0  0.00000000000E+00  0.00000000000E+00  0.76140857527E+03  0.76140857527E+03  0.00000000000E+00 0. -1.
          1   -1    0    0  501    0 -0.00000000000E+00 -0.00000000000E+00 -0.45905629205E+02  0.45905629205E+02  0.00000000000E+00 0. -1.
         25    2    1    2    0    0 -0.10547366238E+02 -0.65148214362E+02  0.20283708668E+03  0.24723066900E+03  0.12499833276E+03 0.  0.
          2    1    1    2  501    0 -0.15947841912E+02  0.25013802948E+02 -0.12880899419E+02  0.32341019919E+02  0.00000000000E+00 0. -1.
          1    1    1    2  502    0  0.26495208150E+02  0.40134411414E+02  0.52554675880E+03  0.52774251555E+03  0.00000000000E+00 0. -1.
         22    1    3    3    0    0  0.36506402024E+02 -0.41481297051E+02  0.18264740984E+03  0.19082319491E+03  0.00000000000E+00 0. -1.
         22    1    3    3    0    0 -0.47053768263E+02 -0.23666917310E+02  0.20189676842E+02  0.56407474094E+02  0.00000000000E+00 0. -1.
</event>
<event>
 7    1  0.6278987E-006  0.3011875E+02  0.7818608E-02  0.1601253E+00
          2   -1    0    0  502    0  0.00000000000E+00  0.00000000000E+00  0.17958913772E+04  0.17958913772E+04  0.00000000000E+00 0. -1.
          1   -1    0    0  501    0 -0.00000000000E+00 -0.00000000000E+00 -0.11057250703E+04  0.11057250703E+04  0.00000000000E+00 0. -1.
         25    2    1    2    0    0  0.46082954975E+02  0.30278731420E+02  0.29770576455E+03  0.32755777621E+03  0.12499973677E+03 0.  0.
          2    1    1    2  501    0 -0.29476626417E+02 -0.61172408042E+01 -0.10904464289E+04  0.10908619099E+04  0.00000000000E+00 0. -1.
          1    1    1    2  502    0 -0.16606328558E+02 -0.24161490616E+02  0.14829069713E+04  0.14831967614E+04  0.00000000000E+00 0. -1.
         22    1    3    3    0    0  0.34193479107E+02  0.83499922130E+01  0.71298014023E+01  0.35913095821E+02  0.00000000000E+00 0. -1.
         22    1    3    3    0    0  0.11889475868E+02  0.21928739207E+02  0.29057596315E+03  0.29164468039E+03  0.00000000000E+00 0. -1.
</event>
<event>
 7    1  0.6278987E-006  0.3526301E+03  0.7818608E-02  0.1129131E+00
          2   -1    0    0  502    0  0.00000000000E+00  0.00000000000E+00  0.55066513653E+03  0.55066513653E+03  0.00000000000E+00 0. -1.
          1   -1    0    0  501    0 -0.00000000000E+00 -0.00000000000E+00 -0.12983136289E+04  0.12983136289E+04  0.00000000000E+00 0. -1.
         25    2    1    2    0    0 -0.64649768307E+02  0.46100510164E+03 -0.93600111018E+02  0.49100944400E+03  0.12499598807E+03 0.  0.
          2    1    1    2  501    0  0.46687704453E+02 -0.13778419165E+03 -0.92466295536E+03  0.93603728891E+03  0.00000000000E+00 0. -1.
          1    1    1    2  502    0  0.17962063853E+02 -0.32322091000E+03  0.27061457401E+03  0.42193203252E+03  0.00000000000E+00 0. -1.
         22    1    3    3    0    0 -0.94143958716E+02  0.22171288127E+03 -0.44052611294E+02  0.24486796288E+03  0.00000000000E+00 0. -1.
         22    1    3    3    0    0  0.29494190410E+02  0.23929222037E+03 -0.49547499724E+02  0.24614148112E+03  0.00000000000E+00 0. -1.
</event>
<event>
 7    1  0.6278987E-006  0.1611742E+03  0.7818608E-02  0.1405220E+00
          2   -1    0    0  502    0  0.00000000000E+00  0.00000000000E+00  0.56857742280E+03  0.56857742280E+03  0.00000000000E+00 0. -1.
          1   -1    0    0  501    0 -0.00000000000E+00 -0.00000000000E+00 -0.92430356045E+02  0.92430356045E+02  0.00000000000E+00 0. -1.
         25    2    1    2    0    0  0.65343421080E+02  0.14422750858E+03  0.15744533753E+03  0.25589960338E+03  0.12499694312E+03 0.  0.
          2    1    1    2  501    0 -0.85893029792E+02 -0.13957530324E+03  0.11473830677E+03  0.20005938339E+03  0.00000000000E+00 0. -1.
          1    1    1    2  502    0  0.20549608712E+02 -0.46522053397E+01  0.20396342245E+03  0.20504879207E+03  0.00000000000E+00 0. -1.
         22    1    3    3    0    0  0.62352839592E+02  0.25256150339E+02  0.10754383593E+03  0.12685198611E+03  0.00000000000E+00 0.  1.
         22    1    3    3    0    0  0.29905814878E+01  0.11897135824E+03  0.49901501606E+02  0.12904761727E+03  0.00000000000E+00 0.  1.
</event>
<event>
 7    1  0.6278987E-006  0.1141609E+03  0.7818608E-02  0.1423126E+00
          2   -1    0    0  502    0  0.00000000000E+00  0.00000000000E+00  0.21818146073E+04  0.21818146073E+04  0.00000000000E+00 0. -1.
          1   -1    0    0  501    0 -0.00000000000E+00 -0.00000000000E+00 -0.79934103972E+02  0.79934103972E+02  0.00000000000E+00 0. -1.
         25    2    1    2    0    0  0.92704403036E+02 -0.10290684816E+03  0.12702999252E+04  0.12839281014E+04  0.12500217474E+03 0.  0.
          2    1    1    2  501    0 -0.79810114365E+02  0.80457066945E+02 -0.28897433231E+02  0.11695321981E+03  0.00000000000E+00 0. -1.
          1    1    1    2  502    0 -0.12894288671E+02  0.22449781212E+02  0.86047801134E+03  0.86086739011E+03  0.00000000000E+00 0. -1.
         22    1    3    3    0    0 -0.56057040977E+01 -0.77806029741E+02  0.73237335545E+03  0.73651607855E+03  0.00000000000E+00 0.  1.
         22    1    3    3    0    0  0.98310107134E+02 -0.25100818416E+02  0.53792656978E+03  0.54741202282E+03  0.00000000000E+00 0.  1.
</event>
<event>
 7    1  0.6278987E-006  0.9778694E+02  0.7818608E-02  0.1475792E+00
          2   -1    0    0  502    0  0.00000000000E+00  0.00000000000E+00  0.46590232900E+03  0.46590232900E+03  0.00000000000E+00 0. -1.
          1   -1    0    0  501    0 -0.00000000000E+00 -0.00000000000E+00 -0.82079735651E+03  0.82079735651E+03  0.00000000000E+00 0. -1.
         25    2    1    2    0    0 -0.46127042675E+02 -0.81455443156E+02  0.69539905662E+02  0.17094962977E+03  0.12500113661E+03 0.  0.
          2    1    1    2  501    0  0.64940539183E+02  0.73323533667E+02 -0.76667023132E+03  0.77290158353E+03  0.00000000000E+00 0. -1.
          1    1    1    2  502    0 -0.18813496508E+02  0.81319094893E+01  0.34223529815E+03  0.34284847222E+03  0.00000000000E+00 0. -1.
         22    1    3    3    0    0 -0.14689105530E+02  0.28969035333E+02  0.41614929084E+02  0.52789934193E+02  0.00000000000E+00 0. -1.
         22    1    3    3    0    0 -0.31437937144E+02 -0.11042447849E+03  0.27924976578E+02  0.11815969558E+03  0.00000000000E+00 0. -1.
</event>
<event>
 7    1  0.6278987E-006  0.1072855E+03  0.7818608E-02  0.1413091E+00
          2   -1    0    0  502    0  0.00000000000E+00  0.00000000000E+00  0.13690564101E+03  0.13690564101E+03  0.00000000000E+00 0. -1.
          1   -1    0    0  501    0 -0.00000000000E+00 -0.00000000000E+00 -0.32185390576E+03  0.32185390576E+03  0.00000000000E+00 0. -1.
         25    2    1    2    0    0 -0.80346132691E+02  0.96524816062E+02 -0.14641563669E+03  0.22985352220E+03  0.12499024700E+03 0.  0.
          2    1    1    2  501    0  0.53509971804E+02 -0.83649620884E+02 -0.11197403655E+03  0.14966215627E+03  0.00000000000E+00 0. -1.
          1    1    1    2  502    0  0.26836160887E+02 -0.12875195177E+02  0.73441408496E+02  0.79243868304E+02  0.00000000000E+00 0. -1.
         22    1    3    3    0    0 -0.10764277013E+03  0.40793706844E+02 -0.96614822548E+02  0.15028478437E+03  0.00000000000E+00 0.  1.
         22    1    3    3    0    0  0.27296637435E+02  0.55731109218E+02 -0.49800814145E+02  0.79568737827E+02  0.00000000000E+00 0.  1.
</event>
<event>
 7    1  0.6278987E-006  0.9970716E+02  0.7818608E-02  0.1317728E+00
          2   -1    0    0  502    0  0.00000000000E+00  0.00000000000E+00  0.42743001775E+02  0.42743001775E+02  0.00000000000E+00 0. -1.
          1   -1    0    0  501    0 -0.00000000000E+00 -0.00000000000E+00 -0.86962787121E+03  0.86962787121E+03  0.00000000000E+00 0. -1.
         25    2    1    2    0    0 -0.21746531229E+02 -0.63139190327E+02 -0.20182072225E+03  0.24660668138E+03  0.12499512949E+03 0.  0.
          2    1    1    2  501    0 -0.35676730194E+02  0.10486688779E+03 -0.55528838980E+03  0.56622883102E+03  0.00000000000E+00 0. -1.
          1    1    1    2  502    0  0.57423261423E+02 -0.41727697459E+02 -0.69775757379E+02  0.99535360579E+02  0.00000000000E+00 0. -1.
         22    1    3    3    0    0 -0.38930474772E+02  0.26342636042E+02 -0.96515352364E+02  0.10735329330E+03  0.00000000000E+00 0.  1.
         22    1    3    3    0    0  0.17183943543E+02 -0.89481826369E+02 -0.10530536989E+03  0.13925338808E+03  0.00000000000E+00 0.  1.
</event>
<event>
 7    1  0.6278987E-006  0.7025694E+02  0.7818608E-02  0.1363037E+00
          2   -1    0    0  502    0  0.00000000000E+00  0.00000000000E+00  0.15808733821E+04  0.15808733821E+04  0.00000000000E+00 0. -1.
          1   -1    0    0  501    0 -0.00000000000E+00 -0.00000000000E+00 -0.33360870732E+03  0.33360870732E+03  0.00000000000E+00 0. -1.
         25    2    1    2    0    0  0.11142198730E+03 -0.13186740891E+02  0.21704378830E+02  0.16936794936E+03  0.12500269125E+03 0.  0.
          2    1    1    2  501    0 -0.59235258046E+02 -0.33483691962E+02 -0.25447947771E+03  0.26341939564E+03  0.00000000000E+00 0. -1.
          1    1    1    2  502    0 -0.52186729255E+02  0.46670432853E+02  0.14800397736E+04  0.14816947444E+04  0.00000000000E+00 0. -1.
         22    1    3    3    0    0 -0.15272466384E+02 -0.24989144990E+02  0.29909994023E+02  0.41860641888E+02  0.00000000000E+00 0.  1.
         22    1    3    3    0    0  0.12669445369E+03  0.11802404099E+02 -0.82056151934E+01  0.12750730747E+03  0.00000000000E+00 0.  1.
</event>
<event>
 7    1  0.6278987E-006  0.1735267E+03  0.7818608E-02  0.1241459E+00
          2   -1    0    0  502    0  0.00000000000E+00  0.00000000000E+00  0.14559098805E+04  0.14559098805E+04  0.00000000000E+00 0. -1.
          1   -1    0    0  501    0 -0.00000000000E+00 -0.00000000000E+00 -0.62915906739E+03  0.62915906739E+03  0.00000000000E+00 0. -1.
         25    2    1    2    0    0 -0.10265711461E+03 -0.13989154440E+03  0.32827058727E+03  0.39178440881E+03  0.12500126856E+03 0.  0.
          2    1    1    2  501    0  0.24821251748E+02  0.17244936095E+03 -0.58302125724E+03  0.60849705260E+03  0.00000000000E+00 0. -1.
          1    1    1    2  502    0  0.77835862866E+02 -0.32557816554E+02  0.10815014831E+04  0.10847874865E+04  0.00000000000E+00 0. -1.
         22    1    3    3    0    0  0.91661582107E+01 -0.74737457509E+02  0.69567870358E+02  0.10251533835E+03  0.00000000000E+00 0.  1.
         22    1    3    3    0    0 -0.11182327282E+03 -0.65154086890E+02  0.25870271691E+03  0.28926907045E+03  0.00000000000E+00 0.  1.
</event>
<event>
 7    1  0.6278987E-006  0.5261833E+02  0.7818608E-02  0.1491616E+00
          2   -1    0    0  502    0  0.00000000000E+00  0.00000000000E+00  0.50306635623E+02  0.50306635623E+02  0.00000000000E+00 0. -1.
          1   -1    0    0  501    0 -0.00000000000E+00 -0.00000000000E+00 -0.97632541594E+03  0.97632541594E+03  0.00000000000E+00 0. -1.
         25    2    1    2    0    0  0.60287307164E+02  0.43576094864E+02 -0.28725752633E+03  0.32198833142E+03  0.12500465466E+03 0.  0.
          2    1    1    2  501    0 -0.50523185654E+02 -0.10923616300E+02 -0.66160098544E+03  0.66361719509E+03  0.00000000000E+00 0. -1.
          1    1    1    2  502    0 -0.97641215107E+01 -0.32652478563E+02  0.22839731455E+02  0.41026525056E+02  0.00000000000E+00 0. -1.
         22    1    3    3    0    0  0.17113682867E+02  0.60411918824E+02 -0.26157851295E+03  0.26900891531E+03  0.00000000000E+00 0.  1.
         22    1    3    3    0    0  0.43173624297E+02 -0.16835823960E+02 -0.25679013382E+02  0.52979416113E+02  0.00000000000E+00 0.  1.
</event>
<event>
 7    1  0.6278987E-006  0.1248694E+03  0.7818608E-02  0.1370641E+00
          2   -1    0    0  502    0  0.00000000000E+00  0.00000000000E+00  0.37324216710E+03  0.37324216710E+03  0.00000000000E+00 0. -1.
          1   -1    0    0  501    0 -0.00000000000E+00 -0.00000000000E+00 -0.17036305077E+04  0.17036305077E+04  0.00000000000E+00 0. -1.
         25    2    1    2    0    0 -0.90596457003E+02 -0.79877384946E+01  0.25685107792E+02  0.15670346379E+03  0.12499891525E+03 0.  0.
          2    1    1    2  501    0  0.12394554875E+03  0.21381296545E+02 -0.16345506405E+04  0.16393826446E+04  0.00000000000E+00 0. -1.
          1    1    1    2  502    0 -0.33349091750E+02 -0.13393558051E+02  0.27847719217E+03  0.28078656641E+03  0.00000000000E+00 0. -1.
         22    1    3    3    0    0 -0.93776330200E+02 -0.51390466343E+02  0.15623199980E+01  0.10694587874E+03  0.00000000000E+00 0.  1.
         22    1    3    3    0    0  0.31798731966E+01  0.43402727848E+02  0.24122787794E+02  0.49757585041E+02  0.00000000000E+00 0.  1.
</event>
<event>
 7    1  0.6278987E-006  0.2270858E+03  0.7818608E-02  0.1341160E+00
          2   -1    0    0  502    0  0.00000000000E+00  0.00000000000E+00  0.69042217596E+03  0.69042217596E+03  0.00000000000E+00 0. -1.
          1   -1    0    0  501    0 -0.00000000000E+00 -0.00000000000E+00 -0.85971789368E+03  0.85971789368E+03  0.00000000000E+00 0. -1.
         25    2    1    2    0    0 -0.20368752554E+03  0.11943264658E+03  0.13573263575E+02  0.26751217736E+03  0.12500306565E+03 0.  0.
          2    1    1    2  501    0  0.18253576866E+03 -0.13341711348E+03 -0.71499835873E+03  0.74989471661E+03  0.00000000000E+00 0. -1.
          1    1    1    2  502    0  0.21151756881E+02  0.13984466903E+02  0.53212937744E+03  0.53273317568E+03  0.00000000000E+00 0. -1.
         22    1    3    3    0    0 -0.16547068047E+03  0.59481461098E+02  0.56220453483E+02  0.18460587667E+03  0.00000000000E+00 0.  1.
         22    1    3    3    0    0 -0.38216845068E+02  0.59951185478E+02 -0.42647189908E+02  0.82906300691E+02  0.00000000000E+00 0.  1.
</event>
<event>
 7    1  0.6278987E-006  0.1195632E+03  0.7818608E-02  0.1274601E+00
          2   -1    0    0  502    0  0.00000000000E+00  0.00000000000E+00  0.18447339424E+03  0.18447339424E+03  0.00000000000E+00 0. -1.
          1   -1    0    0  501    0 -0.00000000000E+00 -0.00000000000E+00 -0.30759806727E+04  0.30759806727E+04  0.00000000000E+00 0. -1.
         25    2    1    2    0    0 -0.93299332954E+02 -0.84736676822E+02 -0.11359601870E+04  0.11497453752E+04  0.12499524621E+03 0.  0.
          2    1    1    2  501    0  0.81224770560E+02 -0.34669899797E+02 -0.19117136936E+04  0.19137525210E+04  0.00000000000E+00 0. -1.
          1    1    1    2  502    0  0.12074562394E+02  0.11940657662E+03  0.15616660207E+03  0.19695617076E+03  0.00000000000E+00 0. -1.
         22    1    3    3    0    0 -0.10847426989E+03 -0.22401815625E+02 -0.62055020937E+03  0.63035789114E+03  0.00000000000E+00 0.  1.
         22    1    3    3    0    0  0.15174936936E+02 -0.62334861197E+02 -0.51540997760E+03  0.51938748410E+03  0.00000000000E+00 0.  1.
</event>
<event>
 7    1  0.1432554E-005  0.6149175E+02  0.7818608E-02  0.1449208E+00
          2   -1    0    0  502    0  0.00000000000E+00  0.00000000000E+00  0.16037469631E+04  0.16037469631E+04  0.00000000000E+00 0. -1.
          1   -1    0    0  501    0 -0.00000000000E+00 -0.00000000000E+00 -0.77337090396E+03  0.77337090396E+03  0.00000000000E+00 0. -1.
         25    2    1    2    0    0 -0.32442188248E+02  0.44573799043E+02 -0.26765489912E+03  0.30050559914E+03  0.12500060382E+03 0.  0.
          2    1    1    2  501    0 -0.27035671830E+02 -0.28811539361E+02 -0.48789548359E+03  0.48949263045E+03  0.00000000000E+00 0. -1.
          1    1    1    2  502    0  0.59477860078E+02 -0.15762259681E+02  0.15859264418E+04  0.15871196374E+04  0.00000000000E+00 0. -1.
         22    1    3    3    0    0 -0.50095038441E+02  0.66187767292E+02 -0.25792191185E+03  0.27095026486E+03  0.00000000000E+00 0. -1.
         22    1    3    3    0    0  0.17652850193E+02 -0.21613968249E+02 -0.97329872641E+01  0.29555334282E+02  0.00000000000E+00 0. -1.
</event>
<event>
 7    1  0.6278987E-006  0.1350991E+03  0.7818608E-02  0.1370895E+00
          2   -1    0    0  502    0  0.00000000000E+00  0.00000000000E+00  0.13321633203E+04  0.13321633203E+04  0.00000000000E+00 0. -1.
          1   -1    0    0  501    0 -0.00000000000E+00 -0.00000000000E+00 -0.57009898284E+03  0.57009898284E+03  0.00000000000E+00 0. -1.
         25    2    1    2    0    0 -0.13743212489E+03  0.24650543752E+02  0.45579834652E+02  0.19286792178E+03  0.12500110265E+03 0.  0.
          2    1    1    2  501    0  0.13951276141E+02  0.30068176098E+02 -0.49213589261E+03  0.49325092003E+03  0.00000000000E+00 0. -1.
          1    1    1    2  502    0  0.12348084875E+03 -0.54718719850E+02  0.12086203954E+04  0.12161434613E+04  0.00000000000E+00 0. -1.
         22    1    3    3    0    0 -0.85766085269E+02  0.73915115021E+02  0.11631326249E+02  0.11381807133E+03  0.00000000000E+00 0. -1.
         22    1    3    3    0    0 -0.51666039623E+02 -0.49264571269E+02  0.33948508403E+02  0.79049850446E+02  0.00000000000E+00 0. -1.
</event>
<event>
 7    1  0.1139100E-005  0.6114565E+02  0.7818608E-02  0.1399203E+00
          2   -1    0    0  502    0  0.00000000000E+00  0.00000000000E+00  0.28428010263E+04  0.28428010263E+04  0.00000000000E+00 0. -1.
          1   -1    0    0  501    0 -0.00000000000E+00 -0.00000000000E+00 -0.27413312291E+04  0.27413312291E+04  0.00000000000E+00 0. -1.
         25    2    1    2    0    0 -0.10585173007E+03 -0.20546222831E+02 -0.53344886017E+03  0.55840819145E+03  0.12500114331E+03 0.  0.
          2    1    1    2  501    0  0.56233798142E+02 -0.15148762477E+02 -0.21946863657E+04  0.21954589426E+04  0.00000000000E+00 0. -1.
          1    1    1    2  502    0  0.49617931931E+02  0.35694985309E+02  0.28296050230E+04  0.28302651214E+04  0.00000000000E+00 0. -1.
         22    1    3    3    0    0 -0.50038234872E+02  0.72598490945E+01 -0.50539922854E+02  0.71489958456E+02  0.00000000000E+00 0. -1.
         22    1    3    3    0    0 -0.55813495202E+02 -0.27806071926E+02 -0.48290893731E+03  0.48691823299E+03  0.00000000000E+00 0. -1.
</event>
<event>
 7    1  0.6278987E-006  0.1992362E+03  0.7818608E-02  0.1350883E+00
          2   -1    0    0  502    0  0.00000000000E+00  0.00000000000E+00  0.31819102815E+04  0.31819102815E+04  0.00000000000E+00 0. -1.
          1   -1    0    0  501    0 -0.00000000000E+00 -0.00000000000E+00 -0.15303139918E+03  0.15303139918E+03  0.00000000000E+00 0. -1.
         25    2    1    2    0    0 -0.11115250640E+03 -0.15568611389E+03  0.12718196182E+04  0.12921859989E+04  0.12500587474E+03 0.  0.
          2    1    1    2  501    0  0.13602132476E+03  0.14628354147E+03 -0.72873857975E+02  0.21262942993E+03  0.00000000000E+00 0. -1.
          1    1    1    2  502    0 -0.24868818358E+02  0.94025724130E+01  0.18299331221E+04  0.18301262519E+04  0.00000000000E+00 0. -1.
         22    1    3    3    0    0 -0.56562537316E+02  0.56912698041E+01  0.26194457568E+03  0.26804229500E+03  0.00000000000E+00 0.  1.
         22    1    3    3    0    0 -0.54589969083E+02 -0.16137738369E+03  0.10098750425E+04  0.10241437039E+04  0.00000000000E+00 0.  1.
</event>
<event>
 7    1  0.6278987E-006  0.3715351E+02  0.7818608E-02  0.1608521E+00
          2   -1    0    0  502    0  0.00000000000E+00  0.00000000000E+00  0.28146176924E+03  0.28146176924E+03  0.00000000000E+00 0. -1.
          1   -1    0    0  501    0 -0.00000000000E+00 -0.00000000000E+00 -0.38397667973E+03  0.38397667973E+03  0.00000000000E+00 0. -1.
         25    2    1    2    0    0  0.40084306313E+02 -0.31077780836E+02 -0.25492417231E+03  0.28841549401E+03  0.12499833392E+03 0.  0.
          2    1    1    2  501    0 -0.22692320916E+02 -0.17040404434E+01 -0.10983420694E+03  0.11216683198E+03  0.00000000000E+00 0. -1.
          1    1    1    2  502    0 -0.17391985397E+02  0.32781821279E+02  0.26224346877E+03  0.26485612297E+03  0.00000000000E+00 0. -1.
         22    1    3    3    0    0  0.75983245676E+02 -0.37645333972E+02 -0.10957282584E+03  0.13855262161E+03  0.00000000000E+00 0.  1.
         22    1    3    3    0    0 -0.35898939362E+02  0.65675531365E+01 -0.14535134648E+03  0.14986287240E+03  0.00000000000E+00 0.  1.
</event>
<event>
 7    1  0.6813222E-006  0.1303041E+03  0.7818608E-02  0.1384218E+00
          2   -1    0    0  502    0  0.00000000000E+00  0.00000000000E+00  0.67861174772E+03  0.67861174772E+03  0.00000000000E+00 0. -1.
          1   -1    0    0  501    0 -0.00000000000E+00 -0.00000000000E+00 -0.13017403998E+04  0.13017403998E+04  0.00000000000E+00 0. -1.
         25    2    1    2    0    0 -0.70417372112E+02 -0.13334078517E+03 -0.63091455204E+03  0.66061874933E+03  0.12500235480E+03 0.  0.
          2    1    1    2  501    0 -0.82492140646E+01  0.29691820296E+02 -0.64922762048E+03  0.64995858093E+03  0.00000000000E+00 0. -1.
          1    1    1    2  502    0  0.78666586176E+02  0.10364896487E+03  0.65701352048E+03  0.66977481723E+03  0.00000000000E+00 0. -1.
         22    1    3    3    0    0 -0.70868530108E+02 -0.10100378717E+03 -0.25465831648E+03  0.28297521400E+03  0.00000000000E+00 0. -1.
         22    1    3    3    0    0  0.45115799663E+00 -0.32336997999E+02 -0.37625623556E+03  0.37764353533E+03  0.00000000000E+00 0. -1.
</event>
<event>
 7    1  0.6278987E-006  0.6738663E+02  0.7818608E-02  0.1405224E+00
          2   -1    0    0  502    0  0.00000000000E+00  0.00000000000E+00  0.25390100804E+04  0.25390100804E+04  0.00000000000E+00 0. -1.
          1   -1    0    0  501    0 -0.00000000000E+00 -0.00000000000E+00 -0.16120517778E+03  0.16120517778E+03  0.00000000000E+00 0. -1.
         25    2    1    2    0    0  0.90866832610E+01 -0.69795997428E+02  0.35863563462E+03  0.38626220627E+03  0.12499969802E+03 0.  0.
          2    1    1    2  501    0  0.39156897970E+02  0.55236655413E+02 -0.13930647967E+03  0.15488914112E+03  0.00000000000E+00 0. -1.
          1    1    1    2  502    0 -0.48243581231E+02  0.14559342015E+02  0.21584757476E+04  0.21590639107E+04  0.00000000000E+00 0. -1.
         22    1    3    3    0    0  0.67850017585E+01 -0.10647223919E+03  0.26412664519E+03  0.28486006857E+03  0.00000000000E+00 0.  1.
         22    1    3    3    0    0  0.23016815024E+01  0.36676241761E+02  0.94508989432E+02  0.10140213770E+03  0.00000000000E+00 0.  1.
</event>
<event>
 7    1  0.6278987E-006  0.1242325E+03  0.7818608E-02  0.1374231E+00
          2   -1    0    0  502    0  0.00000000000E+00  0.00000000000E+00  0.66156859213E+03  0.66156859213E+03  0.00000000000E+00 0. -1.
          1   -1    0    0  501    0 -0.00000000000E+00 -0.00000000000E+00 -0.32346712043E+03  0.32346712043E+03  0.00000000000E+00 0. -1.
         25    2    1    2    0    0 -0.58189510261E+02  0.14515247272E+03  0.28186256481E+03  0.34572180275E+03  0.12498719940E+03 0.  0.
          2    1    1    2  501    0  0.36981830803E+02 -0.11722334368E+03 -0.27762190932E+03  0.30361635767E+03  0.00000000000E+00 0. -1.
          1    1    1    2  502    0  0.21207679457E+02 -0.27929129037E+02  0.33386081620E+03  0.33569755214E+03  0.00000000000E+00 0. -1.
         22    1    3    3    0    0 -0.21572023443E+02  0.29953842526E+02 -0.22317154343E+01  0.36980608855E+02  0.00000000000E+00 0.  1.
         22    1    3    3    0    0 -0.36617486817E+02  0.11519863019E+03  0.28409428025E+03  0.30874119390E+03  0.00000000000E+00 0.  1.
</event>
<event>
 7    1  0.6278987E-006  0.6139841E+02  0.7818608E-02  0.1485025E+00
          2   -1    0    0  502    0  0.00000000000E+00  0.00000000000E+00  0.30076496447E+03  0.30076496447E+03  0.00000000000E+00 0. -1.
          1   -1    0    0  501    0 -0.00000000000E+00 -0.00000000000E+00 -0.18030021767E+03  0.18030021767E+03  0.00000000000E+00 0. -1.
         25    2    1    2    0    0  0.70637291288E+02  0.32479344712E+02 -0.17151637191E+02  0.14820061624E+03  0.12499883696E+03 0.  0.
          2    1    1    2  501    0 -0.98858713639E+01 -0.28941151118E+02 -0.91149312613E+02  0.96143215416E+02  0.00000000000E+00 0. -1.
          1    1    1    2  502    0 -0.60751419924E+02 -0.35381935936E+01  0.22876569660E+03  0.23672135049E+03  0.00000000000E+00 0. -1.
         22    1    3    3    0    0  0.10357575511E+03  0.37986651395E+02  0.71863496704E+00  0.11032424560E+03  0.00000000000E+00 0.  1.
         22    1    3    3    0    0 -0.32938463820E+02 -0.55073066838E+01 -0.17870272158E+02  0.37876370638E+02  0.00000000000E+00 0.  1.
</event>
<event>
 7    1  0.6278987E-006  0.2489188E+03  0.7818608E-02  0.1340133E+00
          2   -1    0    0  502    0  0.00000000000E+00  0.00000000000E+00  0.45203767620E+04  0.45203767620E+04  0.00000000000E+00 0. -1.
          1   -1    0    0  501    0 -0.00000000000E+00 -0.00000000000E+00 -0.29503789377E+04  0.29503789377E+04  0.00000000000E+00 0. -1.
         25    2    1    2    0    0  0.23192323026E+03 -0.80088158122E+02  0.31885343012E+04  0.32004030336E+04  0.12500435875E+03 0.  0.
          2    1    1    2  501    0 -0.24184261934E+03  0.58961741645E+02 -0.29390801483E+04  0.29496027626E+04  0.00000000000E+00 0. -1.
          1    1    1    2  502    0  0.99193890814E+01  0.21126416478E+02  0.13205436713E+04  0.13207499035E+04  0.00000000000E+00 0. -1.
         22    1    3    3    0    0  0.56877673919E+02  0.26158812309E+02  0.46721162055E+03  0.47138736897E+03  0.00000000000E+00 0.  1.
         22    1    3    3    0    0  0.17504555634E+03 -0.10624697043E+03  0.27213226807E+04  0.27290156647E+04  0.00000000000E+00 0.  1.
</event>
<event>
 7    1  0.6278987E-006  0.1026491E+03  0.7818608E-02  0.1401108E+00
          2   -1    0    0  502    0  0.00000000000E+00  0.00000000000E+00  0.46543897870E+02  0.46543897870E+02  0.00000000000E+00 0. -1.
          1   -1    0    0  501    0 -0.00000000000E+00 -0.00000000000E+00 -0.13516416482E+04  0.13516416482E+04  0.00000000000E+00 0. -1.
         25    2    1    2    0    0 -0.77524202386E+02 -0.10901488948E+03 -0.30219830882E+03  0.35333152217E+03  0.12500039450E+03 0.  0.
          2    1    1    2  501    0  0.59119159334E+02  0.80222526338E+02 -0.10056460975E+04  0.10105715225E+04  0.00000000000E+00 0. -1.
          1    1    1    2  502    0  0.18405043051E+02  0.28792363146E+02  0.27466559264E+01  0.34282501426E+02  0.00000000000E+00 0. -1.
         22    1    3    3    0    0  0.76639785387E+01 -0.47281844592E+02 -0.20355501858E+03  0.20911469337E+03  0.00000000000E+00 0.  1.
         22    1    3    3    0    0 -0.85188180924E+02 -0.61733044892E+02 -0.98643290238E+02  0.14421682880E+03  0.00000000000E+00 0.  1.
</event>
<event>
 7    1  0.6278987E-006  0.1365308E+03  0.7818608E-02  0.1247476E+00
          2   -1    0    0  502    0  0.00000000000E+00  0.00000000000E+00  0.24991054587E+03  0.24991054587E+03  0.00000000000E+00 0. -1.
          1   -1    0    0  501    0 -0.00000000000E+00 -0.00000000000E+00 -0.23529069738E+04  0.23529069738E+04  0.00000000000E+00 0. -1.
         25    2    1    2    0    0  0.21090132391E+03 -0.90740843482E+02 -0.16819513812E+04  0.17021448786E+04  0.12499387824E+03 0.  0.
          2    1    1    2  501    0 -0.10012230138E+03  0.12686333024E+02 -0.63742199386E+03  0.64536208173E+03  0.00000000000E+00 0. -1.
          1    1    1    2  502    0 -0.11077902252E+03  0.78054510458E+02  0.21637694721E+03  0.25531055935E+03  0.00000000000E+00 0. -1.
         22    1    3    3    0    0  0.11396019806E+03 -0.10185238732E+03 -0.77258709460E+03  0.78756057182E+03  0.00000000000E+00 0.  1.
         22    1    3    3    0    0  0.96941125850E+02  0.11111543840E+02 -0.90936428665E+03  0.91458430673E+03  0.00000000000E+00 0.  1.
</event>
<event>
 7    1  0.6278987E-006  0.8421770E+02  0.7818608E-02  0.1342597E+00
          2   -1    0    0  502    0  0.00000000000E+00  0.00000000000E+00  0.11241164071E+04  0.11241164071E+04  0.00000000000E+00 0. -1.
          1   -1    0    0  501    0 -0.00000000000E+00 -0.00000000000E+00 -0.52922639153E+02  0.52922639153E+02  0.00000000000E+00 0. -1.
         25    2    1    2    0    0 -0.12617359648E+03 -0.64348989744E+02  0.33460787208E+03  0.38425007893E+03  0.12500050466E+03 0.  0.
          2    1    1    2  501    0  0.48642686114E+02  0.46840021368E+02  0.18089361394E+02  0.69909395004E+02  0.00000000000E+00 0. -1.
          1    1    1    2  502    0  0.77530910370E+02  0.17508968376E+02  0.71849653451E+03  0.72287957236E+03  0.00000000000E+00 0. -1.
         22    1    3    3    0    0 -0.10334905173E+03 -0.68450240611E+02  0.33872685885E+03  0.36069702915E+03  0.00000000000E+00 0.  1.
         22    1    3    3    0    0 -0.22824544751E+02  0.41012508673E+01 -0.41189867638E+01  0.23553049776E+02  0.00000000000E+00 0.  1.
</event>
<event>
 7    1  0.6278987E-006  0.9916585E+02  0.7818608E-02  0.1359871E+00
          2   -1    0    0  502    0  0.00000000000E+00  0.00000000000E+00  0.35576862723E+03  0.35576862723E+03  0.00000000000E+00 0. -1.
          1   -1    0    0  501    0 -0.00000000000E+00 -0.00000000000E+00 -0.78472072263E+03  0.78472072263E+03  0.00000000000E+00 0. -1.
         25    2    1    2    0    0  0.18989123665E+02 -0.11935455197E+03 -0.26860740700E+02  0.17593232666E+03  0.12499835310E+03 0.  0.
          2    1    1    2  501    0  0.24395026150E+02  0.95510741359E+02 -0.67755094319E+03  0.68468437957E+03  0.00000000000E+00 0. -1.
          1    1    1    2  502    0 -0.43384149814E+02  0.23843810615E+02  0.27545958849E+03  0.27987264363E+03  0.00000000000E+00 0. -1.
         22    1    3    3    0    0  0.36449278052E+02 -0.27587765119E+02 -0.61217334461E+02  0.76401549024E+02  0.00000000000E+00 0. -1.
         22    1    3    3    0    0 -0.17460154387E+02 -0.91766786855E+02  0.34356593761E+02  0.99530777631E+02  0.00000000000E+00 0. -1.
</event>
<event>
 7    1  0.6278987E-006  0.7294815E+02  0.7818608E-02  0.1378717E+00
          2   -1    0    0  502    0  0.00000000000E+00  0.00000000000E+00  0.12512299963E+04  0.12512299963E+04  0.00000000000E+00 0. -1.
          1   -1    0    0  501    0 -0.00000000000E+00 -0.00000000000E+00 -0.50321437621E+03  0.50321437621E+03  0.00000000000E+00 0. -1.
         25    2    1    2    0    0  0.61760491196E+02  0.11132895434E+02 -0.65857275345E+02  0.15459650411E+03  0.12499839492E+03 0.  0.
          2    1    1    2  501    0 -0.49100240959E+01 -0.57356196331E+02 -0.38975933895E+03  0.39398754281E+03  0.00000000000E+00 0. -1.
          1    1    1    2  502    0 -0.56850467100E+02  0.46223300897E+02  0.12036322344E+04  0.12058603255E+04  0.00000000000E+00 0. -1.
         22    1    3    3    0    0 -0.10608323523E+02 -0.10552957436E+02  0.29417092950E+02  0.33004042119E+02  0.00000000000E+00 0.  1.
         22    1    3    3    0    0  0.72368814719E+02  0.21685852870E+02 -0.95274368294E+02  0.12159246199E+03  0.00000000000E+00 0.  1.
</event>
<event>
 7    1  0.6278987E-006  0.7885725E+02  0.7818608E-02  0.1357109E+00
          2   -1    0    0  502    0  0.00000000000E+00  0.00000000000E+00  0.71865339311E+03  0.71865339311E+03  0.00000000000E+00 0. -1.
          1   -1    0    0  501    0 -0.00000000000E+00 -0.00000000000E+00 -0.28212616811E+03  0.28212616811E+03  0.00000000000E+00 0. -1.
         25    2    1    2    0    0 -0.28368940862E+02  0.12892567678E+03  0.25887614534E+02  0.18362813135E+03  0.12498997998E+03 0.  0.
          2    1    1    2  501    0 -0.11621277434E+02 -0.62650184915E+02 -0.19574062053E+03  0.20585065044E+03  0.00000000000E+00 0. -1.
          1    1    1    2  502    0  0.39990218297E+02 -0.66275491870E+02  0.60638023100E+03  0.61130077943E+03  0.00000000000E+00 0. -1.
         22    1    3    3    0    0 -0.35930100228E+02  0.41189174626E+02  0.66979452122E+02  0.86450952657E+02  0.00000000000E+00 0.  1.
         22    1    3    3    0    0  0.75611593661E+01  0.87736502158E+02 -0.41091837588E+02  0.97177178691E+02  0.00000000000E+00 0.  1.
</event>
<event>
 7    1  0.6278987E-006  0.6916425E+02  0.7818608E-02  0.1387007E+00
          2   -1    0    0  502    0  0.00000000000E+00  0.00000000000E+00  0.24433628390E+04  0.24433628390E+04  0.00000000000E+00 0. -1.
          1   -1    0    0  501    0 -0.00000000000E+00 -0.00000000000E+00 -0.14406648453E+02  0.14406648453E+02  0.00000000000E+00 0. -1.
         25    2    1    2    0    0 -0.75318598220E+01  0.32348989129E+02  0.18821340340E+04  0.18865722956E+04  0.12499327380E+03 0.  0.
          2    1    1    2  501    0 -0.43017529245E+02 -0.58170641894E+02  0.11642685239E+03  0.13707495526E+03  0.00000000000E+00 0. -1.
          1    1    1    2  502    0  0.50549389067E+02  0.25821652765E+02  0.43039530412E+03  0.43412223658E+03  0.00000000000E+00 0. -1.
         22    1    3    3    0    0  0.28040226991E+01 -0.53422690783E+01  0.17118558274E+04  0.17118664598E+04  0.00000000000E+00 0.  1.
         22    1    3    3    0    0 -0.10335882521E+02  0.37691258207E+02  0.17027820662E+03  0.17470583580E+03  0.00000000000E+00 0.  1.
</event>
<event>
 7    1  0.6278987E-006  0.2586043E+03  0.7818608E-02  0.1259074E+00
          2   -1    0    0  502    0  0.00000000000E+00  0.00000000000E+00  0.75881028834E+03  0.75881028834E+03  0.00000000000E+00 0. -1.
          1   -1    0    0  501    0 -0.00000000000E+00 -0.00000000000E+00 -0.21280999210E+04  0.21280999210E+04  0.00000000000E+00 0. -1.
         25    2    1    2    0    0  0.18890912693E+03  0.99576754818E+02  0.59265656118E+02  0.25443913982E+03  0.12499867816E+03 0.  0.
          2    1    1    2  501    0 -0.23030049166E+03 -0.12284372161E+03 -0.20211715183E+04  0.20379556430E+04  0.00000000000E+00 0. -1.
          1    1    1    2  502    0  0.41391364736E+02  0.23266966795E+02  0.59261622955E+03  0.59451542650E+03  0.00000000000E+00 0. -1.
         22    1    3    3    0    0  0.19242077578E+03  0.61214492908E+02  0.71202856106E+02  0.21410935480E+03  0.00000000000E+00 0. -1.
         22    1    3    3    0    0 -0.35116488528E+01  0.38362261910E+02 -0.11937199989E+02  0.40329785024E+02  0.00000000000E+00 0. -1.
</event>
<event>
 7    1  0.6825103E-006  0.5493118E+02  0.7818608E-02  0.1472984E+00
          2   -1    0    0  502    0  0.00000000000E+00  0.00000000000E+00  0.10297274876E+04  0.10297274876E+04  0.00000000000E+00 0. -1.
          1   -1    0    0  501    0 -0.00000000000E+00 -0.00000000000E+00 -0.84108459501E+03  0.84108459501E+03  0.00000000000E+00 0. -1.
         25    2    1    2    0    0 -0.48933387111E+02  0.72153649816E+02 -0.39289453069E+03  0.42141929947E+03  0.12500995228E+03 0.  0.
          2    1    1    2  501    0  0.21699432997E+02 -0.46779783718E+02 -0.43205279155E+03  0.43511932644E+03  0.00000000000E+00 0. -1.
          1    1    1    2  502    0  0.27233954114E+02 -0.25373866098E+02  0.10135902149E+04  0.10142734567E+04  0.00000000000E+00 0. -1.
         22    1    3    3    0    0 -0.89277393853E+02  0.66549995022E+02 -0.27511211909E+03  0.29679291259E+03  0.00000000000E+00 0. -1.
         22    1    3    3    0    0  0.40344006742E+02  0.56036547944E+01 -0.11778241159E+03  0.12462638688E+03  0.00000000000E+00 0. -1.
</event>
<event>
 7    1  0.6278987E-006  0.4858099E+02  0.7818608E-02  0.1537257E+00
          2   -1    0    0  502    0  0.00000000000E+00  0.00000000000E+00  0.17283210372E+03  0.17283210372E+03  0.00000000000E+00 0. -1.
          1   -1    0    0  501    0 -0.00000000000E+00 -0.00000000000E+00 -0.27593094525E+04  0.27593094525E+04  0.00000000000E+00 0. -1.
         25    2    1    2    0    0  0.21303787179E+02 -0.31338890790E+02 -0.66234967230E+03  0.67510587239E+03  0.12499949250E+03 0.  0.
          2    1    1    2  501    0 -0.98432424822E+00  0.49330694248E+02 -0.20891821711E+04  0.20897647308E+04  0.00000000000E+00 0. -1.
          1    1    1    2  502    0 -0.20319462931E+02 -0.17991803459E+02  0.16505449454E+03  0.16727095304E+03  0.00000000000E+00 0. -1.
         22    1    3    3    0    0  0.21201135497E+02 -0.10434977436E+02 -0.16273317818E+02  0.28691423340E+02  0.00000000000E+00 0. -1.
         22    1    3    3    0    0  0.10265168221E+00 -0.20903913354E+02 -0.64607635448E+03  0.64641444905E+03  0.00000000000E+00 0. -1.
</event>
<event>
 7    1  0.9888529E-006  0.1153689E+03  0.7818608E-02  0.1336194E+00
          2   -1    0    0  502    0  0.00000000000E+00  0.00000000000E+00  0.11792591701E+04  0.11792591701E+04  0.00000000000E+00 0. -1.
          1   -1    0    0  501    0 -0.00000000000E+00 -0.00000000000E+00 -0.10260572182E+04  0.10260572182E+04  0.00000000000E+00 0. -1.
         25    2    1    2    0    0 -0.10118822265E+03  0.30696645970E+02 -0.10043566092E+03  0.19206767296E+03  0.12498531329E+03 0.  0.
          2    1    1    2  501    0 -0.12895923059E+02 -0.50488290404E+02 -0.87607222486E+03  0.87762059882E+03  0.00000000000E+00 0. -1.
          1    1    1    2  502    0  0.11408414571E+03  0.19791644434E+02  0.11297098377E+04  0.11356281165E+04  0.00000000000E+00 0. -1.
         22    1    3    3    0    0 -0.65591854815E+02 -0.27161013011E+02 -0.21401661787E+00  0.70993364823E+02  0.00000000000E+00 0. -1.
         22    1    3    3    0    0 -0.35596367833E+02  0.57857658981E+02 -0.10022164430E+03  0.12107430814E+03  0.00000000000E+00 0. -1.
</event>
<event>
 7    1  0.6278987E-006  0.1146992E+03  0.7818608E-02  0.1340580E+00
          2   -1    0    0  502    0  0.00000000000E+00  0.00000000000E+00  0.10625662674E+03  0.10625662674E+03  0.00000000000E+00 0. -1.
          1   -1    0    0  501    0 -0.00000000000E+00 -0.00000000000E+00 -0.61420771563E+03  0.61420771563E+03  0.00000000000E+00 0. -1.
         25    2    1    2    0    0 -0.14199343014E+02  0.10821841594E+03 -0.13746824244E+03  0.21548978936E+03  0.12500193896E+03 0.  0.
          2    1    1    2  501    0  0.50199230423E+02  0.50712859701E+01 -0.38220970457E+03  0.38552553605E+03  0.00000000000E+00 0. -1.
          1    1    1    2  502    0 -0.35999887409E+02 -0.11328970191E+03  0.11726858124E+02  0.11944901697E+03  0.00000000000E+00 0. -1.
         22    1    3    3    0    0  0.35453438929E+02  0.10334279044E+03 -0.12082180681E+03  0.16289440650E+03  0.00000000000E+00 0.  1.
         22    1    3    3    0    0 -0.49652781943E+02  0.48756255049E+01 -0.16646435635E+02  0.52595382860E+02  0.00000000000E+00 0.  1.
</event>
<event>
 7    1  0.6278987E-006  0.5077149E+02  0.7818608E-02  0.1545323E+00
          2   -1    0    0  502    0  0.00000000000E+00  0.00000000000E+00  0.37538481861E+02  0.37538481861E+02  0.00000000000E+00 0. -1.
          1   -1    0    0  501    0 -0.00000000000E+00 -0.00000000000E+00 -0.48823732253E+03  0.48823732253E+03  0.00000000000E+00 0. -1.
         25    2    1    2    0    0 -0.36203236623E+02 -0.43381133900E+02 -0.22257185347E+03  0.26145013798E+03  0.12500139028E+03 0.  0.
          2    1    1    2  501    0 -0.99506965646E+01  0.22544752832E+02 -0.20860207229E+03  0.21005262866E+03  0.00000000000E+00 0. -1.
          1    1    1    2  502    0  0.46153933188E+02  0.20836381068E+02 -0.19524914904E+02  0.54273037751E+02  0.00000000000E+00 0. -1.
         22    1    3    3    0    0  0.36628004186E+02 -0.38388441596E+02 -0.14742257678E+03  0.15668024535E+03  0.00000000000E+00 0. -1.
         22    1    3    3    0    0 -0.72831240809E+02 -0.49926923043E+01 -0.75149276693E+02  0.10476989263E+03  0.00000000000E+00 0. -1.
</event>
<event>
 7    1  0.6278987E-006  0.1104837E+03  0.7818608E-02  0.1413724E+00
          2   -1    0    0  502    0  0.00000000000E+00  0.00000000000E+00  0.91622333123E+03  0.91622333123E+03  0.00000000000E+00 0. -1.
          1   -1    0    0  501    0 -0.00000000000E+00 -0.00000000000E+00 -0.33854742906E+04  0.33854742906E+04  0.00000000000E+00 0. -1.
         25    2    1    2    0    0  0.24796136477E+02 -0.78730733183E+02  0.72487074086E+02  0.16641221119E+03  0.12500108557E+03 0.  0.
          2    1    1    2  501    0 -0.26711316775E+02  0.10742853192E+03 -0.33373341415E+04  0.33391695908E+04  0.00000000000E+00 0. -1.
          1    1    1    2  502    0  0.19151802979E+01 -0.28697798738E+02  0.79559610802E+03  0.79611581988E+03  0.00000000000E+00 0. -1.
         22    1    3    3    0    0  0.27108888092E+02  0.40549857977E+01  0.78724193888E+02  0.83359663067E+02  0.00000000000E+00 0.  1.
         22    1    3    3    0    0 -0.23127516141E+01 -0.82785718980E+02 -0.62371198014E+01  0.83052548128E+02  0.00000000000E+00 0.  1.
</event>
<event>
 7    1  0.6278987E-006  0.1074072E+03  0.7818608E-02  0.1268798E+00
          2   -1    0    0  502    0  0.00000000000E+00  0.00000000000E+00  0.22753394617E+04  0.22753394617E+04  0.00000000000E+00 0. -1.
          1   -1    0    0  501    0 -0.00000000000E+00 -0.00000000000E+00 -0.28371204196E+03  0.28371204196E+03  0.00000000000E+00 0. -1.
         25    2    1    2    0    0  0.11002159242E+03 -0.60477575702E+02  0.16758227912E+02  0.17795535611E+03  0.12499993041E+03 0.  0.
          2    1    1    2  501    0 -0.10233629960E+03 -0.43205999709E+02 -0.18658203685E+03  0.21714587977E+03  0.00000000000E+00 0. -1.
          1    1    1    2  502    0 -0.76852928230E+01  0.10368357541E+03  0.21614512287E+04  0.21639502678E+04  0.00000000000E+00 0. -1.
         22    1    3    3    0    0  0.77757341197E+02  0.26434007989E+02 -0.64712723439E+01  0.82382269051E+02  0.00000000000E+00 0. -1.
         22    1    3    3    0    0  0.32264251227E+02 -0.86911583691E+02  0.23229500256E+02  0.95573087054E+02  0.00000000000E+00 0. -1.
</event>
<event>
 7    1  0.6278987E-006  0.2521735E+03  0.7818608E-02  0.1252192E+00
          2   -1    0    0  502    0  0.00000000000E+00  0.00000000000E+00  0.60385588598E+03  0.60385588598E+03  0.00000000000E+00 0. -1.
          1   -1    0    0  501    0 -0.00000000000E+00 -0.00000000000E+00 -0.24092492584E+03  0.24092492584E+03  0.00000000000E+00 0. -1.
         25    2    1    2    0    0  0.76658014379E+02  0.20244369743E+03 -0.40658443771E+02  0.25325910654E+03  0.12500865650E+03 0.  0.
          2    1    1    2  501    0  0.42991968882E+02  0.29475743944E+02 -0.47410265712E+02  0.70461778038E+02  0.00000000000E+00 0. -1.
          1    1    1    2  502    0 -0.11964998326E+03 -0.23191944138E+03  0.45099966962E+03  0.52105992724E+03  0.00000000000E+00 0. -1.
         22    1    3    3    0    0 -0.25617882251E+02  0.10310595170E+03 -0.29421584597E+02  0.11023947935E+03  0.00000000000E+00 0.  1.
         22    1    3    3    0    0  0.10227589663E+03  0.99337745728E+02 -0.11236859174E+02  0.14301962719E+03  0.00000000000E+00 0.  1.
</event>
<event>
 7    1  0.6278987E-006  0.8937458E+02  0.7818608E-02  0.1390246E+00
          2   -1    0    0  502    0  0.00000000000E+00  0.00000000000E+00  0.13228425652E+03  0.13228425652E+03  0.00000000000E+00 0. -1.
          1   -1    0    0  501    0 -0.00000000000E+00 -0.00000000000E+00 -0.35325642103E+03  0.35325642103E+03  0.00000000000E+00 0. -1.
         25    2    1    2    0    0  0.10641856293E+03  0.41975835233E+02 -0.62242235410E+02  0.18051942320E+03  0.12500513991E+03 0.  0.
          2    1    1    2  501    0 -0.21508140725E+02 -0.36998440073E+02 -0.20415697208E+03  0.20859423274E+03  0.00000000000E+00 0. -1.
          1    1    1    2  502    0 -0.84910422202E+02 -0.49773951606E+01  0.45427042975E+02  0.96427021600E+02  0.00000000000E+00 0. -1.
         22    1    3    3    0    0  0.11394588112E+03  0.54643202401E+02 -0.85791069190E+02  0.15274046925E+03  0.00000000000E+00 0.  1.
         22    1    3    3    0    0 -0.75273181967E+01 -0.12667367168E+02  0.23548833780E+02  0.27778953951E+02  0.00000000000E+00 0.  1.
</event>
<event>
 7    1  0.6278987E-006  0.1524028E+03  0.7818608E-02  0.1200760E+00
          2   -1    0    0  502    0  0.00000000000E+00  0.00000000000E+00  0.46528425629E+04  0.46528425629E+04  0.00000000000E+00 0. -1.
          1   -1    0    0  501    0 -0.00000000000E+00 -0.00000000000E+00 -0.19393567487E+03  0.19393567487E+03  0.00000000000E+00 0. -1.
         25    2    1    2    0    0 -0.54582128472E+02  0.10255580760E+02  0.16919232221E+03  0.21756812870E+03  0.12500185216E+03 0.  0.
          2    1    1    2  501    0  0.63323078738E+02 -0.16240747428E+03 -0.12333118395E+03  0.21353355927E+03  0.00000000000E+00 0. -1.
          1    1    1    2  502    0 -0.87409502664E+01  0.15215189352E+03  0.44130457497E+04  0.44156765498E+04  0.00000000000E+00 0. -1.
         22    1    3    3    0    0 -0.11073628695E+02 -0.51799048342E+02  0.35109508217E+02  0.63548754739E+02  0.00000000000E+00 0.  1.
         22    1    3    3    0    0 -0.43508499777E+02  0.62054629102E+02  0.13408281400E+03  0.15401937396E+03  0.00000000000E+00 0.  1.
</event>
<event>
 7    1  0.6278987E-006  0.6979835E+02  0.7818608E-02  0.1484903E+00
          2   -1    0    0  502    0  0.00000000000E+00  0.00000000000E+00  0.22925811160E+04  0.22925811160E+04  0.00000000000E+00 0. -1.
          1   -1    0    0  501    0 -0.00000000000E+00 -0.00000000000E+00 -0.34269015749E+03  0.34269015749E+03  0.00000000000E+00 0. -1.
         25    2    1    2    0    0 -0.18818089912E+02 -0.83809159339E+02  0.10182685932E+04  0.10295017377E+04  0.12499921695E+03 0.  0.
          2    1    1    2  501    0 -0.40741135438E+01  0.69634201581E+02 -0.33332013481E+03  0.34054050083E+03  0.00000000000E+00 0. -1.
          1    1    1    2  502    0  0.22892203456E+02  0.14174957758E+02  0.12649425000E+04  0.12652290349E+04  0.00000000000E+00 0. -1.
         22    1    3    3    0    0 -0.39055267151E+02 -0.19229875202E+02  0.10415666849E+03  0.11288805775E+03  0.00000000000E+00 0.  1.
         22    1    3    3    0    0  0.20237177239E+02 -0.64579284136E+02  0.91411192475E+03  0.91661367994E+03  0.00000000000E+00 0.  1.
</event>
<event>
 7    1  0.6278987E-006  0.1188699E+03  0.7818608E-02  0.1266519E+00
          2   -1    0    0  502    0  0.00000000000E+00  0.00000000000E+00  0.19719092698E+04  0.19719092698E+04  0.00000000000E+00 0. -1.
          1   -1    0    0  501    0 -0.00000000000E+00 -0.00000000000E+00 -0.73397098854E+03  0.73397098854E+03  0.00000000000E+00 0. -1.
         25    2    1    2    0    0  0.67468451880E+02  0.19596024763E+03  0.22326583390E+03  0.32927964958E+03  0.12500017757E+03 0.  0.
          2    1    1    2  501    0 -0.13423323435E+02 -0.11656568639E+03 -0.67453534000E+03  0.68466464037E+03  0.00000000000E+00 0. -1.
          1    1    1    2  502    0 -0.54045128444E+02 -0.79394561238E+02  0.16892077873E+04  0.16919359684E+04  0.00000000000E+00 0. -1.
         22    1    3    3    0    0  0.62695801756E+02  0.13172958330E+03  0.22102733997E+03  0.26483302605E+03  0.00000000000E+00 0. -1.
         22    1    3    3    0    0  0.47726501231E+01  0.64230664333E+02  0.22384939312E+01  0.64446623534E+02  0.00000000000E+00 0. -1.
</event>
<event>
 7    1  0.6278987E-006  0.9813768E+02  0.7818608E-02  0.1330686E+00
          2   -1    0    0  502    0  0.00000000000E+00  0.00000000000E+00  0.76603042052E+03  0.76603042052E+03  0.00000000000E+00 0. -1.
          1   -1    0    0  501    0 -0.00000000000E+00 -0.00000000000E+00 -0.15877059560E+03  0.15877059560E+03  0.00000000000E+00 0. -1.
         25    2    1    2    0    0  0.89408416628E+02 -0.21339738746E+02  0.17810214999E+03  0.23620812306E+03  0.12499860861E+03 0.  0.
          2    1    1    2  501    0 -0.90890004155E+02 -0.42926490662E+02 -0.10803691258E+03  0.14756575123E+03  0.00000000000E+00 0. -1.
          1    1    1    2  502    0  0.14815875278E+01  0.64266229408E+02  0.53719458751E+03  0.54102714183E+03  0.00000000000E+00 0. -1.
         22    1    3    3    0    0  0.12091714204E+02 -0.49305451384E+02  0.13315730411E+03  0.14250650766E+03  0.00000000000E+00 0.  1.
         22    1    3    3    0    0  0.77316702424E+02  0.27965712638E+02  0.44944845883E+02  0.93701615399E+02  0.00000000000E+00 0.  1.
</event>
<event>
 7    1  0.6278987E-006  0.1229951E+03  0.7818608E-02  0.1318753E+00
          2   -1    0    0  502    0  0.00000000000E+00  0.00000000000E+00  0.14773755839E+03  0.14773755839E+03  0.00000000000E+00 0. -1.
          1   -1    0    0  501    0 -0.00000000000E+00 -0.00000000000E+00 -0.89808684951E+03  0.89808684951E+03  0.00000000000E+00 0. -1.
         25    2    1    2    0    0  0.76786407541E+02 -0.85994894906E+02 -0.27768203325E+02  0.17230151890E+03  0.12500186385E+03 0.  0.
          2    1    1    2  501    0 -0.31273077182E+02  0.12033968491E+03 -0.78161898232E+03  0.79144669981E+03  0.00000000000E+00 0. -1.
          1    1    1    2  502    0 -0.45513330359E+02 -0.34344790007E+02  0.59037894528E+02  0.82076189186E+02  0.00000000000E+00 0. -1.
         22    1    3    3    0    0  0.92638236089E+02 -0.31364298802E+02 -0.51654165190E+02  0.11060612463E+03  0.00000000000E+00 0.  1.
         22    1    3    3    0    0 -0.15851828548E+02 -0.54630596104E+02  0.23885961866E+02  0.61695394263E+02  0.00000000000E+00 0.  1.
</event>
<event>
 7    1  0.6278987E-006  0.8373536E+02  0.7818608E-02  0.1331119E+00
          2   -1    0    0  502    0  0.00000000000E+00  0.00000000000E+00  0.17793483424E+04  0.17793483424E+04  0.00000000000E+00 0. -1.
          1   -1    0    0  501    0 -0.00000000000E+00 -0.00000000000E+00 -0.69518714662E+02  0.69518714662E+02  0.00000000000E+00 0. -1.
         25    2    1    2    0    0  0.55366482591E+02  0.24342167430E+02  0.13303588751E+03  0.19228042458E+03  0.12496089709E+03 0.  0.
          2    1    1    2  501    0 -0.44155817320E+02  0.60690856690E+02 -0.23738196303E+01  0.75091619430E+02  0.00000000000E+00 0. -1.
          1    1    1    2  502    0 -0.11210665271E+02 -0.85033024120E+02  0.15791675599E+04  0.15814950131E+04  0.00000000000E+00 0. -1.
         22    1    3    3    0    0  0.23193638084E+02 -0.18159154854E+01 -0.21864362378E+02  0.31926364321E+02  0.00000000000E+00 0.  1.
         22    1    3    3    0    0  0.32172844508E+02  0.26158082916E+02  0.15490024989E+03  0.16035406026E+03  0.00000000000E+00 0.  1.
</event>
<event>
 7    1  0.6278987E-006  0.7410715E+02  0.7818608E-02  0.1403442E+00
          2   -1    0    0  502    0  0.00000000000E+00  0.00000000000E+00  0.14949123870E+03  0.14949123870E+03  0.00000000000E+00 0. -1.
          1   -1    0    0  501    0 -0.00000000000E+00 -0.00000000000E+00 -0.23910821910E+03  0.23910821910E+03  0.00000000000E+00 0. -1.
         25    2    1    2    0    0  0.91983315225E+01  0.90681408298E+02 -0.77137150260E+02  0.17286522884E+03  0.12499808110E+03 0.  0.
          2    1    1    2  501    0  0.29989512324E+02 -0.65706833468E+02 -0.96012213595E+02  0.12014617752E+03  0.00000000000E+00 0. -1.
          1    1    1    2  502    0 -0.39187843847E+02 -0.24974574831E+02  0.83532383450E+02  0.95588051440E+02  0.00000000000E+00 0. -1.
         22    1    3    3    0    0  0.40701936930E+02  0.61130590647E+02  0.11431257260E+02  0.74325435924E+02  0.00000000000E+00 0. -1.
         22    1    3    3    0    0 -0.31503605408E+02  0.29550817651E+02 -0.88568407520E+02  0.98539792917E+02  0.00000000000E+00 0. -1.
</event>
<event>
 7    1  0.6278987E-006  0.4783409E+02  0.7818608E-02  0.1551258E+00
          2   -1    0    0  502    0  0.00000000000E+00  0.00000000000E+00  0.15907975027E+03  0.15907975027E+03  0.00000000000E+00 0. -1.
          1   -1    0    0  501    0 -0.00000000000E+00 -0.00000000000E+00 -0.27510761310E+03  0.27510761310E+03  0.00000000000E+00 0. -1.
         25    2    1    2    0    0 -0.89154107361E+00 -0.52610093377E+02 -0.38198625862E+02  0.14090138485E+03  0.12500179385E+03 0.  0.
          2    1    1    2  501    0 -0.22155388419E+02  0.42477573309E+02 -0.18092511471E+03  0.18716063316E+03  0.00000000000E+00 0. -1.
          1    1    1    2  502    0  0.23046929493E+02  0.10132520069E+02  0.10309587774E+03  0.10612534537E+03  0.00000000000E+00 0. -1.
         22    1    3    3    0    0 -0.52817633468E+02  0.68007027546E+01 -0.38961755906E-01  0.53253671058E+02  0.00000000000E+00 0.  1.
         22    1    3    3    0    0  0.51926092395E+02 -0.59410796132E+02 -0.38159664106E+02  0.87647713793E+02  0.00000000000E+00 0.  1.
</event>
<event>
 7    1  0.6278987E-006  0.2586744E+03  0.7818608E-02  0.1210345E+00
          2   -1    0    0  502    0  0.00000000000E+00  0.00000000000E+00  0.15108620927E+04  0.15108620927E+04  0.00000000000E+00 0. -1.
          1   -1    0    0  501    0 -0.00000000000E+00 -0.00000000000E+00 -0.50551787290E+03  0.50551787290E+03  0.00000000000E+00 0. -1.
         25    2    1    2    0    0 -0.25738937284E+03 -0.71037850866E+02 -0.20477859042E+03  0.35896450978E+03  0.12500233071E+03 0.  0.
          2    1    1    2  501    0  0.25623499562E+03 -0.71693614233E+01 -0.14869994419E+03  0.29634345973E+03  0.00000000000E+00 0. -1.
          1    1    1    2  502    0  0.11543772207E+01  0.78207212289E+02  0.13588227544E+04  0.13610719961E+04  0.00000000000E+00 0. -1.
         22    1    3    3    0    0  0.85357702203E+01  0.11730422796E+02 -0.24305339175E+01  0.14709510099E+02  0.00000000000E+00 0.  1.
         22    1    3    3    0    0 -0.26592514306E+03 -0.82768273662E+02 -0.20234805650E+03  0.34425499968E+03  0.00000000000E+00 0.  1.
</event>
<event>
 7    1  0.6278987E-006  0.5406092E+02  0.7818608E-02  0.1448794E+00
          2   -1    0    0  502    0  0.00000000000E+00  0.00000000000E+00  0.43556775732E+03  0.43556775732E+03  0.00000000000E+00 0. -1.
          1   -1    0    0  501    0 -0.00000000000E+00 -0.00000000000E+00 -0.12659671431E+04  0.12659671431E+04  0.00000000000E+00 0. -1.
         25    2    1    2    0    0  0.96836931808E+02 -0.12816381050E+02  0.19618878951E+03  0.25229310644E+03  0.12498047626E+03 0.  0.
          2    1    1    2  501    0 -0.51813252856E+02  0.15030255719E+02 -0.12349154341E+04  0.12360933019E+04  0.00000000000E+00 0. -1.
          1    1    1    2  502    0 -0.45023678952E+02 -0.22138746699E+01  0.20832725879E+03  0.21314849205E+03  0.00000000000E+00 0. -1.
         22    1    3    3    0    0  0.58249687613E+02  0.51808340977E+02  0.13233025214E+03  0.15358523996E+03  0.00000000000E+00 0. -1.
         22    1    3    3    0    0  0.38587244195E+02 -0.64624722026E+02  0.63858537364E+02  0.98707866484E+02  0.00000000000E+00 0. -1.
</event>
<event>
 7    1  0.6278987E-006  0.1133854E+03  0.7818608E-02  0.1288547E+00
          2   -1    0    0  502    0  0.00000000000E+00  0.00000000000E+00  0.10161409626E+04  0.10161409626E+04  0.00000000000E+00 0. -1.
          1   -1    0    0  501    0 -0.00000000000E+00 -0.00000000000E+00 -0.11389634205E+04  0.11389634205E+04  0.00000000000E+00 0. -1.
         25    2    1    2    0    0 -0.84472157459E+02 -0.21766370124E+02 -0.39919121556E+03  0.42730389537E+03  0.12500268862E+03 0.  0.
          2    1    1    2  501    0  0.11968389317E+03 -0.51823384735E+02 -0.71817249536E+03  0.72991892055E+03  0.00000000000E+00 0. -1.
          1    1    1    2  502    0 -0.35211735712E+02  0.73589754859E+02  0.99454125296E+03  0.99788156722E+03  0.00000000000E+00 0. -1.
         22    1    3    3    0    0  0.23934562962E+02  0.13993906901E+02 -0.29918628692E+02  0.40789913917E+02  0.00000000000E+00 0. -1.
         22    1    3    3    0    0 -0.10840672042E+03 -0.35760277025E+02 -0.36927258687E+03  0.38651398145E+03  0.00000000000E+00 0. -1.
</event>
<event>
 7    1  0.6278987E-006  0.7115032E+02  0.7818608E-02  0.1463013E+00
          2   -1    0    0  502    0  0.00000000000E+00  0.00000000000E+00  0.13671986616E+04  0.13671986616E+04  0.00000000000E+00 0. -1.
          1   -1    0    0  501    0 -0.00000000000E+00 -0.00000000000E+00 -0.11859055870E+04  0.11859055870E+04  0.00000000000E+00 0. -1.
         25    2    1    2    0    0 -0.30535811798E+02 -0.46247233973E+02 -0.28982147032E+03  0.32045326017E+03  0.12499025898E+03 0.  0.
          2    1    1    2  501    0  0.60868336444E+02  0.40504687636E+02 -0.87907416952E+03  0.88210939210E+03  0.00000000000E+00 0. -1.
          1    1    1    2  502    0 -0.30332524646E+02  0.57425463370E+01  0.13501887145E+04  0.13505415964E+04  0.00000000000E+00 0. -1.
         22    1    3    3    0    0 -0.79085947590E+02 -0.23395154742E+02 -0.16075670565E+03  0.18067827424E+03  0.00000000000E+00 0.  1.
         22    1    3    3    0    0  0.48550135793E+02 -0.22852079231E+02 -0.12906476467E+03  0.13977498592E+03  0.00000000000E+00 0.  1.
</event>
<event>
 7    1  0.6278987E-006  0.2099710E+03  0.7818608E-02  0.1192888E+00
          2   -1    0    0  502    0  0.00000000000E+00  0.00000000000E+00  0.27135089248E+03  0.27135089248E+03  0.00000000000E+00 0. -1.
          1   -1    0    0  501    0 -0.00000000000E+00 -0.00000000000E+00 -0.10333794045E+04  0.10333794045E+04  0.00000000000E+00 0. -1.
         25    2    1    2    0    0  0.11678454470E+03  0.35323172176E+02 -0.99698816162E+02  0.20112657561E+03  0.12500275637E+03 0.  0.
          2    1    1    2  501    0 -0.22841437145E+03 -0.68350143092E+02 -0.84997487085E+03  0.88278091745E+03  0.00000000000E+00 0. -1.
          1    1    1    2  502    0  0.11162982675E+03  0.33026970916E+02  0.18764517500E+03  0.22082280391E+03  0.00000000000E+00 0. -1.
         22    1    3    3    0    0 -0.69700388460E+01  0.47641275465E+02 -0.42561332346E+02  0.64263049885E+02  0.00000000000E+00 0.  1.
         22    1    3    3    0    0  0.12375458355E+03 -0.12318103289E+02 -0.57137483816E+02  0.13686352573E+03  0.00000000000E+00 0.  1.
</event>
<event>
 7    1  0.6278987E-006  0.5639593E+02  0.7818608E-02  0.1559911E+00
          2   -1    0    0  502    0  0.00000000000E+00  0.00000000000E+00  0.70734029391E+03  0.70734029391E+03  0.00000000000E+00 0. -1.
          1   -1    0    0  501    0 -0.00000000000E+00 -0.00000000000E+00 -0.11342892623E+04  0.11342892623E+04  0.00000000000E+00 0. -1.
         25    2    1    2    0    0  0.31704686407E+02 -0.38067076394E+02  0.11028565802E+03  0.17390314896E+03  0.12500035763E+03 0.  0.
          2    1    1    2  501    0 -0.18471547688E+02  0.53339125708E+02 -0.11015770384E+04  0.11030223171E+04  0.00000000000E+00 0. -1.
          1    1    1    2  502    0 -0.13233138719E+02 -0.15272049314E+02  0.56434241202E+03  0.56470409017E+03  0.00000000000E+00 0. -1.
         22    1    3    3    0    0 -0.20904874405E+01  0.32800625610E+02  0.85453752782E+02  0.91556512836E+02  0.00000000000E+00 0. -1.
         22    1    3    3    0    0  0.33795173847E+02 -0.70867702004E+02  0.24831905238E+02  0.82346636121E+02  0.00000000000E+00 0. -1.
</event>
<event>
 7    1  0.6278987E-006  0.1021570E+03  0.7818608E-02  0.1294304E+00
          2   -1    0    0  502    0  0.00000000000E+00  0.00000000000E+00  0.69845329442E+03  0.69845329442E+03  0.00000000000E+00 0. -1.
          1   -1    0    0  501    0 -0.00000000000E+00 -0.00000000000E+00 -0.74156775347E+03  0.74156775347E+03  0.00000000000E+00 0. -1.
         25    2    1    2    0    0 -0.82255177970E+02  0.15409703053E+03 -0.32781875589E+03  0.39192003699E+03  0.12499747822E+03 0.  0.
          2    1    1    2  501    0  0.51586865462E+02 -0.73960066794E+02 -0.37354904737E+03  0.38427878807E+03  0.00000000000E+00 0. -1.
          1    1    1    2  502    0  0.30668312508E+02 -0.80136963733E+02  0.65825334421E+03  0.66382222282E+03  0.00000000000E+00 0. -1.
         22    1    3    3    0    0 -0.45221470441E+02  0.14983169906E+03 -0.31629987311E+03  0.35290243575E+03  0.00000000000E+00 0. -1.
         22    1    3    3    0    0 -0.37033707529E+02  0.42653314717E+01 -0.11518882783E+02  0.39017601239E+02  0.00000000000E+00 0. -1.
</event>
<event>
 7    1  0.6278987E-006  0.8223329E+02  0.7818608E-02  0.1442107E+00
          2   -1    0    0  502    0  0.00000000000E+00  0.00000000000E+00  0.35533573465E+03  0.35533573465E+03  0.00000000000E+00 0. -1.
          1   -1    0    0  501    0 -0.00000000000E+00 -0.00000000000E+00 -0.19645895194E+03  0.19645895194E+03  0.00000000000E+00 0. -1.
         25    2    1    2    0    0  0.85171861241E+02 -0.66538775771E+02  0.95276551084E+02  0.19075128080E+03  0.12500710105E+03 0.  0.
          2    1    1    2  501    0 -0.18878742717E+02  0.24766269402E+02 -0.13971929548E+03  0.14314767395E+03  0.00000000000E+00 0. -1.
          1    1    1    2  502    0 -0.66293118524E+02  0.41772506369E+02  0.20331952710E+03  0.21789573184E+03  0.00000000000E+00 0. -1.
         22    1    3    3    0    0 -0.27648843085E+02 -0.27815990131E+02  0.18957860151E+01  0.39265529864E+02  0.00000000000E+00 0.  1.
         22    1    3    3    0    0  0.11282070433E+03 -0.38722785640E+02  0.93380765069E+02  0.15148575094E+03  0.00000000000E+00 0.  1.
</event>
<event>
 7    1  0.6278987E-006  0.6501539E+02  0.7818608E-02  0.1407990E+00
          2   -1    0    0  502    0  0.00000000000E+00  0.00000000000E+00  0.88863916038E+03  0.88863916038E+03  0.00000000000E+00 0. -1.
          1   -1    0    0  501    0 -0.00000000000E+00 -0.00000000000E+00 -0.59728051406E+03  0.59728051406E+03  0.00000000000E+00 0. -1.
         25    2    1    2    0    0 -0.19183920621E+02  0.32384606122E+01 -0.64629013805E+02  0.14206001527E+03  0.12500251228E+03 0.  0.
          2    1    1    2  501    0 -0.26947133741E+02  0.43428897722E+02 -0.49134191347E+03  0.49399300917E+03  0.00000000000E+00 0. -1.
          1    1    1    2  502    0  0.46131054363E+02 -0.46667358334E+02  0.84732957359E+03  0.84986665000E+03  0.00000000000E+00 0. -1.
         22    1    3    3    0    0  0.15385173933E+02 -0.42271625854E+00 -0.94793462283E+02  0.96034799721E+02  0.00000000000E+00 0. -1.
         22    1    3    3    0    0 -0.34569094554E+02  0.36611768708E+01  0.30164448477E+02  0.46025215549E+02  0.00000000000E+00 0. -1.
</event>
<event>
 7    1  0.6278987E-006  0.3684217E+02  0.7818608E-02  0.1543341E+00
          2   -1    0    0  502    0  0.00000000000E+00  0.00000000000E+00  0.16447680475E+04  0.16447680475E+04  0.00000000000E+00 0. -1.
          1   -1    0    0  501    0 -0.00000000000E+00 -0.00000000000E+00 -0.11069091290E+03  0.11069091290E+03  0.00000000000E+00 0. -1.
         25    2    1    2    0    0 -0.15649452744E+02 -0.34478175383E+02  0.76305516758E+02  0.15126543582E+03  0.12500020094E+03 0.  0.
          2    1    1    2  501    0 -0.18688978161E+02  0.32446051465E+02 -0.68216800653E+02  0.77817453388E+02  0.00000000000E+00 0. -1.
          1    1    1    2  502    0  0.34338430905E+02  0.20321239180E+01  0.15259884185E+04  0.15263760712E+04  0.00000000000E+00 0. -1.
         22    1    3    3    0    0  0.29974566609E+02 -0.63530720008E+02  0.65626383561E+02  0.96132456785E+02  0.00000000000E+00 0. -1.
         22    1    3    3    0    0 -0.45624019354E+02  0.29052544625E+02  0.10679133197E+02  0.55132979033E+02  0.00000000000E+00 0. -1.
</event>
<event>
 7    1  0.6278987E-006  0.6756348E+02  0.7818608E-02  0.1422543E+00
          2   -1    0    0  502    0  0.00000000000E+00  0.00000000000E+00  0.39619490592E+02  0.39619490592E+02  0.00000000000E+00 0. -1.
          1   -1    0    0  501    0 -0.00000000000E+00 -0.00000000000E+00 -0.17365777687E+04  0.17365777687E+04  0.00000000000E+00 0. -1.
         25    2    1    2    0    0 -0.32242973617E+02  0.10067041989E+03 -0.31193570913E+03  0.35228227928E+03  0.12499909950E+03 0.  0.
          2    1    1    2  501    0  0.33993983102E+02 -0.56764749119E+02 -0.13777963954E+04  0.13793841868E+04  0.00000000000E+00 0. -1.
          1    1    1    2  502    0 -0.17510094854E+01 -0.43905670776E+02 -0.72261735997E+01  0.44530793227E+02  0.00000000000E+00 0. -1.
         22    1    3    3    0    0 -0.73683575461E+02  0.62857183215E+02 -0.13143731656E+03  0.16326684587E+03  0.00000000000E+00 0.  1.
         22    1    3    3    0    0  0.41440601845E+02  0.37813236679E+02 -0.18049839256E+03  0.18901543341E+03  0.00000000000E+00 0.  1.
</event>
<event>
 7    1  0.6278987E-006  0.5128483E+02  0.7818608E-02  0.1462519E+00
          2   -1    0    0  502    0  0.00000000000E+00  0.00000000000E+00  0.35139374658E+03  0.35139374658E+03  0.00000000000E+00 0. -1.
          1   -1    0    0  501    0 -0.00000000000E+00 -0.00000000000E+00 -0.70467927192E+03  0.70467927192E+03  0.00000000000E+00 0. -1.
         25    2    1    2    0    0 -0.29012640710E+02 -0.30749786207E+02 -0.29342027646E+03  0.32172568701E+03  0.12499870549E+03 0.  0.
          2    1    1    2  501    0 -0.72053319516E+01  0.53896886263E+02 -0.39386113141E+03  0.39759700954E+03  0.00000000000E+00 0. -1.
          1    1    1    2  502    0  0.36217972662E+02 -0.23147100056E+02  0.33399588253E+03  0.33675032195E+03  0.00000000000E+00 0. -1.
         22    1    3    3    0    0 -0.39376378937E+02 -0.62653026177E+02 -0.27209170495E+03  0.28197481592E+03  0.00000000000E+00 0.  1.
         22    1    3    3    0    0  0.10363738227E+02  0.31903239969E+02 -0.21328571508E+02  0.39750871099E+02  0.00000000000E+00 0.  1.
</event>
<event>
 7    1  0.6278987E-006  0.2090081E+03  0.7818608E-02  0.1198511E+00
          2   -1    0    0  502    0  0.00000000000E+00  0.00000000000E+00  0.21876049382E+04  0.21876049382E+04  0.00000000000E+00 0. -1.
          1   -1    0    0  501    0 -0.00000000000E+00 -0.00000000000E+00 -0.22872635055E+03  0.22872635055E+03  0.00000000000E+00 0. -1.
         25    2    1    2    0    0 -0.64655356802E+02 -0.20036021740E+03  0.43382873739E+03  0.49815331476E+03  0.12499927894E+03 0.  0.
          2    1    1    2  501    0  0.15767160238E+03  0.14169335779E+03 -0.13706018056E+03  0.25243382289E+03  0.00000000000E+00 0. -1.
          1    1    1    2  502    0 -0.93016245582E+02  0.58666859604E+02  0.16621100308E+04  0.16657441511E+04  0.00000000000E+00 0. -1.
         22    1    3    3    0    0 -0.81372861065E+02 -0.61381505118E+02  0.14560803431E+03  0.17773837892E+03  0.00000000000E+00 0. -1.
         22    1    3    3    0    0  0.16717504263E+02 -0.13897871228E+03  0.28822070309E+03  0.32041493583E+03  0.00000000000E+00 0. -1.
</event>
<event>
 7    1  0.6278987E-006  0.7769830E+02  0.7818608E-02  0.1455901E+00
          2   -1    0    0  502    0  0.00000000000E+00  0.00000000000E+00  0.17972102654E+04  0.17972102654E+04  0.00000000000E+00 0. -1.
          1   -1    0    0  501    0 -0.00000000000E+00 -0.00000000000E+00 -0.11588908561E+04  0.11588908561E+04  0.00000000000E+00 0. -1.
         25    2    1    2    0    0 -0.12525841032E+02 -0.46763377790E+02  0.17395554500E+03  0.21961049009E+03  0.12499810207E+03 0.  0.
          2    1    1    2  501    0  0.25131006407E+02  0.73732605604E+02 -0.11345893416E+04  0.11372603215E+04  0.00000000000E+00 0. -1.
          1    1    1    2  502    0 -0.12605165375E+02 -0.26969227814E+02  0.15989532059E+04  0.15992303099E+04  0.00000000000E+00 0. -1.
         22    1    3    3    0    0  0.19463955590E+02 -0.64873771775E+02  0.16956129859E+03  0.18258829594E+03  0.00000000000E+00 0.  1.
         22    1    3    3    0    0 -0.31989796622E+02  0.18110393985E+02  0.43942464093E+01  0.37022194150E+02  0.00000000000E+00 0.  1.
</event>
<event>
 7    1  0.6278987E-006  0.1012338E+03  0.7818608E-02  0.1287380E+00
          2   -1    0    0  502    0  0.00000000000E+00  0.00000000000E+00  0.12043667974E+04  0.12043667974E+04  0.00000000000E+00 0. -1.
          1   -1    0    0  501    0 -0.00000000000E+00 -0.00000000000E+00 -0.93608875542E+02  0.93608875542E+02  0.00000000000E+00 0. -1.
         25    2    1    2    0    0  0.82111176825E+02  0.16760450390E+03  0.43165164922E+03  0.48660073702E+03  0.12499446349E+03 0.  0.
          2    1    1    2  501    0 -0.47063679396E+02 -0.82130482896E+02 -0.27643429537E+02  0.98613210756E+02  0.00000000000E+00 0. -1.
          1    1    1    2  502    0 -0.35047497428E+02 -0.85474021002E+02  0.70674970219E+03  0.71276172518E+03  0.00000000000E+00 0. -1.
         22    1    3    3    0    0  0.10343062689E+03  0.12961330049E+03  0.39922171560E+03  0.43229096734E+03  0.00000000000E+00 0.  1.
         22    1    3    3    0    0 -0.21319450063E+02  0.37991203404E+02  0.32429933624E+02  0.54309769673E+02  0.00000000000E+00 0.  1.
</event>
<event>
 7    1  0.7678326E-006  0.4563428E+02  0.7818608E-02  0.1479388E+00
          2   -1    0    0  502    0  0.00000000000E+00  0.00000000000E+00  0.99267984491E+03  0.99267984491E+03  0.00000000000E+00 0. -1.
          1   -1    0    0  501    0 -0.00000000000E+00 -0.00000000000E+00 -0.79178120476E+03  0.79178120476E+03  0.00000000000E+00 0. -1.
         25    2    1    2    0    0  0.77885286672E+02  0.22074861104E+02 -0.44036872409E+03  0.46486753871E+03  0.12499519195E+03 0.  0.
          2    1    1    2  501    0 -0.42322509191E+02  0.64677339834E+01 -0.33727885861E+03  0.33998537444E+03  0.00000000000E+00 0. -1.
          1    1    1    2  502    0 -0.35562777481E+02 -0.28542595087E+02  0.97854622286E+03  0.97960813652E+03  0.00000000000E+00 0. -1.
         22    1    3    3    0    0 -0.18054883449E+01  0.18771146970E+02 -0.16190273593E+01  0.18927149715E+02  0.00000000000E+00 0. -1.
         22    1    3    3    0    0  0.79690775017E+02  0.33037141335E+01 -0.43874969673E+03  0.44594038899E+03  0.00000000000E+00 0. -1.
</event>
<event>
 7    1  0.6278987E-006  0.1725912E+03  0.7818608E-02  0.1315424E+00
          2   -1    0    0  502    0  0.00000000000E+00  0.00000000000E+00  0.38738384642E+03  0.38738384642E+03  0.00000000000E+00 0. -1.
          1   -1    0    0  501    0 -0.00000000000E+00 -0.00000000000E+00 -0.16216028675E+04  0.16216028675E+04  0.00000000000E+00 0. -1.
         25    2    1    2    0    0  0.14829989664E+03 -0.11062480883E+03 -0.42906116229E+03  0.48369410546E+03  0.12504318855E+03 0.  0.
          2    1    1    2  501    0 -0.36545373704E+02 -0.20423598576E+02 -0.11442252166E+04  0.11449908446E+04  0.00000000000E+00 0. -1.
          1    1    1    2  502    0 -0.11175452293E+03  0.13104840741E+03  0.33906735784E+03  0.38030176391E+03  0.00000000000E+00 0. -1.
         22    1    3    3    0    0 -0.81381971746E+01 -0.25153694287E+02 -0.99520572991E+01  0.28248575787E+02  0.00000000000E+00 0.  1.
         22    1    3    3    0    0  0.15643809381E+03 -0.85471114545E+02 -0.41910910499E+03  0.45544552967E+03  0.00000000000E+00 0.  1.
</event>
<event>
 7    1  0.6278987E-006  0.6372747E+02  0.7818608E-02  0.1487775E+00
          2   -1    0    0  502    0  0.00000000000E+00  0.00000000000E+00  0.19077071437E+04  0.19077071437E+04  0.00000000000E+00 0. -1.
          1   -1    0    0  501    0 -0.00000000000E+00 -0.00000000000E+00 -0.20439577551E+04  0.20439577551E+04  0.00000000000E+00 0. -1.
         25    2    1    2    0    0 -0.40188087561E+02 -0.78668774320E+02  0.77868762436E+03  0.79358846264E+03  0.12499749307E+03 0.  0.
          2    1    1    2  501    0  0.19690945045E+02  0.21158295055E+02 -0.20355737774E+04  0.20357789688E+04  0.00000000000E+00 0. -1.
          1    1    1    2  502    0  0.20497142516E+02  0.57510479265E+02  0.11206355417E+04  0.11222974674E+04  0.00000000000E+00 0. -1.
         22    1    3    3    0    0  0.22311966603E+02  0.11209365147E+02  0.35869229942E+03  0.35956034179E+03  0.00000000000E+00 0. -1.
         22    1    3    3    0    0 -0.62500054164E+02 -0.89878139466E+02  0.41999532494E+03  0.43402812086E+03  0.00000000000E+00 0. -1.
</event>
<event>
 7    1  0.6278987E-006  0.7995530E+02  0.7818608E-02  0.1465287E+00
          2   -1    0    0  502    0  0.00000000000E+00  0.00000000000E+00  0.29888186420E+03  0.29888186420E+03  0.00000000000E+00 0. -1.
          1   -1    0    0  501    0 -0.00000000000E+00 -0.00000000000E+00 -0.69174150555E+03  0.69174150555E+03  0.00000000000E+00 0. -1.
         25    2    1    2    0    0 -0.75480643343E+02 -0.59893018824E+02 -0.12320155913E+03  0.20021782516E+03  0.12499620841E+03 0.  0.
          2    1    1    2  501    0  0.48553525207E+02  0.62180878547E+02 -0.52638303706E+03  0.53226216113E+03  0.00000000000E+00 0. -1.
          1    1    1    2  502    0  0.26927118136E+02 -0.22878597231E+01  0.25672495483E+03  0.25814338346E+03  0.00000000000E+00 0. -1.
         22    1    3    3    0    0 -0.68463975782E+02  0.24381387055E+02 -0.48407201365E+02  0.87321390040E+02  0.00000000000E+00 0.  1.
         22    1    3    3    0    0 -0.70166675607E+01 -0.84274405878E+02 -0.74794357762E+02  0.11289643512E+03  0.00000000000E+00 0.  1.
</event>
<event>
 7    1  0.6278987E-006  0.3876166E+02  0.7818608E-02  0.1597127E+00
          2   -1    0    0  502    0  0.00000000000E+00  0.00000000000E+00  0.11709321154E+04  0.11709321154E+04  0.00000000000E+00 0. -1.
          1   -1    0    0  501    0 -0.00000000000E+00 -0.00000000000E+00 -0.12439489453E+02  0.12439489453E+02  0.00000000000E+00 0. -1.
         25    2    1    2    0    0  0.34338475548E+02  0.44855945802E+02  0.49544135313E+03  0.51408020619E+03  0.12500054889E+03 0.  0.
          2    1    1    2  501    0 -0.14932743043E+02 -0.31862753938E+02  0.10476034866E+03  0.11051222808E+03  0.00000000000E+00 0. -1.
          1    1    1    2  502    0 -0.19405732505E+02 -0.12993191864E+02  0.55829092413E+03  0.55877917056E+03  0.00000000000E+00 0. -1.
         22    1    3    3    0    0 -0.55081956933E+01  0.53195337269E+02  0.77502190843E+02  0.94163016691E+02  0.00000000000E+00 0.  1.
         22    1    3    3    0    0  0.39846671241E+02 -0.83393914667E+01  0.41793916229E+03  0.41991718949E+03  0.00000000000E+00 0.  1.
</event>
<event>
 7    1  0.6278987E-006  0.1493934E+03  0.7818608E-02  0.1208862E+00
          2   -1    0    0  502    0  0.00000000000E+00  0.00000000000E+00  0.23864199644E+04  0.23864199644E+04  0.00000000000E+00 0. -1.
          1   -1    0    0  501    0 -0.00000000000E+00 -0.00000000000E+00 -0.18011437618E+03  0.18011437618E+03  0.00000000000E+00 0. -1.
         25    2    1    2    0    0 -0.18674621776E+03 -0.13623801365E+03  0.24502138840E+03  0.35929783159E+03  0.12499801918E+03 0.  0.
          2    1    1    2  501    0  0.49175676407E+02  0.13372353351E+03 -0.78597242398E+02  0.16271987303E+03  0.00000000000E+00 0. -1.
          1    1    1    2  502    0  0.13757054135E+03  0.25144801396E+01  0.20398814422E+04  0.20445166359E+04  0.00000000000E+00 0. -1.
         22    1    3    3    0    0 -0.46319004252E+02 -0.83192986743E+02  0.35647984377E+02  0.10167252327E+03  0.00000000000E+00 0. -1.
         22    1    3    3    0    0 -0.14042721351E+03 -0.53045026908E+02  0.20937340402E+03  0.25762530832E+03  0.00000000000E+00 0. -1.
</event>
<event>
 7    1  0.6278987E-006  0.5206815E+02  0.7818608E-02  0.1492250E+00
          2   -1    0    0  502    0  0.00000000000E+00  0.00000000000E+00  0.20412118404E+04  0.20412118404E+04  0.00000000000E+00 0. -1.
          1   -1    0    0  501    0 -0.00000000000E+00 -0.00000000000E+00 -0.73141575390E+02  0.73141575390E+02  0.00000000000E+00 0. -1.
         25    2    1    2    0    0 -0.18949516189E+02 -0.29560491664E+02  0.80289063826E+03  0.81332032096E+03  0.12499464246E+03 0.  0.
          2    1    1    2  501    0 -0.32565190221E+02  0.10737399133E+02 -0.62947969749E+02  0.71681449831E+02  0.00000000000E+00 0. -1.
          1    1    1    2  502    0  0.51514706410E+02  0.18823092531E+02  0.12281275965E+04  0.12293516450E+04  0.00000000000E+00 0. -1.
         22    1    3    3    0    0 -0.44107079289E+02  0.10513285183E+02  0.11226869553E+03  0.12107941033E+03  0.00000000000E+00 0. -1.
         22    1    3    3    0    0  0.25157563101E+02 -0.40073776846E+02  0.69062194273E+03  0.69224091063E+03  0.00000000000E+00 0. -1.
</event>
<event>
 7    1  0.6278987E-006  0.8647928E+02  0.7818608E-02  0.1371689E+00
          2   -1    0    0  502    0  0.00000000000E+00  0.00000000000E+00  0.89887155102E+03  0.89887155102E+03  0.00000000000E+00 0. -1.
          1   -1    0    0  501    0 -0.00000000000E+00 -0.00000000000E+00 -0.12358492208E+04  0.12358492208E+04  0.00000000000E+00 0. -1.
         25    2    1    2    0    0 -0.11024931040E+03 -0.53459987348E+02 -0.67144084086E+03  0.69388072614E+03  0.12499911459E+03 0.  0.
          2    1    1    2  501    0  0.58833646478E+02  0.51740788392E+02 -0.54966282126E+03  0.55521862740E+03  0.00000000000E+00 0. -1.
          1    1    1    2  502    0  0.51415663921E+02  0.17191989557E+01  0.88412599235E+03  0.88562141827E+03  0.00000000000E+00 0. -1.
         22    1    3    3    0    0 -0.32846097799E+02 -0.25624331063E+02 -0.42243713199E+02  0.59329619820E+02  0.00000000000E+00 0. -1.
         22    1    3    3    0    0 -0.77403212600E+02 -0.27835656285E+02 -0.62919712766E+03  0.63455110632E+03  0.00000000000E+00 0. -1.
</event>
<event>
 7    1  0.6278987E-006  0.1056851E+03  0.7818608E-02  0.1442988E+00
          2   -1    0    0  502    0  0.00000000000E+00  0.00000000000E+00  0.15444339619E+04  0.15444339619E+04  0.00000000000E+00 0. -1.
          1   -1    0    0  501    0 -0.00000000000E+00 -0.00000000000E+00 -0.37212833391E+03  0.37212833391E+03  0.00000000000E+00 0. -1.
         25    2    1    2    0    0 -0.59059917336E+02  0.10994251528E+03 -0.10450587966E+03  0.20524026108E+03  0.12500662135E+03 0.  0.
          2    1    1    2  501    0  0.43988457676E+02 -0.91171958984E+02 -0.20536043448E+03  0.22895462118E+03  0.00000000000E+00 0. -1.
          1    1    1    2  502    0  0.15071459661E+02 -0.18770556301E+02  0.14821719422E+04  0.14823674136E+04  0.00000000000E+00 0. -1.
         22    1    3    3    0    0 -0.32745953564E+02  0.13515681837E+03 -0.72984653219E+02  0.15705547628E+03  0.00000000000E+00 0.  1.
         22    1    3    3    0    0 -0.26313963772E+02 -0.25214303081E+02 -0.31521226445E+02  0.48184784797E+02  0.00000000000E+00 0.  1.
</event>
<event>
 7    1  0.6278987E-006  0.4586756E+02  0.7818608E-02  0.1555743E+00
          2   -1    0    0  502    0  0.00000000000E+00  0.00000000000E+00  0.12788276132E+04  0.12788276132E+04  0.00000000000E+00 0. -1.
          1   -1    0    0  501    0 -0.00000000000E+00 -0.00000000000E+00 -0.16030290488E+03  0.16030290488E+03  0.00000000000E+00 0. -1.
         25    2    1    2    0    0  0.18567122993E+02  0.92112573911E+01  0.39050811238E+03  0.41055064666E+03  0.12500264923E+03 0.  0.
          2    1    1    2  501    0 -0.39300060426E+02 -0.24079632711E+02 -0.14655732479E+03  0.15363389246E+03  0.00000000000E+00 0. -1.
          1    1    1    2  502    0  0.20732937433E+02  0.14868375320E+02  0.87457392069E+03  0.87494597892E+03  0.00000000000E+00 0. -1.
         22    1    3    3    0    0 -0.24117103861E+02  0.57331422635E+02  0.18079261813E+03  0.19119230499E+03  0.00000000000E+00 0. -1.
         22    1    3    3    0    0  0.42684226854E+02 -0.48120165243E+02  0.20971549426E+03  0.21935834166E+03  0.00000000000E+00 0. -1.
</event>
<event>
 7    1  0.6278987E-006  0.1728136E+03  0.7818608E-02  0.1181444E+00
          2   -1    0    0  502    0  0.00000000000E+00  0.00000000000E+00  0.11640004771E+04  0.11640004771E+04  0.00000000000E+00 0. -1.
          1   -1    0    0  501    0 -0.00000000000E+00 -0.00000000000E+00 -0.94923550490E+02  0.94923550490E+02  0.00000000000E+00 0. -1.
         25    2    1    2    0    0 -0.64057481568E+02 -0.11397835368E+03  0.15278054409E+03  0.23677218114E+03  0.12499898021E+03 0.  0.
          2    1    1    2  501    0  0.16849937166E+03 -0.38373266348E+02  0.13493260457E+03  0.21925180409E+03  0.00000000000E+00 0. -1.
          1    1    1    2  502    0 -0.10444189009E+03  0.15235162003E+03  0.78136377797E+03  0.80290004238E+03  0.00000000000E+00 0. -1.
         22    1    3    3    0    0 -0.12160834547E+02 -0.12103413045E+03  0.74686709021E+02  0.14274190392E+03  0.00000000000E+00 0. -1.
         22    1    3    3    0    0 -0.51896647021E+02  0.70557767641E+01  0.78093835067E+02  0.94030277216E+02  0.00000000000E+00 0. -1.
</event>
<event>
 7    1  0.6278987E-006  0.5758321E+02  0.7818608E-02  0.1448618E+00
          2   -1    0    0  502    0  0.00000000000E+00  0.00000000000E+00  0.31459322384E+03  0.31459322384E+03  0.00000000000E+00 0. -1.
          1   -1    0    0  501    0 -0.00000000000E+00 -0.00000000000E+00 -0.80535173127E+03  0.80535173127E+03  0.00000000000E+00 0. -1.
         25    2    1    2    0    0 -0.58043763142E+02  0.73277895959E+02 -0.28693273011E+03  0.32663834627E+03  0.12499395655E+03 0.  0.
          2    1    1    2  501    0  0.10706165526E+02 -0.41000832126E+02 -0.49486775007E+03  0.49667874957E+03  0.00000000000E+00 0. -1.
          1    1    1    2  502    0  0.47337597615E+02 -0.32277063833E+02  0.29104197274E+03  0.29662785927E+03  0.00000000000E+00 0. -1.
         22    1    3    3    0    0 -0.58776879174E+02  0.63512771634E+02 -0.29890015362E+03  0.31117502394E+03  0.00000000000E+00 0. -1.
         22    1    3    3    0    0  0.73311603234E+00  0.97651243243E+01  0.11967423514E+02  0.15463322338E+02  0.00000000000E+00 0. -1.
</event>
<event>
 7    1  0.6278987E-006  0.5200646E+02  0.7818608E-02  0.1443144E+00
          2   -1    0    0  502    0  0.00000000000E+00  0.00000000000E+00  0.21991219801E+04  0.21991219801E+04  0.00000000000E+00 0. -1.
          1   -1    0    0  501    0 -0.00000000000E+00 -0.00000000000E+00 -0.23854910398E+03  0.23854910398E+03  0.00000000000E+00 0. -1.
         25    2    1    2    0    0 -0.36104019969E+02 -0.60284669342E+02  0.33160559953E+03  0.36128293106E+03  0.12500136407E+03 0.  0.
          2    1    1    2  501    0  0.47907496768E+02  0.96117888025E+01 -0.22067216389E+03  0.22601707601E+03  0.00000000000E+00 0. -1.
          1    1    1    2  502    0 -0.11803476799E+02  0.50672880539E+02  0.18496394405E+04  0.18503710771E+04  0.00000000000E+00 0. -1.
         22    1    3    3    0    0 -0.30381655865E+02 -0.61102052377E+02  0.34234878033E+03  0.34908336141E+03  0.00000000000E+00 0.  1.
         22    1    3    3    0    0 -0.57223641041E+01  0.81738303519E+00 -0.10743180800E+02  0.12199569651E+02  0.00000000000E+00 0.  1.
</event>
<event>
 7    1  0.6278987E-006  0.4346439E+02  0.7818608E-02  0.1484528E+00
          2   -1    0    0  502    0  0.00000000000E+00  0.00000000000E+00  0.76882780786E+03  0.76882780786E+03  0.00000000000E+00 0. -1.
          1   -1    0    0  501    0 -0.00000000000E+00 -0.00000000000E+00 -0.29201136407E+03  0.29201136407E+03  0.00000000000E+00 0. -1.
         25    2    1    2    0    0 -0.10222091532E+02 -0.58686016416E+01  0.21808629799E+03  0.25163927602E+03  0.12498704022E+03 0.  0.
          2    1    1    2  501    0  0.27932387184E+02 -0.33701856898E+02 -0.27260606378E+03  0.27609798880E+03  0.00000000000E+00 0. -1.
          1    1    1    2  502    0 -0.17710295652E+02  0.39570458540E+02  0.53133620957E+03  0.53310190711E+03  0.00000000000E+00 0. -1.
         22    1    3    3    0    0 -0.52070180403E+02 -0.25253441836E+02  0.18767639832E+03  0.19639620795E+03  0.00000000000E+00 0. -1.
         22    1    3    3    0    0  0.41848088871E+02  0.19384840194E+02  0.30409899673E+02  0.55243068068E+02  0.00000000000E+00 0. -1.
</event>
<event>
 7    1  0.6278987E-006  0.1160701E+03  0.7818608E-02  0.1283916E+00
          2   -1    0    0  502    0  0.00000000000E+00  0.00000000000E+00  0.81600279964E+03  0.81600279964E+03  0.00000000000E+00 0. -1.
          1   -1    0    0  501    0 -0.00000000000E+00 -0.00000000000E+00 -0.10267746622E+03  0.10267746622E+03  0.00000000000E+00 0. -1.
         25    2    1    2    0    0  0.16557184986E+03 -0.53718100358E+02  0.14818273482E+03  0.26053933924E+03  0.12499181021E+03 0.  0.
          2    1    1    2  501    0 -0.10090984108E+03  0.12880625989E+01  0.15346649916E+02  0.10207827778E+03  0.00000000000E+00 0. -1.
          1    1    1    2  502    0 -0.64662008786E+02  0.52430037759E+02  0.54979594869E+03  0.55606264884E+03  0.00000000000E+00 0. -1.
         22    1    3    3    0    0  0.17845268283E+03 -0.70591160056E+02  0.12459660075E+03  0.22880730933E+03  0.00000000000E+00 0. -1.
         22    1    3    3    0    0 -0.12880832966E+02  0.16873059698E+02  0.23586134074E+02  0.31732029907E+02  0.00000000000E+00 0. -1.
</event>
<event>
 7    1  0.6278987E-006  0.6590717E+02  0.7818608E-02  0.1438936E+00
          2   -1    0    0  502    0  0.00000000000E+00  0.00000000000E+00  0.61403367981E+03  0.61403367981E+03  0.00000000000E+00 0. -1.
          1   -1    0    0  501    0 -0.00000000000E+00 -0.00000000000E+00 -0.22420548886E+03  0.22420548886E+03  0.00000000000E+00 0. -1.
         25    2    1    2    0    0  0.10110163190E+03  0.50731214117E+01 -0.87042724523E+02  0.18288990134E+03  0.12500001435E+03 0.  0.
          2    1    1    2  501    0 -0.36537726067E+02 -0.15746343263E+02 -0.82801374508E+02  0.91864140843E+02  0.00000000000E+00 0. -1.
          1    1    1    2  502    0 -0.64563905836E+02  0.10673221851E+02  0.55967228997E+03  0.56348512648E+03  0.00000000000E+00 0. -1.
         22    1    3    3    0    0  0.95699391792E+02 -0.15970250253E+02 -0.40571964008E+01  0.97107586342E+02  0.00000000000E+00 0. -1.
         22    1    3    3    0    0  0.54022401119E+01  0.21043371665E+02 -0.82985528123E+02  0.85782315002E+02  0.00000000000E+00 0. -1.
</event>
<event>
 7    1  0.6278987E-006  0.5554946E+02  0.7818608E-02  0.1497093E+00
          2   -1    0    0  502    0  0.00000000000E+00  0.00000000000E+00  0.67072537165E+03  0.67072537165E+03  0.00000000000E+00 0. -1.
          1   -1    0    0  501    0 -0.00000000000E+00 -0.00000000000E+00 -0.16407063508E+04  0.16407063508E+04  0.00000000000E+00 0. -1.
         25    2    1    2    0    0  0.56624578744E+02  0.83875779810E+01 -0.45423861467E+02  0.14479848377E+03  0.12500631716E+03 0.  0.
          2    1    1    2  501    0 -0.51004292324E+02  0.22181413651E+02 -0.15447054870E+04  0.15457064710E+04  0.00000000000E+00 0. -1.
          1    1    1    2  502    0 -0.56202864206E+01 -0.30568991632E+02  0.62014836931E+03  0.62092676768E+03  0.00000000000E+00 0. -1.
         22    1    3    3    0    0  0.41782526865E+02  0.53707818109E+02  0.13109544626E+02  0.69297687101E+02  0.00000000000E+00 0. -1.
         22    1    3    3    0    0  0.14842051880E+02 -0.45320240128E+02 -0.58533406093E+02  0.75500796672E+02  0.00000000000E+00 0. -1.
</event>
<event>
 7    1  0.6278987E-006  0.7536102E+02  0.7818608E-02  0.1412905E+00
          2   -1    0    0  502    0  0.00000000000E+00  0.00000000000E+00  0.56580656625E+03  0.56580656625E+03  0.00000000000E+00 0. -1.
          1   -1    0    0  501    0 -0.00000000000E+00 -0.00000000000E+00 -0.12158927204E+04  0.12158927204E+04  0.00000000000E+00 0. -1.
         25    2    1    2    0    0  0.21535932313E+02  0.83422072590E+02  0.11037683279E+03  0.18770678986E+03  0.12501102018E+03 0.  0.
          2    1    1    2  501    0 -0.52334026008E+02 -0.54228930395E+02 -0.11749371452E+04  0.11773516562E+04  0.00000000000E+00 0. -1.
          1    1    1    2  502    0  0.30798093695E+02 -0.29193142195E+02  0.41447415830E+03  0.41664084056E+03  0.00000000000E+00 0. -1.
         22    1    3    3    0    0  0.25797398339E+02 -0.14713734244E+02 -0.10903874689E+02  0.31636912297E+02  0.00000000000E+00 0.  1.
         22    1    3    3    0    0 -0.42614660255E+01  0.98135806834E+02  0.12128070748E+03  0.15606987756E+03  0.00000000000E+00 0.  1.
</event>
<event>
 7    1  0.6278987E-006  0.5670109E+02  0.7818608E-02  0.1422389E+00
          2   -1    0    0  502    0  0.00000000000E+00  0.00000000000E+00  0.18477216415E+03  0.18477216415E+03  0.00000000000E+00 0. -1.
          1   -1    0    0  501    0 -0.00000000000E+00 -0.00000000000E+00 -0.25405040475E+03  0.25405040475E+03  0.00000000000E+00 0. -1.
         25    2    1    2    0    0 -0.52207283930E+02  0.31901693963E+02 -0.57964249551E+02  0.15074022316E+03  0.12497776634E+03 0.  0.
          2    1    1    2  501    0  0.69855051204E+01 -0.58413688851E+02 -0.13852199390E+03  0.15049684090E+03  0.00000000000E+00 0. -1.
          1    1    1    2  502    0  0.45221778810E+02  0.26511994888E+02  0.12720800285E+03  0.13758550483E+03  0.00000000000E+00 0. -1.
         22    1    3    3    0    0 -0.73576804685E+02  0.33284793800E+02  0.82249771038E+01  0.81173110907E+02  0.00000000000E+00 0. -1.
         22    1    3    3    0    0  0.21369520755E+02 -0.13830998368E+01 -0.66189226655E+02  0.69567112256E+02  0.00000000000E+00 0. -1.
</event>
<event>
 7    1  0.6278987E-006  0.1078251E+03  0.7818608E-02  0.1268634E+00
          2   -1    0    0  502    0  0.00000000000E+00  0.00000000000E+00  0.19725866870E+03  0.19725866870E+03  0.00000000000E+00 0. -1.
          1   -1    0    0  501    0 -0.00000000000E+00 -0.00000000000E+00 -0.43311968211E+04  0.43311968211E+04  0.00000000000E+00 0. -1.
         25    2    1    2    0    0  0.63415529688E+01  0.19835731393E+02 -0.64620579351E+02  0.14224206112E+03  0.12499325239E+03 0.  0.
          2    1    1    2  501    0 -0.43516935203E+02  0.98653610311E+02 -0.42026348588E+04  0.42040178419E+04  0.00000000000E+00 0. -1.
          1    1    1    2  502    0  0.37175382234E+02 -0.11848934170E+03  0.13331728579E+03  0.18219558675E+03  0.00000000000E+00 0. -1.
         22    1    3    3    0    0  0.36000984404E+02  0.20746160466E+02 -0.92576705848E+02  0.10147374300E+03  0.00000000000E+00 0.  1.
         22    1    3    3    0    0 -0.29659431435E+02 -0.91042907271E+00  0.27956126497E+02  0.40768318126E+02  0.00000000000E+00 0.  1.
</event>
<event>
 7    1  0.6278987E-006  0.1758243E+03  0.7818608E-02  0.1234276E+00
          2   -1    0    0  502    0  0.00000000000E+00  0.00000000000E+00  0.66218812554E+03  0.66218812554E+03  0.00000000000E+00 0. -1.
          1   -1    0    0  501    0 -0.00000000000E+00 -0.00000000000E+00 -0.70868794429E+03  0.70868794429E+03  0.00000000000E+00 0. -1.
         25    2    1    2    0    0  0.58084234607E+02 -0.15638653203E+03  0.41804548503E+02  0.21261136441E+03  0.12500178514E+03 0.  0.
          2    1    1    2  501    0  0.29248739552E+02  0.17638176646E+03 -0.60653967965E+03  0.63234199552E+03  0.00000000000E+00 0. -1.
          1    1    1    2  502    0 -0.87332974159E+02 -0.19995234433E+02  0.51823531240E+03  0.52592270990E+03  0.00000000000E+00 0. -1.
         22    1    3    3    0    0  0.23588103906E+02 -0.19973884638E+02  0.63136925183E+02  0.70296700029E+02  0.00000000000E+00 0. -1.
         22    1    3    3    0    0  0.34496130701E+02 -0.13641264739E+03 -0.21332376680E+02  0.14231466438E+03  0.00000000000E+00 0. -1.
</event>
<event>
 7    1  0.6278987E-006  0.4665052E+02  0.7818608E-02  0.1488548E+00
          2   -1    0    0  502    0  0.00000000000E+00  0.00000000000E+00  0.39698458912E+03  0.39698458912E+03  0.00000000000E+00 0. -1.
          1   -1    0    0  501    0 -0.00000000000E+00 -0.00000000000E+00 -0.24129178310E+04  0.24129178310E+04  0.00000000000E+00 0. -1.
         25    2    1    2    0    0  0.20461870886E+02 -0.15052639359E+02  0.16950077674E+03  0.21213119043E+03  0.12499543402E+03 0.  0.
          2    1    1    2  501    0  0.29336362847E+02  0.26107585064E+02 -0.23882834491E+04  0.23886063011E+04  0.00000000000E+00 0. -1.
          1    1    1    2  502    0 -0.49798233733E+02 -0.11054945706E+02  0.20284943051E+03  0.20916492862E+03  0.00000000000E+00 0. -1.
         22    1    3    3    0    0  0.72803369308E+02 -0.53890869321E+01  0.11280082154E+03  0.13436293455E+03  0.00000000000E+00 0.  1.
         22    1    3    3    0    0 -0.52341498423E+02 -0.96635524265E+01  0.56699955195E+02  0.77768255874E+02  0.00000000000E+00 0.  1.
</event>
<event>
 7    1  0.6278987E-006  0.1347557E+03  0.7818608E-02  0.1389966E+00
          2   -1    0    0  502    0  0.00000000000E+00  0.00000000000E+00  0.67799535800E+03  0.67799535800E+03  0.00000000000E+00 0. -1.
          1   -1    0    0  501    0 -0.00000000000E+00 -0.00000000000E+00 -0.33827117195E+03  0.33827117195E+03  0.00000000000E+00 0. -1.
         25    2    1    2    0    0 -0.14950206236E+03 -0.62942335800E+02 -0.15042972207E+03  0.25409704884E+03  0.12499441852E+03 0.  0.
          2    1    1    2  501    0  0.25833079685E+02  0.11913184518E+02 -0.12727365027E+03  0.13041416343E+03  0.00000000000E+00 0. -1.
          1    1    1    2  502    0  0.12366898268E+03  0.51029151282E+02  0.61742755839E+03  0.63175531768E+03  0.00000000000E+00 0. -1.
         22    1    3    3    0    0 -0.16435338355E+03 -0.31261915319E+02 -0.10813045873E+03  0.19920225436E+03  0.00000000000E+00 0.  1.
         22    1    3    3    0    0  0.14851321191E+02 -0.31680420481E+02 -0.42299263334E+02  0.54894794485E+02  0.00000000000E+00 0.  1.
</event>
<event>
 7    1  0.6278987E-006  0.1185004E+03  0.7818608E-02  0.1423636E+00
          2   -1    0    0  502    0  0.00000000000E+00  0.00000000000E+00  0.14424699720E+04  0.14424699720E+04  0.00000000000E+00 0. -1.
          1   -1    0    0  501    0 -0.00000000000E+00 -0.00000000000E+00 -0.18321752673E+03  0.18321752673E+03  0.00000000000E+00 0. -1.
         25    2    1    2    0    0  0.70573732224E+02 -0.77407147142E+02  0.17008450213E+02  0.16397264629E+03  0.12500089297E+03 0.  0.
          2    1    1    2  501    0 -0.76294703254E+01 -0.23643550683E+02 -0.10567119255E+03  0.10855241702E+03  0.00000000000E+00 0. -1.
          1    1    1    2  502    0 -0.62944261898E+02  0.10105069782E+03  0.13479151876E+04  0.13531624354E+04  0.00000000000E+00 0. -1.
         22    1    3    3    0    0  0.10062737648E+02  0.34414599737E+02  0.59807273962E+01  0.36350962356E+02  0.00000000000E+00 0.  1.
         22    1    3    3    0    0  0.60510994576E+02 -0.11182174688E+03  0.11027722817E+02  0.12762168393E+03  0.00000000000E+00 0.  1.
</event>
<event>
 7    1  0.6278987E-006  0.7827859E+02  0.7818608E-02  0.1451252E+00
          2   -1    0    0  502    0  0.00000000000E+00  0.00000000000E+00  0.12032030998E+03  0.12032030998E+03  0.00000000000E+00 0. -1.
          1   -1    0    0  501    0 -0.00000000000E+00 -0.00000000000E+00 -0.19635977364E+04  0.19635977364E+04  0.00000000000E+00 0. -1.
         25    2    1    2    0    0 -0.23704343637E+02  0.51576556492E+02 -0.11124431653E+03  0.17670006165E+03  0.12500230694E+03 0.  0.
          2    1    1    2  501    0  0.53615612877E+02 -0.57903558796E+02 -0.18160745316E+04  0.18177882606E+04  0.00000000000E+00 0. -1.
          1    1    1    2  502    0 -0.29911269241E+02  0.63270023035E+01  0.84041421730E+02  0.89429724097E+02  0.00000000000E+00 0. -1.
         22    1    3    3    0    0 -0.66143919931E+02  0.54288240111E+02 -0.10207371315E+03  0.13319637410E+03  0.00000000000E+00 0.  1.
         22    1    3    3    0    0  0.42439576294E+02 -0.27116836183E+01 -0.91706033828E+01  0.43503687551E+02  0.00000000000E+00 0.  1.
</event>
<event>
 7    1  0.6278987E-006  0.5559840E+02  0.7818608E-02  0.1527469E+00
          2   -1    0    0  502    0  0.00000000000E+00  0.00000000000E+00  0.85130442420E+03  0.85130442420E+03  0.00000000000E+00 0. -1.
          1   -1    0    0  501    0 -0.00000000000E+00 -0.00000000000E+00 -0.43906441538E+03  0.43906441538E+03  0.00000000000E+00 0. -1.
         25    2    1    2    0    0 -0.35582160420E+02 -0.65359669699E+02 -0.12191138406E+03  0.18980188475E+03  0.12499757329E+03 0.  0.
          2    1    1    2  501    0  0.13789788048E+02  0.52524674351E+02 -0.28040649435E+03  0.28561652919E+03  0.00000000000E+00 0. -1.
          1    1    1    2  502    0  0.21792372372E+02  0.12834995348E+02  0.81455788724E+03  0.81495042564E+03  0.00000000000E+00 0. -1.
         22    1    3    3    0    0 -0.39625879029E+02 -0.10095111682E+03 -0.10168897384E+03  0.14866736587E+03  0.00000000000E+00 0. -1.
         22    1    3    3    0    0  0.40437186097E+01  0.35591447118E+02 -0.20222410228E+02  0.41134518881E+02  0.00000000000E+00 0. -1.
</event>
<event>
 7    1  0.6278987E-006  0.2001970E+03  0.7818608E-02  0.1332468E+00
          2   -1    0    0  502    0  0.00000000000E+00  0.00000000000E+00  0.74234393647E+03  0.74234393647E+03  0.00000000000E+00 0. -1.
          1   -1    0    0  501    0 -0.00000000000E+00 -0.00000000000E+00 -0.19272164001E+03  0.19272164001E+03  0.00000000000E+00 0. -1.
         25    2    1    2    0    0 -0.11778627126E+03 -0.12916206287E+03  0.59423527613E+02  0.22295995045E+03  0.12499415862E+03 0.  0.
          2    1    1    2  501    0 -0.18444082408E+02 -0.24944965163E+02 -0.90703858825E+02  0.95862534228E+02  0.00000000000E+00 0. -1.
          1    1    1    2  502    0  0.13623035367E+03  0.15410702803E+03  0.58090262767E+03  0.61624309180E+03  0.00000000000E+00 0. -1.
         22    1    3    3    0    0  0.29853810586E+01 -0.20751032447E+02 -0.30812696471E+02  0.37268486842E+02  0.00000000000E+00 0. -1.
         22    1    3    3    0    0 -0.12077165232E+03 -0.10841103042E+03  0.90236224084E+02  0.18569146361E+03  0.00000000000E+00 0. -1.
</event>
<event>
 7    1  0.6278987E-006  0.3951966E+02  0.7818608E-02  0.1535657E+00
          2   -1    0    0  502    0  0.00000000000E+00  0.00000000000E+00  0.53131220360E+03  0.53131220360E+03  0.00000000000E+00 0. -1.
          1   -1    0    0  501    0 -0.00000000000E+00 -0.00000000000E+00 -0.11996846022E+04  0.11996846022E+04  0.00000000000E+00 0. -1.
         25    2    1    2    0    0  0.10146400705E+02 -0.17565740048E+02 -0.56090932443E+03  0.57502908976E+03  0.12501071620E+03 0.  0.
          2    1    1    2  501    0  0.15768141610E+02  0.39130947518E+02 -0.63046766132E+03  0.63187762843E+03  0.00000000000E+00 0. -1.
          1    1    1    2  502    0 -0.25914542316E+02 -0.21565207470E+02  0.52300458718E+03  0.52409008757E+03  0.00000000000E+00 0. -1.
         22    1    3    3    0    0  0.37588384734E+02  0.31777396697E+01 -0.48387767338E+02  0.61354386349E+02  0.00000000000E+00 0. -1.
         22    1    3    3    0    0 -0.27441984029E+02 -0.20743479718E+02 -0.51252155709E+03  0.51367470341E+03  0.00000000000E+00 0. -1.
</event>
<event>
 7    1  0.6278987E-006  0.1467706E+03  0.7818608E-02  0.1404950E+00
          2   -1    0    0  502    0  0.00000000000E+00  0.00000000000E+00  0.82723688934E+02  0.82723688934E+02  0.00000000000E+00 0. -1.
          1   -1    0    0  501    0 -0.00000000000E+00 -0.00000000000E+00 -0.16391460040E+04  0.16391460040E+04  0.00000000000E+00 0. -1.
         25    2    1    2    0    0 -0.63149294610E+02  0.14469405162E+03 -0.16834663786E+03  0.26246975549E+03  0.12500232031E+03 0.  0.
          2    1    1    2  501    0 -0.52465896794E+01 -0.22585108058E+02 -0.12859090051E+04  0.12861180285E+04  0.00000000000E+00 0. -1.
          1    1    1    2  502    0  0.68395884289E+02 -0.12210894356E+03 -0.10216667212E+03  0.17328190898E+03  0.00000000000E+00 0. -1.
         22    1    3    3    0    0 -0.61702230026E+02  0.12696499288E+02 -0.87001616315E+02  0.10741344202E+03  0.00000000000E+00 0. -1.
         22    1    3    3    0    0 -0.14470645835E+01  0.13199755233E+03 -0.81345021545E+02  0.15505631347E+03  0.00000000000E+00 0. -1.
</event>
<event>
 7    1  0.6278987E-006  0.7005798E+02  0.7818608E-02  0.1457559E+00
          2   -1    0    0  502    0  0.00000000000E+00  0.00000000000E+00  0.13308975417E+04  0.13308975417E+04  0.00000000000E+00 0. -1.
          1   -1    0    0  501    0 -0.00000000000E+00 -0.00000000000E+00 -0.24572154207E+03  0.24572154207E+03  0.00000000000E+00 0. -1.
         25    2    1    2    0    0 -0.28702927617E+02  0.83368068075E+02 -0.13503041418E+03  0.20403837227E+03  0.12499740708E+03 0.  0.
          2    1    1    2  501    0  0.29744073286E+02 -0.13389953724E+02 -0.71704663427E+02  0.78775373776E+02  0.00000000000E+00 0. -1.
          1    1    1    2  502    0 -0.10411456689E+01 -0.69978114351E+02  0.12919110772E+04  0.12938053377E+04  0.00000000000E+00 0. -1.
         22    1    3    3    0    0  0.22142206142E+02  0.76587150222E+02 -0.26527434561E+02  0.84021269071E+02  0.00000000000E+00 0.  1.
         22    1    3    3    0    0 -0.50845133759E+02  0.67809178536E+01 -0.10850297961E+03  0.12001710319E+03  0.00000000000E+00 0.  1.
</event>
<event>
 7    1  0.6278987E-006  0.2092964E+03  0.7818608E-02  0.1237024E+00
          2   -1    0    0  502    0  0.00000000000E+00  0.00000000000E+00  0.29898215012E+04  0.29898215012E+04  0.00000000000E+00 0. -1.
          1   -1    0    0  501    0 -0.00000000000E+00 -0.00000000000E+00 -0.13118346424E+03  0.13118346424E+03  0.00000000000E+00 0. -1.
         25    2    1    2    0    0 -0.44770069588E+02 -0.19603311753E+03  0.95102207321E+03  0.98005206798E+03  0.12500291960E+03 0.  0.
          2    1    1    2  501    0 -0.27159138165E+02  0.20949582026E+03 -0.19775677243E+02  0.21217255926E+03  0.00000000000E+00 0. -1.
          1    1    1    2  502    0  0.71929207753E+02 -0.13462702729E+02  0.19273916410E+04  0.19287803382E+04  0.00000000000E+00 0. -1.
         22    1    3    3    0    0  0.11198077909E+02  0.14827420911E+02  0.78574573033E+02  0.80741642831E+02  0.00000000000E+00 0. -1.
         22    1    3    3    0    0 -0.55968147497E+02 -0.21086053844E+03  0.87244750018E+03  0.89931042514E+03  0.00000000000E+00 0. -1.
</event>
<event>
 7    1  0.6278987E-006  0.6593373E+02  0.7818608E-02  0.1386947E+00
          2   -1    0    0  502    0  0.00000000000E+00  0.00000000000E+00  0.28665590277E+04  0.28665590277E+04  0.00000000000E+00 0. -1.
          1   -1    0    0  501    0 -0.00000000000E+00 -0.00000000000E+00 -0.25017861523E+03  0.25017861523E+03  0.00000000000E+00 0. -1.
         25    2    1    2    0    0 -0.77190200817E+02  0.57993456623E+02  0.14515212137E+03  0.21451097468E+03  0.12499700719E+03 0.  0.
          2    1    1    2  501    0  0.11387737960E+02 -0.58473920389E+02 -0.21097087474E+03  0.21922041403E+03  0.00000000000E+00 0. -1.
          1    1    1    2  502    0  0.65802462856E+02  0.48046376568E+00  0.26821991658E+04  0.26830062542E+04  0.00000000000E+00 0. -1.
         22    1    3    3    0    0  0.19936563613E+02  0.55818534745E+02  0.69745461717E+02  0.91529256633E+02  0.00000000000E+00 0. -1.
         22    1    3    3    0    0 -0.97126764430E+02  0.21749218787E+01  0.75406659650E+02  0.12298171805E+03  0.00000000000E+00 0. -1.
</event>
<event>
 7    1  0.6278987E-006  0.7531157E+02  0.7818608E-02  0.1391373E+00
          2   -1    0    0  502    0  0.00000000000E+00  0.00000000000E+00  0.22319873763E+04  0.22319873763E+04  0.00000000000E+00 0. -1.
          1   -1    0    0  501    0 -0.00000000000E+00 -0.00000000000E+00 -0.20226298991E+03  0.20226298991E+03  0.00000000000E+00 0. -1.
         25    2    1    2    0    0  0.10856884905E+03 -0.13491666346E+02 -0.21701102947E+02  0.16750866945E+03  0.12497598340E+03 0.  0.
          2    1    1    2  501    0 -0.36479339525E+02  0.34674959478E+02 -0.10108429774E+03  0.11292090275E+03  0.00000000000E+00 0. -1.
          1    1    1    2  502    0 -0.72089509530E+02 -0.21183293132E+02  0.21525097871E+04  0.21538207941E+04  0.00000000000E+00 0. -1.
         22    1    3    3    0    0  0.47002561142E+02 -0.11121693224E+02  0.52316642410E+02  0.71203678887E+02  0.00000000000E+00 0. -1.
         22    1    3    3    0    0  0.61566287912E+02 -0.23699731220E+01 -0.74017745357E+02  0.96304990565E+02  0.00000000000E+00 0. -1.
</event>
<event>
 7    1  0.6278987E-006  0.1312826E+03  0.7818608E-02  0.1359038E+00
          2   -1    0    0  502    0  0.00000000000E+00  0.00000000000E+00  0.86847981353E+03  0.86847981353E+03  0.00000000000E+00 0. -1.
          1   -1    0    0  501    0 -0.00000000000E+00 -0.00000000000E+00 -0.14864215473E+04  0.14864215473E+04  0.00000000000E+00 0. -1.
         25    2    1    2    0    0  0.14162639810E+03 -0.15940873619E+02 -0.27714235291E+02  0.19159124260E+03  0.12500790900E+03 0.  0.
          2    1    1    2  501    0 -0.12161073454E+02  0.35638834064E+02 -0.13710576505E+04  0.13715746787E+04  0.00000000000E+00 0. -1.
          1    1    1    2  502    0 -0.12946532465E+03 -0.19697960445E+02  0.78083015202E+03  0.79173543955E+03  0.00000000000E+00 0. -1.
         22    1    3    3    0    0 -0.14552324148E+02  0.18255613017E+02  0.12847293316E+02  0.26647523155E+02  0.00000000000E+00 0. -1.
         22    1    3    3    0    0  0.15617872225E+03 -0.34196486636E+02 -0.40561528608E+02  0.16494371945E+03  0.00000000000E+00 0. -1.
</event>
<event>
 7    1  0.6278987E-006  0.2021791E+03  0.7818608E-02  0.1244486E+00
          2   -1    0    0  502    0  0.00000000000E+00  0.00000000000E+00  0.17426334135E+04  0.17426334135E+04  0.00000000000E+00 0. -1.
          1   -1    0    0  501    0 -0.00000000000E+00 -0.00000000000E+00 -0.91151615806E+03  0.91151615806E+03  0.00000000000E+00 0. -1.
         25    2    1    2    0    0 -0.14986987368E+03  0.50711193512E+02 -0.30660277863E+03  0.36696484297E+03  0.12500131172E+03 0.  0.
          2    1    1    2  501    0 -0.14376799607E+02  0.68745190743E+02 -0.56653476340E+03  0.57087146694E+03  0.00000000000E+00 0. -1.
          1    1    1    2  502    0  0.16424667329E+03 -0.11945638426E+03  0.17042547974E+04  0.17163132616E+04  0.00000000000E+00 0. -1.
         22    1    3    3    0    0 -0.73304292209E+02 -0.39204110697E+02 -0.11523563653E+03  0.14209058195E+03  0.00000000000E+00 0. -1.
         22    1    3    3    0    0 -0.76565581470E+02  0.89915304210E+02 -0.19136714209E+03  0.22487426102E+03  0.00000000000E+00 0. -1.
</event>
<event>
 7    1  0.1103525E-005  0.7078814E+02  0.7818608E-02  0.1368941E+00
          2   -1    0    0  502    0  0.00000000000E+00  0.00000000000E+00  0.52522091096E+03  0.52522091096E+03  0.00000000000E+00 0. -1.
          1   -1    0    0  501    0 -0.00000000000E+00 -0.00000000000E+00 -0.16599092709E+04  0.16599092709E+04  0.00000000000E+00 0. -1.
         25    2    1    2    0    0  0.23464554790E+02  0.17983328185E+02 -0.46212790271E+03  0.47964548163E+03  0.12499441654E+03 0.  0.
          2    1    1    2  501    0 -0.16054889765E+01 -0.78446238689E+02 -0.11857200202E+04  0.11883132399E+04  0.00000000000E+00 0. -1.
          1    1    1    2  502    0 -0.21859065814E+02  0.60462910504E+02  0.51315956294E+03  0.51717146030E+03  0.00000000000E+00 0. -1.
         22    1    3    3    0    0  0.66797622633E+02 -0.15177224405E+02 -0.32334374140E+03  0.33051996253E+03  0.00000000000E+00 0. -1.
         22    1    3    3    0    0 -0.43333067843E+02  0.33160552591E+02 -0.13878416131E+03  0.14912551910E+03  0.00000000000E+00 0. -1.
</event>
<event>
 7    1  0.6278987E-006  0.8484362E+02  0.7818608E-02  0.1495897E+00
          2   -1    0    0  502    0  0.00000000000E+00  0.00000000000E+00  0.48451308717E+03  0.48451308717E+03  0.00000000000E+00 0. -1.
          1   -1    0    0  501    0 -0.00000000000E+00 -0.00000000000E+00 -0.73780177127E+03  0.73780177127E+03  0.00000000000E+00 0. -1.
         25    2    1    2    0    0 -0.31409635527E+02  0.88698454551E+02 -0.25878598381E+03  0.30240811699E+03  0.12500601091E+03 0.  0.
          2    1    1    2  501    0 -0.12537835900E+02 -0.16242256858E+02 -0.45309051520E+03  0.45355487342E+03  0.00000000000E+00 0. -1.
          1    1    1    2  502    0  0.43947471427E+02 -0.72456197693E+02  0.45858781491E+03  0.46635186803E+03  0.00000000000E+00 0. -1.
         22    1    3    3    0    0  0.36042139932E+02  0.95813696334E+01 -0.13842541134E+03  0.14336119768E+03  0.00000000000E+00 0. -1.
         22    1    3    3    0    0 -0.67451775458E+02  0.79117084917E+02 -0.12036057247E+03  0.15904691931E+03  0.00000000000E+00 0. -1.
</event>
<event>
 7    1  0.6278987E-006  0.2285986E+03  0.7818608E-02  0.1215120E+00
          2   -1    0    0  502    0  0.00000000000E+00  0.00000000000E+00  0.20816056601E+03  0.20816056601E+03  0.00000000000E+00 0. -1.
          1   -1    0    0  501    0 -0.00000000000E+00 -0.00000000000E+00 -0.43122150375E+04  0.43122150375E+04  0.00000000000E+00 0. -1.
         25    2    1    2    0    0 -0.55059273285E+02 -0.13815537239E+03 -0.12767350714E+04  0.12914317495E+04  0.12500036179E+03 0.  0.
          2    1    1    2  501    0 -0.28078430931E+02 -0.79303285567E+02 -0.29598563883E+04  0.29610517133E+04  0.00000000000E+00 0. -1.
          1    1    1    2  502    0  0.83137704216E+02  0.21745865795E+03  0.13253698829E+03  0.26789214070E+03  0.00000000000E+00 0. -1.
         22    1    3    3    0    0 -0.55013156026E+02 -0.35407558116E+00 -0.29687355543E+03  0.30192793945E+03  0.00000000000E+00 0. -1.
         22    1    3    3    0    0 -0.46117259073E-01 -0.13780129681E+03 -0.97986151600E+03  0.98950381003E+03  0.00000000000E+00 0. -1.
</event>
<event>
 7    1  0.6278987E-006  0.7922689E+02  0.7818608E-02  0.1345092E+00
          2   -1    0    0  502    0  0.00000000000E+00  0.00000000000E+00  0.20021301807E+04  0.20021301807E+04  0.00000000000E+00 0. -1.
          1   -1    0    0  501    0 -0.00000000000E+00 -0.00000000000E+00 -0.24306276139E+02  0.24306276139E+02  0.00000000000E+00 0. -1.
         25    2    1    2    0    0  0.31742606687E+02 -0.10421977175E+03  0.89444661119E+03  0.90968666147E+03  0.12500291155E+03 0.  0.
          2    1    1    2  501    0 -0.65752384492E+02  0.42743674452E+02  0.84049053286E+02  0.11495495261E+03  0.00000000000E+00 0. -1.
          1    1    1    2  502    0  0.34009777806E+02  0.61476097303E+02  0.99932824011E+03  0.10017948428E+04  0.00000000000E+00 0. -1.
         22    1    3    3    0    0 -0.33917853353E+02 -0.75664351497E+01  0.40489605898E+03  0.40638465805E+03  0.00000000000E+00 0.  1.
         22    1    3    3    0    0  0.65660460039E+02 -0.96653336605E+02  0.48955055220E+03  0.50330200343E+03  0.00000000000E+00 0.  1.
</event>
<event>
 7    1  0.6278987E-006  0.9311796E+02  0.7818608E-02  0.1321867E+00
          2   -1    0    0  502    0  0.00000000000E+00  0.00000000000E+00  0.63760752779E+03  0.63760752779E+03  0.00000000000E+00 0. -1.
          1   -1    0    0  501    0 -0.00000000000E+00 -0.00000000000E+00 -0.90011083296E+02  0.90011083296E+02  0.00000000000E+00 0. -1.
         25    2    1    2    0    0 -0.44471816162E+02 -0.35224894083E+02  0.35349368409E+03  0.37921162293E+03  0.12500053871E+03 0.  0.
          2    1    1    2  501    0  0.59581001272E+02 -0.71561567787E+02 -0.31540001821E+02  0.98314421178E+02  0.00000000000E+00 0. -1.
          1    1    1    2  502    0 -0.15109185110E+02  0.10678646187E+03  0.22564276223E+03  0.25009256699E+03  0.00000000000E+00 0. -1.
         22    1    3    3    0    0 -0.63230035398E+02  0.17666189198E+02  0.27495082643E+03  0.28268018779E+03  0.00000000000E+00 0.  1.
         22    1    3    3    0    0  0.18758219236E+02 -0.52891083282E+02  0.78542857658E+02  0.96531435132E+02  0.00000000000E+00 0.  1.
</event>
<event>
 7    1  0.6278987E-006  0.3074743E+02  0.7818608E-02  0.1652540E+00
          2   -1    0    0  502    0  0.00000000000E+00  0.00000000000E+00  0.32681277744E+03  0.32681277744E+03  0.00000000000E+00 0. -1.
          1   -1    0    0  501    0 -0.00000000000E+00 -0.00000000000E+00 -0.43408479805E+03  0.43408479805E+03  0.00000000000E+00 0. -1.
         25    2    1    2    0    0  0.17694753010E+02  0.29647315287E+02 -0.70213957713E+01  0.12986127602E+03  0.12499033331E+03 0.  0.
          2    1    1    2  501    0  0.10927705503E+02 -0.18298530259E+02 -0.36443801512E+03  0.36506070429E+03  0.00000000000E+00 0. -1.
          1    1    1    2  502    0 -0.28622458513E+02 -0.11348785028E+02  0.26418739027E+03  0.26597559518E+03  0.00000000000E+00 0. -1.
         22    1    3    3    0    0  0.16661734649E+02  0.48798015330E+02  0.48703290267E+02  0.70928627397E+02  0.00000000000E+00 0. -1.
         22    1    3    3    0    0  0.10330183610E+01 -0.19150700043E+02 -0.55724686038E+02  0.58932648618E+02  0.00000000000E+00 0. -1.
</event>
<event>
 7    1  0.6278987E-006  0.5629978E+02  0.7818608E-02  0.1501967E+00
          2   -1    0    0  502    0  0.00000000000E+00  0.00000000000E+00  0.23809854329E+03  0.23809854329E+03  0.00000000000E+00 0. -1.
          1   -1    0    0  501    0 -0.00000000000E+00 -0.00000000000E+00 -0.59093781513E+03  0.59093781513E+03  0.00000000000E+00 0. -1.
         25    2    1    2    0    0 -0.27796674243E+02 -0.80178326592E+02 -0.14300240236E+03  0.20802900019E+03  0.12500063473E+03 0.  0.
          2    1    1    2  501    0  0.13700347160E+02  0.26302053779E+02 -0.41110676983E+03  0.41217505231E+03  0.00000000000E+00 0. -1.
          1    1    1    2  502    0  0.14096327083E+02  0.53876272813E+02  0.20126990035E+03  0.20883230592E+03  0.00000000000E+00 0. -1.
         22    1    3    3    0    0 -0.84416202998E+01  0.49455322958E-01  0.21985792780E+02  0.23550763964E+02  0.00000000000E+00 0.  1.
         22    1    3    3    0    0 -0.19355053943E+02 -0.80227781915E+02 -0.16498819514E+03  0.18447823622E+03  0.00000000000E+00 0.  1.
</event>
<event>
 7    1  0.6278987E-006  0.7573874E+02  0.7818608E-02  0.1437876E+00
          2   -1    0    0  502    0  0.00000000000E+00  0.00000000000E+00  0.29618588083E+03  0.29618588083E+03  0.00000000000E+00 0. -1.
          1   -1    0    0  501    0 -0.00000000000E+00 -0.00000000000E+00 -0.90330361706E+02  0.90330361706E+02  0.00000000000E+00 0. -1.
         25    2    1    2    0    0  0.42410980583E+02  0.37842609433E+02  0.20156654392E+02  0.13878299601E+03  0.12499469950E+03 0.  0.
          2    1    1    2  501    0  0.32327837097E+02 -0.13143202901E+02 -0.10409805077E+02  0.36416986087E+02  0.00000000000E+00 0. -1.
          1    1    1    2  502    0 -0.74738817680E+02 -0.24699406532E+02  0.19610866981E+03  0.21131626044E+03  0.00000000000E+00 0. -1.
         22    1    3    3    0    0  0.52084697991E+02  0.18666339691E+02  0.67213114362E+02  0.87056595066E+02  0.00000000000E+00 0. -1.
         22    1    3    3    0    0 -0.96737174081E+01  0.19176269743E+02 -0.47056459970E+02  0.51726400944E+02  0.00000000000E+00 0. -1.
</event>
<event>
 7    1  0.6278987E-006  0.1300188E+03  0.7818608E-02  0.1292815E+00
          2   -1    0    0  502    0  0.00000000000E+00  0.00000000000E+00  0.20418206561E+04  0.20418206561E+04  0.00000000000E+00 0. -1.
          1   -1    0    0  501    0 -0.00000000000E+00 -0.00000000000E+00 -0.23992794780E+03  0.23992794780E+03  0.00000000000E+00 0. -1.
         25    2    1    2    0    0  0.97664449743E+02  0.14407271616E+03  0.63388854912E+02  0.22347011717E+03  0.12500181621E+03 0.  0.
          2    1    1    2  501    0 -0.34054439986E+02 -0.11903783370E+03 -0.13520066934E+03  0.18332738946E+03  0.00000000000E+00 0. -1.
          1    1    1    2  502    0 -0.63610009757E+02 -0.25034882458E+02  0.18737045227E+04  0.18749510972E+04  0.00000000000E+00 0. -1.
         22    1    3    3    0    0 -0.67557241539E+01  0.94464760585E+00 -0.24689185140E+02  0.25614215405E+02  0.00000000000E+00 0. -1.
         22    1    3    3    0    0  0.10442017390E+03  0.14312806856E+03  0.88078040052E+02  0.19785590177E+03  0.00000000000E+00 0. -1.
</event>
<event>
 7    1  0.6278987E-006  0.1758436E+03  0.7818608E-02  0.1348699E+00
          2   -1    0    0  502    0  0.00000000000E+00  0.00000000000E+00  0.24410351734E+04  0.24410351734E+04  0.00000000000E+00 0. -1.
          1   -1    0    0  501    0 -0.00000000000E+00 -0.00000000000E+00 -0.64881234703E+02  0.64881234703E+02  0.00000000000E+00 0. -1.
         25    2    1    2    0    0 -0.55038993861E+02 -0.17814920052E+03  0.43394829739E+03  0.48857193640E+03  0.12499993498E+03 0.  0.
          2    1    1    2  501    0  0.25441619992E+02  0.17003073066E+03  0.15994421488E+03  0.23481881796E+03  0.00000000000E+00 0. -1.
          1    1    1    2  502    0  0.29597373869E+02  0.81184698595E+01  0.17822614264E+04  0.17825256537E+04  0.00000000000E+00 0. -1.
         22    1    3    3    0    0 -0.32803923796E+02  0.54118787522E+01  0.32053401891E+02  0.46182317188E+02  0.00000000000E+00 0. -1.
         22    1    3    3    0    0 -0.22235070065E+02 -0.18356107927E+03  0.40189489550E+03  0.44238961922E+03  0.00000000000E+00 0. -1.
</event>
<event>
 7    1  0.6278987E-006  0.7390043E+02  0.7818608E-02  0.1375239E+00
          2   -1    0    0  502    0  0.00000000000E+00  0.00000000000E+00  0.51056393449E+02  0.51056393449E+02  0.00000000000E+00 0. -1.
          1   -1    0    0  501    0 -0.00000000000E+00 -0.00000000000E+00 -0.15237929017E+04  0.15237929017E+04  0.00000000000E+00 0. -1.
         25    2    1    2    0    0 -0.23091982777E+02  0.20995292275E+01 -0.37869297793E+03  0.39946355799E+03  0.12500045974E+03 0.  0.
          2    1    1    2  501    0  0.80906056311E+02  0.66108085462E+01 -0.11114286910E+04  0.11143891726E+04  0.00000000000E+00 0. -1.
          1    1    1    2  502    0 -0.57814073534E+02 -0.87103377737E+01  0.17385160672E+02  0.60996564611E+02  0.00000000000E+00 0. -1.
         22    1    3    3    0    0 -0.52699220714E+02 -0.36693124062E+02 -0.30055666957E+03  0.30734004757E+03  0.00000000000E+00 0. -1.
         22    1    3    3    0    0  0.29607237937E+02  0.38792653289E+02 -0.78136308362E+02  0.92123510419E+02  0.00000000000E+00 0. -1.
</event>
<event>
 7    1  0.6278987E-006  0.5418778E+02  0.7818608E-02  0.1470769E+00
          2   -1    0    0  502    0  0.00000000000E+00  0.00000000000E+00  0.22546141936E+04  0.22546141936E+04  0.00000000000E+00 0. -1.
          1   -1    0    0  501    0 -0.00000000000E+00 -0.00000000000E+00 -0.38932669386E+03  0.38932669386E+03  0.00000000000E+00 0. -1.
         25    2    1    2    0    0  0.43714871777E+02  0.21307587048E+02  0.24251636501E+03  0.27713555337E+03  0.12499969745E+03 0.  0.
          2    1    1    2  501    0 -0.51875112098E+02  0.16149054566E+02 -0.36984809579E+03  0.37381737944E+03  0.00000000000E+00 0. -1.
          1    1    1    2  502    0  0.81602403208E+01 -0.37456641615E+02  0.19926192305E+04  0.19929879547E+04  0.00000000000E+00 0. -1.
         22    1    3    3    0    0 -0.21672001849E+02  0.50221984805E+02  0.60391711812E+02  0.81480563802E+02  0.00000000000E+00 0.  1.
         22    1    3    3    0    0  0.65386873626E+02 -0.28914397757E+02  0.18212465320E+03  0.19565498957E+03  0.00000000000E+00 0.  1.
</event>
<event>
 7    1  0.6278987E-006  0.1275004E+03  0.7818608E-02  0.1233431E+00
          2   -1    0    0  502    0  0.00000000000E+00  0.00000000000E+00  0.23612528039E+04  0.23612528039E+04  0.00000000000E+00 0. -1.
          1   -1    0    0  501    0 -0.00000000000E+00 -0.00000000000E+00 -0.39769368566E+03  0.39769368566E+03  0.00000000000E+00 0. -1.
         25    2    1    2    0    0  0.49571597989E+01  0.10387531352E+03  0.14338944979E+03  0.21679557505E+03  0.12500053144E+03 0.  0.
          2    1    1    2  501    0  0.11425520046E+03 -0.67546901604E+02 -0.34693924317E+03  0.37146153664E+03  0.00000000000E+00 0. -1.
          1    1    1    2  502    0 -0.11921236026E+03 -0.36328411911E+02  0.21671089116E+04  0.21706893778E+04  0.00000000000E+00 0. -1.
         22    1    3    3    0    0 -0.42448958241E+02  0.99554564458E+02  0.12604022564E+03  0.16612996069E+03  0.00000000000E+00 0.  1.
         22    1    3    3    0    0  0.47406118040E+02  0.43207490575E+01  0.17349224154E+02  0.50665614363E+02  0.00000000000E+00 0.  1.
</event>
<event>
 7    1  0.6278987E-006  0.7939321E+02  0.7818608E-02  0.1419662E+00
          2   -1    0    0  502    0  0.00000000000E+00  0.00000000000E+00  0.79609315701E+02  0.79609315701E+02  0.00000000000E+00 0. -1.
          1   -1    0    0  501    0 -0.00000000000E+00 -0.00000000000E+00 -0.34110519363E+03  0.34110519363E+03  0.00000000000E+00 0. -1.
         25    2    1    2    0    0  0.11815822800E+02  0.56324596086E+02 -0.15595283115E+03  0.20798593027E+03  0.12499915142E+03 0.  0.
          2    1    1    2  501    0 -0.27485948072E+02  0.26571389547E+02 -0.12105688336E+03  0.12694993144E+03  0.00000000000E+00 0. -1.
          1    1    1    2  502    0  0.15670125272E+02 -0.82895985634E+02  0.15513836586E+02  0.85778647610E+02  0.00000000000E+00 0. -1.
         22    1    3    3    0    0  0.57810704995E+02  0.28630463709E+02 -0.13633036524E+03  0.15082357094E+03  0.00000000000E+00 0.  1.
         22    1    3    3    0    0 -0.45994882195E+02  0.27694132377E+02 -0.19622465904E+02  0.57162359332E+02  0.00000000000E+00 0.  1.
</event>
<event>
 7    1  0.6278987E-006  0.5122531E+02  0.7818608E-02  0.1535649E+00
          2   -1    0    0  502    0  0.00000000000E+00  0.00000000000E+00  0.42348126747E+03  0.42348126747E+03  0.00000000000E+00 0. -1.
          1   -1    0    0  501    0 -0.00000000000E+00 -0.00000000000E+00 -0.19305360571E+03  0.19305360571E+03  0.00000000000E+00 0. -1.
         25    2    1    2    0    0  0.54745907300E+02 -0.91365361670E+01  0.16746896542E+03  0.21621944908E+03  0.12499762046E+03 0.  0.
          2    1    1    2  501    0 -0.40773707162E+02  0.31076497574E+02 -0.16402302048E+03  0.17184817469E+03  0.00000000000E+00 0. -1.
          1    1    1    2  502    0 -0.13972200139E+02 -0.21939961407E+02  0.22698171682E+03  0.22846724941E+03  0.00000000000E+00 0. -1.
         22    1    3    3    0    0  0.87656790419E+02 -0.27425855689E+02  0.83225979198E+02  0.12394536732E+03  0.00000000000E+00 0.  1.
         22    1    3    3    0    0 -0.32910883119E+02  0.18289319522E+02  0.84242986222E+02  0.92274081755E+02  0.00000000000E+00 0.  1.
</event>
<event>
 7    1  0.6278987E-006  0.1211532E+03  0.7818608E-02  0.1403857E+00
          2   -1    0    0  502    0  0.00000000000E+00  0.00000000000E+00  0.22183659683E+03  0.22183659683E+03  0.00000000000E+00 0. -1.
          1   -1    0    0  501    0 -0.00000000000E+00 -0.00000000000E+00 -0.16123546396E+04  0.16123546396E+04  0.00000000000E+00 0. -1.
         25    2    1    2    0    0 -0.37079350443E+02 -0.13473980038E+03 -0.14492542584E+03  0.23697553051E+03  0.12499732384E+03 0.  0.
          2    1    1    2  501    0 -0.11667412662E+02  0.25817965465E+02 -0.14009951725E+04  0.14012816167E+04  0.00000000000E+00 0. -1.
          1    1    1    2  502    0  0.48746763105E+02  0.10892183492E+03  0.15540255559E+03  0.19593408922E+03  0.00000000000E+00 0. -1.
         22    1    3    3    0    0 -0.63213607127E+02 -0.67431208731E+02 -0.22955473315E+02  0.95235927003E+02  0.00000000000E+00 0.  1.
         22    1    3    3    0    0  0.26134256683E+02 -0.67308591653E+02 -0.12196995252E+03  0.14173960350E+03  0.00000000000E+00 0.  1.
</event>
<event>
 7    1  0.6278987E-006  0.1491799E+03  0.7818608E-02  0.1347588E+00
          2   -1    0    0  502    0  0.00000000000E+00  0.00000000000E+00  0.49632639893E+03  0.49632639893E+03  0.00000000000E+00 0. -1.
          1   -1    0    0  501    0 -0.00000000000E+00 -0.00000000000E+00 -0.32738936473E+03  0.32738936473E+03  0.00000000000E+00 0. -1.
         25    2    1    2    0    0  0.68554981239E+02  0.11334496214E+03  0.27831704151E+02  0.18424150713E+03  0.12499385304E+03 0.  0.
          2    1    1    2  501    0 -0.10504713576E+03 -0.11187682111E+03 -0.22455982817E+03  0.27198977970E+03  0.00000000000E+00 0. -1.
          1    1    1    2  502    0  0.36492154519E+02 -0.14681410320E+01  0.36566515822E+03  0.36748447684E+03  0.00000000000E+00 0. -1.
         22    1    3    3    0    0  0.32994839527E+02 -0.17939747794E+02  0.30219835254E+02  0.48205107915E+02  0.00000000000E+00 0.  1.
         22    1    3    3    0    0  0.35560141712E+02  0.13128470993E+03 -0.23881311036E+01  0.13603639921E+03  0.00000000000E+00 0.  1.
</event>
<event>
 7    1  0.6278987E-006  0.5172386E+02  0.7818608E-02  0.1475729E+00
          2   -1    0    0  502    0  0.00000000000E+00  0.00000000000E+00  0.54162168005E+03  0.54162168005E+03  0.00000000000E+00 0. -1.
          1   -1    0    0  501    0 -0.00000000000E+00 -0.00000000000E+00 -0.47947580353E+03  0.47947580353E+03  0.00000000000E+00 0. -1.
         25    2    1    2    0    0 -0.89706403251E+01  0.54762736524E+02  0.15275584729E+02  0.13761902783E+03  0.12500489443E+03 0.  0.
          2    1    1    2  501    0 -0.31662978587E+02 -0.22365867757E+02 -0.41594857784E+03  0.41775111688E+03  0.00000000000E+00 0. -1.
          1    1    1    2  502    0  0.40633618912E+02 -0.32396868766E+02  0.46281886962E+03  0.46572733887E+03  0.00000000000E+00 0. -1.
         22    1    3    3    0    0  0.17655408136E+02  0.29716830359E+02 -0.51188229259E+02  0.61765995966E+02  0.00000000000E+00 0.  1.
         22    1    3    3    0    0 -0.26626048461E+02  0.25045906165E+02  0.66463813988E+02  0.75853031859E+02  0.00000000000E+00 0.  1.
</event>
<event>
 7    1  0.6278987E-006  0.1760532E+03  0.7818608E-02  0.1359324E+00
          2   -1    0    0  502    0  0.00000000000E+00  0.00000000000E+00  0.47796637514E+03  0.47796637514E+03  0.00000000000E+00 0. -1.
          1   -1    0    0  501    0 -0.00000000000E+00 -0.00000000000E+00 -0.10364867888E+03  0.10364867888E+03  0.00000000000E+00 0. -1.
         25    2    1    2    0    0  0.16149800913E+02 -0.15801766294E+03  0.13515403994E+03  0.24314915944E+03  0.12499800540E+03 0.  0.
          2    1    1    2  501    0  0.10087488954E+02 -0.26133721497E+02 -0.79952861511E+01  0.29131656893E+02  0.00000000000E+00 0. -1.
          1    1    1    2  502    0 -0.26237289867E+02  0.18415138443E+03  0.24715894247E+03  0.30933423769E+03  0.00000000000E+00 0. -1.
         22    1    3    3    0    0  0.37496151740E+02 -0.17191989585E+03  0.11101576150E+03  0.20805506792E+03  0.00000000000E+00 0. -1.
         22    1    3    3    0    0 -0.21346350826E+02  0.13902232916E+02  0.24138278433E+02  0.35094091516E+02  0.00000000000E+00 0. -1.
</event>
<event>
 7    1  0.6278987E-006  0.8187532E+02  0.7818608E-02  0.1395374E+00
          2   -1    0    0  502    0  0.00000000000E+00  0.00000000000E+00  0.95337374625E+03  0.95337374625E+03  0.00000000000E+00 0. -1.
          1   -1    0    0  501    0 -0.00000000000E+00 -0.00000000000E+00 -0.28018582924E+03  0.28018582924E+03  0.00000000000E+00 0. -1.
         25    2    1    2    0    0  0.10340866880E+02 -0.52199209338E+02  0.63339170328E+02  0.14989567620E+03  0.12500068905E+03 0.  0.
          2    1    1    2  501    0 -0.53182984068E+02  0.65427419118E+02 -0.22878761781E+03  0.24382975829E+03  0.00000000000E+00 0. -1.
          1    1    1    2  502    0  0.42842117187E+02 -0.13228209780E+02  0.83863636449E+03  0.83983414100E+03  0.00000000000E+00 0. -1.
         22    1    3    3    0    0 -0.28871039447E+01  0.40865593507E+02  0.27266074867E+02  0.49211491956E+02  0.00000000000E+00 0. -1.
         22    1    3    3    0    0  0.13227970825E+02 -0.93064802846E+02  0.36073095462E+02  0.10068418424E+03  0.00000000000E+00 0. -1.
</event>
<event>
 7    1  0.6278987E-006  0.1327351E+03  0.7818608E-02  0.1434170E+00
          2   -1    0    0  502    0  0.00000000000E+00  0.00000000000E+00  0.33588314130E+03  0.33588314130E+03  0.00000000000E+00 0. -1.
          1   -1    0    0  501    0 -0.00000000000E+00 -0.00000000000E+00 -0.15785492807E+04  0.15785492807E+04  0.00000000000E+00 0. -1.
         25    2    1    2    0    0 -0.14876245326E+03  0.15482302328E+02 -0.38563755009E+03  0.43209923230E+03  0.12499382918E+03 0.  0.
          2    1    1    2  501    0  0.16635632461E+02 -0.11936438751E+02 -0.11556169033E+04  0.11557982739E+04  0.00000000000E+00 0. -1.
          1    1    1    2  502    0  0.13212682080E+03 -0.35458635771E+01  0.29858831402E+03  0.32653491573E+03  0.00000000000E+00 0. -1.
         22    1    3    3    0    0 -0.98812039745E+02  0.11797228637E+02 -0.96373634046E+02  0.13853111976E+03  0.00000000000E+00 0.  1.
         22    1    3    3    0    0 -0.49950413516E+02  0.36850736912E+01 -0.28926391604E+03  0.29356811254E+03  0.00000000000E+00 0.  1.
</event>
<event>
 7    1  0.6278987E-006  0.1523192E+03  0.7818608E-02  0.1360190E+00
          2   -1    0    0  502    0  0.00000000000E+00  0.00000000000E+00  0.28316455005E+04  0.28316455005E+04  0.00000000000E+00 0. -1.
          1   -1    0    0  501    0 -0.00000000000E+00 -0.00000000000E+00 -0.58000328915E+03  0.58000328915E+03  0.00000000000E+00 0. -1.
         25    2    1    2    0    0  0.10864133883E+03  0.69008259711E+02  0.15700045255E+04  0.15802229040E+04  0.12500054400E+03 0.  0.
          2    1    1    2  501    0 -0.13976222200E+03 -0.60965983439E+02 -0.56457252133E+03  0.58480121552E+03  0.00000000000E+00 0. -1.
          1    1    1    2  502    0  0.31120883168E+02 -0.80422762723E+01  0.12462102072E+04  0.12466246701E+04  0.00000000000E+00 0. -1.
         22    1    3    3    0    0 -0.52549959234E+01  0.63969145304E+01  0.46762370060E+01  0.95080329301E+01  0.00000000000E+00 0.  1.
         22    1    3    3    0    0  0.11389633476E+03  0.62611345180E+02  0.15653282885E+04  0.15707148711E+04  0.00000000000E+00 0.  1.
</event>
<event>
 7    1  0.6278987E-006  0.3221636E+02  0.7818608E-02  0.1598710E+00
          2   -1    0    0  502    0  0.00000000000E+00  0.00000000000E+00  0.62442579249E+02  0.62442579249E+02  0.00000000000E+00 0. -1.
          1   -1    0    0  501    0 -0.00000000000E+00 -0.00000000000E+00 -0.77933072601E+03  0.77933072601E+03  0.00000000000E+00 0. -1.
         25    2    1    2    0    0 -0.16880257951E+02 -0.24559422836E+02 -0.23995549279E+03  0.27219616394E+03  0.12499601908E+03 0.  0.
          2    1    1    2  501    0  0.27103609101E+02 -0.63238960044E+01 -0.51712257926E+03  0.51787098708E+03  0.00000000000E+00 0. -1.
          1    1    1    2  502    0 -0.10223351151E+02  0.30883318841E+02  0.40189925284E+02  0.51706154234E+02  0.00000000000E+00 0. -1.
         22    1    3    3    0    0  0.30432053258E+02  0.18822651694E+02 -0.18273045490E+03  0.18620102370E+03  0.00000000000E+00 0.  1.
         22    1    3    3    0    0 -0.47312311209E+02 -0.43382074531E+02 -0.57225037894E+02  0.85995140237E+02  0.00000000000E+00 0.  1.
</event>
<event>
 7    1  0.6278987E-006  0.1336017E+03  0.7818608E-02  0.1432929E+00
          2   -1    0    0  502    0  0.00000000000E+00  0.00000000000E+00  0.30582199504E+04  0.30582199504E+04  0.00000000000E+00 0. -1.
          1   -1    0    0  501    0 -0.00000000000E+00 -0.00000000000E+00 -0.11711459897E+03  0.11711459897E+03  0.00000000000E+00 0. -1.
         25    2    1    2    0    0 -0.85446120212E+02 -0.12509970635E+03  0.14317914099E+03  0.24305371972E+03  0.12499547300E+03 0.  0.
          2    1    1    2  501    0  0.17540354009E+02  0.10675199047E+02 -0.64025609369E+02  0.67237657220E+02  0.00000000000E+00 0. -1.
          1    1    1    2  502    0  0.67905766203E+02  0.11442450730E+03  0.28619518198E+04  0.28650431724E+04  0.00000000000E+00 0. -1.
         22    1    3    3    0    0 -0.55974282727E+02 -0.54669994233E+02 -0.28240432081E+01  0.78293702277E+02  0.00000000000E+00 0. -1.
         22    1    3    3    0    0 -0.29471837484E+02 -0.70429712119E+02  0.14600318420E+03  0.16476001745E+03  0.00000000000E+00 0. -1.
</event>
<event>
 7    1  0.6278987E-006  0.5647344E+02  0.7818608E-02  0.1485726E+00
          2   -1    0    0  502    0  0.00000000000E+00  0.00000000000E+00  0.69121123762E+03  0.69121123762E+03  0.00000000000E+00 0. -1.
          1   -1    0    0  501    0 -0.00000000000E+00 -0.00000000000E+00 -0.66935021725E+03  0.66935021725E+03  0.00000000000E+00 0. -1.
         25    2    1    2    0    0  0.20276975403E+02 -0.79542355583E+02  0.22322508171E+02  0.15119192377E+03  0.12499024514E+03 0.  0.
          2    1    1    2  501    0 -0.29502427834E+02  0.47767508615E+02 -0.60315805403E+03  0.60576543832E+03  0.00000000000E+00 0. -1.
          1    1    1    2  502    0  0.92254524311E+01  0.31774846968E+02  0.60269656622E+03  0.60360409277E+03  0.00000000000E+00 0. -1.
         22    1    3    3    0    0 -0.37867697961E+02 -0.38491481398E+02 -0.30996229841E+02  0.62260123301E+02  0.00000000000E+00 0. -1.
         22    1    3    3    0    0  0.58144673364E+02 -0.41050874185E+02  0.53318738013E+02  0.88931800472E+02  0.00000000000E+00 0. -1.
</event>
<event>
 7    1  0.6278987E-006  0.1583454E+03  0.7818608E-02  0.1236942E+00
          2   -1    0    0  502    0  0.00000000000E+00  0.00000000000E+00  0.89693961164E+03  0.89693961164E+03  0.00000000000E+00 0. -1.
          1   -1    0    0  501    0 -0.00000000000E+00 -0.00000000000E+00 -0.17301254971E+03  0.17301254971E+03  0.00000000000E+00 0. -1.
         25    2    1    2    0    0 -0.10315926590E+03  0.13939977768E+03  0.18484721686E+03  0.28260958377E+03  0.12500220438E+03 0.  0.
          2    1    1    2  501    0 -0.47258655814E+02 -0.84486572035E+02 -0.93634318456E+02  0.13468016556E+03  0.00000000000E+00 0. -1.
          1    1    1    2  502    0  0.15041792171E+03 -0.54913205646E+02  0.63271416353E+03  0.65266241201E+03  0.00000000000E+00 0. -1.
         22    1    3    3    0    0 -0.69003296145E+02  0.86434508506E+02  0.18950039836E+03  0.21941463060E+03  0.00000000000E+00 0.  1.
         22    1    3    3    0    0 -0.34155969752E+02  0.52965269175E+02 -0.46531815040E+01  0.63194953174E+02  0.00000000000E+00 0.  1.
</event>
<event>
 7    1  0.6278987E-006  0.7239345E+02  0.7818608E-02  0.1411674E+00
          2   -1    0    0  502    0  0.00000000000E+00  0.00000000000E+00  0.30071113889E+03  0.30071113889E+03  0.00000000000E+00 0. -1.
          1   -1    0    0  501    0 -0.00000000000E+00 -0.00000000000E+00 -0.72563032649E+02  0.72563032649E+02  0.00000000000E+00 0. -1.
         25    2    1    2    0    0  0.45066786926E+02  0.60987751975E+02  0.16244864469E+03  0.21854790091E+03  0.12499240639E+03 0.  0.
          2    1    1    2  501    0  0.26002227816E+02 -0.36235645838E+02 -0.12377191267E+02  0.46285340491E+02  0.00000000000E+00 0. -1.
          1    1    1    2  502    0 -0.71069014743E+02 -0.24752106137E+02  0.78076652818E+02  0.10844093014E+03  0.00000000000E+00 0. -1.
         22    1    3    3    0    0 -0.66387028060E+01  0.36279893569E+02 -0.88405047833E+01  0.37927003271E+02  0.00000000000E+00 0.  1.
         22    1    3    3    0    0  0.51705489732E+02  0.24707858406E+02  0.17128914948E+03  0.18062089764E+03  0.00000000000E+00 0.  1.
</event>
<event>
 7    1  0.6278987E-006  0.4969299E+02  0.7818608E-02  0.1581125E+00
          2   -1    0    0  502    0  0.00000000000E+00  0.00000000000E+00  0.43669035342E+02  0.43669035342E+02  0.00000000000E+00 0. -1.
          1   -1    0    0  501    0 -0.00000000000E+00 -0.00000000000E+00 -0.38800085326E+03  0.38800085326E+03  0.00000000000E+00 0. -1.
         25    2    1    2    0    0 -0.29189283488E+02 -0.17993414100E+02 -0.10722826959E+03  0.16822210109E+03  0.12499998511E+03 0.  0.
          2    1    1    2  501    0  0.35158354287E+02  0.37170960608E+02 -0.23790717491E+03  0.24334669520E+03  0.00000000000E+00 0. -1.
          1    1    1    2  502    0 -0.59690707992E+01 -0.19177546508E+02  0.80362658320E+00  0.20101092308E+02  0.00000000000E+00 0. -1.
         22    1    3    3    0    0 -0.91462436316E+01  0.28401516267E+02  0.16835146996E+02  0.34259627453E+02  0.00000000000E+00 0.  1.
         22    1    3    3    0    0 -0.20043039856E+02 -0.46394930367E+02 -0.12406341658E+03  0.13396247364E+03  0.00000000000E+00 0.  1.
</event>
<event>
 7    1  0.6278987E-006  0.7878315E+02  0.7818608E-02  0.1474876E+00
          2   -1    0    0  502    0  0.00000000000E+00  0.00000000000E+00  0.12409505025E+04  0.12409505025E+04  0.00000000000E+00 0. -1.
          1   -1    0    0  501    0 -0.00000000000E+00 -0.00000000000E+00 -0.10100391960E+04  0.10100391960E+04  0.00000000000E+00 0. -1.
         25    2    1    2    0    0 -0.55688328599E+02 -0.15386245558E+02  0.67013678252E+02  0.15314963097E+03  0.12500419952E+03 0.  0.
          2    1    1    2  501    0  0.70193364322E+02  0.36487664405E+02 -0.96520776463E+03  0.96844436441E+03  0.00000000000E+00 0. -1.
          1    1    1    2  502    0 -0.14505035723E+02 -0.21101418848E+02  0.11291053929E+04  0.11293957031E+04  0.00000000000E+00 0. -1.
         22    1    3    3    0    0  0.39477418172E+02  0.58529569644E+01  0.14981437920E+02  0.42628243371E+02  0.00000000000E+00 0. -1.
         22    1    3    3    0    0 -0.95165746771E+02 -0.21239202522E+02  0.52032240332E+02  0.11052138760E+03  0.00000000000E+00 0. -1.
</event>
<event>
 7    1  0.6278987E-006  0.4672091E+02  0.7818608E-02  0.1511974E+00
          2   -1    0    0  502    0  0.00000000000E+00  0.00000000000E+00  0.19399044314E+03  0.19399044314E+03  0.00000000000E+00 0. -1.
          1   -1    0    0  501    0 -0.00000000000E+00 -0.00000000000E+00 -0.23454722406E+03  0.23454722406E+03  0.00000000000E+00 0. -1.
         25    2    1    2    0    0 -0.14050823433E+02 -0.76547513205E+01 -0.61766856964E+02  0.14034845171E+03  0.12500608954E+03 0.  0.
          2    1    1    2  501    0 -0.33371570965E+02  0.89936418528E+00 -0.12758166071E+03  0.13187702891E+03  0.00000000000E+00 0. -1.
          1    1    1    2  502    0  0.47422394398E+02  0.67553871353E+01  0.14879173675E+03  0.15631218657E+03  0.00000000000E+00 0. -1.
         22    1    3    3    0    0 -0.26697655925E+02 -0.48452570887E+02 -0.77163301921E+02  0.94945203253E+02  0.00000000000E+00 0. -1.
         22    1    3    3    0    0  0.12646832492E+02  0.40797819566E+02  0.15396444956E+02  0.45403248460E+02  0.00000000000E+00 0. -1.
</event>
<event>
 7    1  0.6278987E-006  0.3810307E+02  0.7818608E-02  0.1536182E+00
          2   -1    0    0  502    0  0.00000000000E+00  0.00000000000E+00  0.99311998173E+03  0.99311998173E+03  0.00000000000E+00 0. -1.
          1   -1    0    0  501    0 -0.00000000000E+00 -0.00000000000E+00 -0.16651608219E+04  0.16651608219E+04  0.00000000000E+00 0. -1.
         25    2    1    2    0    0  0.32133591686E+00  0.69996475259E+01  0.37845787021E+02  0.13079107351E+03  0.12499961197E+03 0.  0.
          2    1    1    2  501    0 -0.32863365978E+02 -0.19463524766E+02 -0.16181286912E+04  0.16185794052E+04  0.00000000000E+00 0. -1.
          1    1    1    2  502    0  0.32542030061E+02  0.12463877240E+02  0.90824206400E+03  0.90891032494E+03  0.00000000000E+00 0. -1.
         22    1    3    3    0    0 -0.61979793270E+02  0.46014383365E+01  0.25790230691E+02  0.67288959032E+02  0.00000000000E+00 0. -1.
         22    1    3    3    0    0  0.62301129187E+02  0.23982091894E+01  0.12055556330E+02  0.63502114482E+02  0.00000000000E+00 0. -1.
</event>
<event>
 7    1  0.6278987E-006  0.1870263E+03  0.7818608E-02  0.1260718E+00
          2   -1    0    0  502    0  0.00000000000E+00  0.00000000000E+00  0.25422107174E+03  0.25422107174E+03  0.00000000000E+00 0. -1.
          1   -1    0    0  501    0 -0.00000000000E+00 -0.00000000000E+00 -0.80085733109E+03  0.80085733109E+03  0.00000000000E+00 0. -1.
         25    2    1    2    0    0 -0.55660873335E+02 -0.21606471672E+03 -0.11392213336E+03  0.27997832074E+03  0.12501005153E+03 0.  0.
          2    1    1    2  501    0 -0.28931263645E+02  0.57762248381E+02 -0.55446499271E+03  0.55821583953E+03  0.00000000000E+00 0. -1.
          1    1    1    2  502    0  0.84592136980E+02  0.15830246834E+03  0.12175086672E+03  0.21688424256E+03  0.00000000000E+00 0. -1.
         22    1    3    3    0    0 -0.50753697543E+02 -0.20544646353E+02 -0.23368027934E+01  0.54804023168E+02  0.00000000000E+00 0.  1.
         22    1    3    3    0    0 -0.49071757922E+01 -0.19552007037E+03 -0.11158533057E+03  0.22517429757E+03  0.00000000000E+00 0.  1.
</event>
<event>
 7    1  0.7900194E-006  0.1583588E+03  0.7818608E-02  0.1242695E+00
          2   -1    0    0  502    0  0.00000000000E+00  0.00000000000E+00  0.16533679787E+04  0.16533679787E+04  0.00000000000E+00 0. -1.
          1   -1    0    0  501    0 -0.00000000000E+00 -0.00000000000E+00 -0.16273601770E+04  0.16273601770E+04  0.00000000000E+00 0. -1.
         25    2    1    2    0    0 -0.68743325933E+02 -0.64609471811E+02 -0.10408391355E+03  0.18803772262E+03  0.12499878144E+03 0.  0.
          2    1    1    2  501    0  0.21525569933E+02 -0.88729342190E+02 -0.14758913360E+04  0.14787127787E+04  0.00000000000E+00 0. -1.
          1    1    1    2  502    0  0.47217756000E+02  0.15333881400E+03  0.16059830511E+04  0.16139776544E+04  0.00000000000E+00 0. -1.
         22    1    3    3    0    0 -0.24901062626E+02  0.34254244179E+02 -0.54619639257E+02  0.69113827537E+02  0.00000000000E+00 0.  1.
         22    1    3    3    0    0 -0.43842263307E+02 -0.98863715990E+02 -0.49464274296E+02  0.11892389509E+03  0.00000000000E+00 0.  1.
</event>
<event>
 7    1  0.6278987E-006  0.5294981E+02  0.7818608E-02  0.1508289E+00
          2   -1    0    0  502    0  0.00000000000E+00  0.00000000000E+00  0.29235212719E+04  0.29235212719E+04  0.00000000000E+00 0. -1.
          1   -1    0    0  501    0 -0.00000000000E+00 -0.00000000000E+00 -0.66720641912E+03  0.66720641912E+03  0.00000000000E+00 0. -1.
         25    2    1    2    0    0  0.34236608248E+02 -0.21359920197E+02  0.15492479625E+04  0.15548064319E+04  0.12500160006E+03 0.  0.
          2    1    1    2  501    0 -0.83355709045E+01 -0.29028277792E+02 -0.66349843828E+03  0.66418544116E+03  0.00000000000E+00 0. -1.
          1    1    1    2  502    0 -0.25901037344E+02  0.50388197989E+02  0.13705653286E+04  0.13717358179E+04  0.00000000000E+00 0. -1.
         22    1    3    3    0    0  0.76559233062E+02  0.95536906277E+01  0.79292712085E+03  0.79667183216E+03  0.00000000000E+00 0. -1.
         22    1    3    3    0    0 -0.42322624813E+02 -0.30913610825E+02  0.75632084163E+03  0.75813459979E+03  0.00000000000E+00 0. -1.
</event>
<event>
 7    1  0.6278987E-006  0.4221222E+02  0.7818608E-02  0.1599363E+00
          2   -1    0    0  502    0  0.00000000000E+00  0.00000000000E+00  0.56218751964E+02  0.56218751964E+02  0.00000000000E+00 0. -1.
          1   -1    0    0  501    0 -0.00000000000E+00 -0.00000000000E+00 -0.11398180248E+04  0.11398180248E+04  0.00000000000E+00 0. -1.
         25    2    1    2    0    0 -0.17874140950E+02  0.41073652721E+02 -0.50470020633E+03  0.52187517961E+03  0.12499949986E+03 0.  0.
          2    1    1    2  501    0  0.21131152395E+02  0.10595121617E+01 -0.61694005762E+03  0.61730274815E+03  0.00000000000E+00 0. -1.
          1    1    1    2  502    0 -0.32570114452E+01 -0.42133164882E+02  0.38040991109E+02  0.56858849013E+02  0.00000000000E+00 0. -1.
         22    1    3    3    0    0  0.24416374190E+02  0.73789846702E+02 -0.25830524388E+03  0.26974562058E+03  0.00000000000E+00 0.  1.
         22    1    3    3    0    0 -0.42290515140E+02 -0.32716193981E+02 -0.24639496245E+03  0.25212955903E+03  0.00000000000E+00 0.  1.
</event>
<event>
 7    1  0.6278987E-006  0.1116835E+03  0.7818608E-02  0.1392324E+00
          2   -1    0    0  502    0  0.00000000000E+00  0.00000000000E+00  0.21718887624E+03  0.21718887624E+03  0.00000000000E+00 0. -1.
          1   -1    0    0  501    0 -0.00000000000E+00 -0.00000000000E+00 -0.55470102667E+03  0.55470102667E+03  0.00000000000E+00 0. -1.
         25    2    1    2    0    0 -0.76622863258E+02 -0.57543207088E+02  0.38292661061E+02  0.16209059822E+03  0.12499900113E+03 0.  0.
          2    1    1    2  501    0  0.68074331883E+02  0.90121756780E+02 -0.48373020859E+03  0.49674033500E+03  0.00000000000E+00 0. -1.
          1    1    1    2  502    0  0.85485313750E+01 -0.32578549692E+02  0.10792539711E+03  0.11305896970E+03  0.00000000000E+00 0. -1.
         22    1    3    3    0    0 -0.60979673865E+02  0.29513185649E+02  0.26973536483E+02  0.72918587632E+02  0.00000000000E+00 0. -1.
         22    1    3    3    0    0 -0.15643189394E+02 -0.87056392738E+02  0.11319124579E+02  0.89172010587E+02  0.00000000000E+00 0. -1.
</event>
<event>
 7    1  0.6278987E-006  0.9230120E+02  0.7818608E-02  0.1313857E+00
          2   -1    0    0  502    0  0.00000000000E+00  0.00000000000E+00  0.64273328569E+03  0.64273328569E+03  0.00000000000E+00 0. -1.
          1   -1    0    0  501    0 -0.00000000000E+00 -0.00000000000E+00 -0.58808724671E+03  0.58808724671E+03  0.00000000000E+00 0. -1.
         25    2    1    2    0    0 -0.31703716633E+02 -0.38946852698E+02 -0.24804294557E+03  0.28225998388E+03  0.12499365050E+03 0.  0.
          2    1    1    2  501    0  0.10837325021E+03  0.59570644167E+02 -0.30843362591E+03  0.33230215859E+03  0.00000000000E+00 0. -1.
          1    1    1    2  502    0 -0.76669533576E+02 -0.20623791469E+02  0.61112261046E+03  0.61625838994E+03  0.00000000000E+00 0. -1.
         22    1    3    3    0    0 -0.70551187531E+02 -0.58082180455E+02 -0.16622473164E+03  0.18968835272E+03  0.00000000000E+00 0. -1.
         22    1    3    3    0    0  0.38847470898E+02  0.19135327757E+02 -0.81818213934E+02  0.92571631156E+02  0.00000000000E+00 0. -1.
</event>
<event>
 7    1  0.6278987E-006  0.2518668E+03  0.7818608E-02  0.1224473E+00
          2   -1    0    0  502    0  0.00000000000E+00  0.00000000000E+00  0.25325902883E+03  0.25325902883E+03  0.00000000000E+00 0. -1.
          1   -1    0    0  501    0 -0.00000000000E+00 -0.00000000000E+00 -0.42052262232E+03  0.42052262232E+03  0.00000000000E+00 0. -1.
         25    2    1    2    0    0 -0.14003435490E+03  0.24912908889E+03 -0.12276144926E+03  0.33521613859E+03  0.12499825064E+03 0.  0.
          2    1    1    2  501    0 -0.13692568534E+02 -0.67843671975E+02 -0.71302766636E+02  0.99369687482E+02  0.00000000000E+00 0. -1.
          1    1    1    2  502    0  0.15372692343E+03 -0.18128541692E+03  0.26800622416E+02  0.23919582508E+03  0.00000000000E+00 0. -1.
         22    1    3    3    0    0 -0.71701377971E+02  0.23699931663E+02 -0.19337923922E+02  0.77953381360E+02  0.00000000000E+00 0.  1.
         22    1    3    3    0    0 -0.68332976924E+02  0.22542915723E+03 -0.10342352534E+03  0.25726275723E+03  0.00000000000E+00 0.  1.
</event>
<event>
 7    1  0.6278987E-006  0.1060465E+03  0.7818608E-02  0.1319713E+00
          2   -1    0    0  502    0  0.00000000000E+00  0.00000000000E+00  0.13006841952E+04  0.13006841952E+04  0.00000000000E+00 0. -1.
          1   -1    0    0  501    0 -0.00000000000E+00 -0.00000000000E+00 -0.15568630399E+03  0.15568630399E+03  0.00000000000E+00 0. -1.
         25    2    1    2    0    0  0.10750664042E+03 -0.11199127413E+03  0.36093250529E+03  0.41230700395E+03  0.12500027567E+03 0.  0.
          2    1    1    2  501    0 -0.61918237070E+02  0.21561193084E+02 -0.11871690868E+03  0.13561879492E+03  0.00000000000E+00 0. -1.
          1    1    1    2  502    0 -0.45588403351E+02  0.90430081043E+02  0.90278229459E+03  0.90844470030E+03  0.00000000000E+00 0. -1.
         22    1    3    3    0    0  0.28865376636E+02 -0.75298520853E+02  0.63995647794E+02  0.10294911436E+03  0.00000000000E+00 0.  1.
         22    1    3    3    0    0  0.78641263785E+02 -0.36692753273E+02  0.29693685750E+03  0.30935788959E+03  0.00000000000E+00 0.  1.
</event>
<event>
 7    1  0.6278987E-006  0.3732134E+02  0.7818608E-02  0.1568747E+00
          2   -1    0    0  502    0  0.00000000000E+00  0.00000000000E+00  0.12241652590E+04  0.12241652590E+04  0.00000000000E+00 0. -1.
          1   -1    0    0  501    0 -0.00000000000E+00 -0.00000000000E+00 -0.78094945279E+02  0.78094945279E+02  0.00000000000E+00 0. -1.
         25    2    1    2    0    0  0.24596242360E+02  0.26512111052E+02  0.17915853430E+03  0.22142807424E+03  0.12499897791E+03 0.  0.
          2    1    1    2  501    0  0.12916481490E+02 -0.25832469548E+02 -0.52931796615E+02  0.60298648989E+02  0.00000000000E+00 0. -1.
          1    1    1    2  502    0 -0.37512723850E+02 -0.67964150454E+00  0.10198435761E+04  0.10205334811E+04  0.00000000000E+00 0. -1.
         22    1    3    3    0    0  0.27460858009E+02 -0.39889458676E+02  0.13009664868E+03  0.13881788657E+03  0.00000000000E+00 0. -1.
         22    1    3    3    0    0 -0.28646156487E+01  0.66401569728E+02  0.49061885622E+02  0.82610187665E+02  0.00000000000E+00 0. -1.
</event>
<event>
 7    1  0.6278987E-006  0.5370016E+02  0.7818608E-02  0.1472685E+00
          2   -1    0    0  502    0  0.00000000000E+00  0.00000000000E+00  0.23164522319E+04  0.23164522319E+04  0.00000000000E+00 0. -1.
          1   -1    0    0  501    0 -0.00000000000E+00 -0.00000000000E+00 -0.27029563915E+02  0.27029563915E+02  0.00000000000E+00 0. -1.
         25    2    1    2    0    0  0.77451981301E+02 -0.38175585976E+02  0.88764823718E+03  0.90055603711E+03  0.12500239289E+03 0.  0.
          2    1    1    2  501    0 -0.39449752298E+02  0.34739912564E+02  0.13692795705E+02  0.54319767448E+02  0.00000000000E+00 0. -1.
          1    1    1    2  502    0 -0.38002229002E+02  0.34356734121E+01  0.13880816351E+04  0.13886059913E+04  0.00000000000E+00 0. -1.
         22    1    3    3    0    0 -0.20388864704E+02  0.26449869047E+02  0.15238204482E+03  0.15599868256E+03  0.00000000000E+00 0.  1.
         22    1    3    3    0    0  0.97840846005E+02 -0.64625455023E+02  0.73526619236E+03  0.74455735455E+03  0.00000000000E+00 0.  1.
</event>
<event>
 7    1  0.6278987E-006  0.3957120E+02  0.7818608E-02  0.1512779E+00
          2   -1    0    0  502    0  0.00000000000E+00  0.00000000000E+00  0.40922413847E+03  0.40922413847E+03  0.00000000000E+00 0. -1.
          1   -1    0    0  501    0 -0.00000000000E+00 -0.00000000000E+00 -0.15081399915E+04  0.15081399915E+04  0.00000000000E+00 0. -1.
         25    2    1    2    0    0 -0.36727384611E+02 -0.15200818260E+02 -0.14356254527E+03  0.19446106230E+03  0.12499973877E+03 0.  0.
          2    1    1    2  501    0  0.30947302317E+02 -0.24063229294E+02 -0.13378142602E+04  0.13383884972E+04  0.00000000000E+00 0. -1.
          1    1    1    2  502    0  0.57800822938E+01  0.39264047554E+02  0.38246095245E+03  0.38451457050E+03  0.00000000000E+00 0. -1.
         22    1    3    3    0    0 -0.43883815063E+02  0.42282103681E+02 -0.11437537763E+03  0.12959665322E+03  0.00000000000E+00 0. -1.
         22    1    3    3    0    0  0.71564304523E+01 -0.57482921941E+02 -0.29187167634E+02  0.64864409087E+02  0.00000000000E+00 0. -1.
</event>
<event>
 7    1  0.6278987E-006  0.1807818E+03  0.7818608E-02  0.1379061E+00
          2   -1    0    0  502    0  0.00000000000E+00  0.00000000000E+00  0.18082942910E+04  0.18082942910E+04  0.00000000000E+00 0. -1.
          1   -1    0    0  501    0 -0.00000000000E+00 -0.00000000000E+00 -0.30388944036E+03  0.30388944036E+03  0.00000000000E+00 0. -1.
         25    2    1    2    0    0 -0.61085422607E+02  0.17755839870E+03 -0.74051277540E+02  0.23741887541E+03  0.12500286753E+03 0.  0.
          2    1    1    2  501    0  0.38486062076E+02 -0.17247710401E+03 -0.95348091010E+02  0.20080036564E+03  0.00000000000E+00 0. -1.
          1    1    1    2  502    0  0.22599360531E+02 -0.50812946973E+01  0.16738042192E+04  0.16739644904E+04  0.00000000000E+00 0. -1.
         22    1    3    3    0    0 -0.73246572280E+02  0.10608903253E+03  0.64568488253E+01  0.12907995224E+03  0.00000000000E+00 0.  1.
         22    1    3    3    0    0  0.12161149673E+02  0.71469366173E+02 -0.80508126365E+02  0.10833892317E+03  0.00000000000E+00 0.  1.
</event>
<event>
 7    1  0.6278987E-006  0.8875345E+02  0.7818608E-02  0.1485087E+00
          2   -1    0    0  502    0  0.00000000000E+00  0.00000000000E+00  0.53410565022E+02  0.53410565022E+02  0.00000000000E+00 0. -1.
          1   -1    0    0  501    0 -0.00000000000E+00 -0.00000000000E+00 -0.16759673405E+04  0.16759673405E+04  0.00000000000E+00 0. -1.
         25    2    1    2    0    0  0.31356096970E+02  0.10129321638E+03 -0.28769148716E+03  0.33111062694E+03  0.12499733991E+03 0.  0.
          2    1    1    2  501    0 -0.10586010182E+02 -0.18307458042E+02 -0.13086135198E+04  0.13087843867E+04  0.00000000000E+00 0. -1.
          1    1    1    2  502    0 -0.20770086788E+02 -0.82985758342E+02 -0.26251768526E+02  0.89482891904E+02  0.00000000000E+00 0. -1.
         22    1    3    3    0    0  0.20836743800E+02  0.76184064839E+02 -0.29292692579E+03  0.30338814328E+03  0.00000000000E+00 0. -1.
         22    1    3    3    0    0  0.10519353170E+02  0.25109151545E+02  0.52354386361E+01  0.27722483658E+02  0.00000000000E+00 0. -1.
</event>
<event>
 7    1  0.6278987E-006  0.5380256E+02  0.7818608E-02  0.1433505E+00
          2   -1    0    0  502    0  0.00000000000E+00  0.00000000000E+00  0.11430888325E+04  0.11430888325E+04  0.00000000000E+00 0. -1.
          1   -1    0    0  501    0 -0.00000000000E+00 -0.00000000000E+00 -0.47816794961E+02  0.47816794961E+02  0.00000000000E+00 0. -1.
         25    2    1    2    0    0 -0.42466925886E+02  0.12090889660E+02  0.42173220570E+03  0.44207813563E+03  0.12500158105E+03 0.  0.
          2    1    1    2  501    0  0.39613357527E+02  0.38596204984E+02 -0.15879357721E+02  0.57541629585E+02  0.00000000000E+00 0. -1.
          1    1    1    2  502    0  0.28535683592E+01 -0.50687094644E+02  0.68941918961E+03  0.69128586230E+03  0.00000000000E+00 0. -1.
         22    1    3    3    0    0  0.36597381069E+02 -0.78280478536E+00  0.24898502723E+03  0.25166152839E+03  0.00000000000E+00 0. -1.
         22    1    3    3    0    0 -0.79064306955E+02  0.12873694445E+02  0.17274717847E+03  0.19041660724E+03  0.00000000000E+00 0. -1.
</event>
<event>
 7    1  0.6278987E-006  0.8907563E+02  0.7818608E-02  0.1436588E+00
          2   -1    0    0  502    0  0.00000000000E+00  0.00000000000E+00  0.12479066392E+04  0.12479066392E+04  0.00000000000E+00 0. -1.
          1   -1    0    0  501    0 -0.00000000000E+00 -0.00000000000E+00 -0.12226135700E+04  0.12226135700E+04  0.00000000000E+00 0. -1.
         25    2    1    2    0    0  0.58190907767E+02  0.97597841554E+02  0.61526660020E+02  0.17978360851E+03  0.12500038229E+03 0.  0.
          2    1    1    2  501    0 -0.57454615288E+02 -0.67646321375E+02 -0.11615928735E+04  0.11649785669E+04  0.00000000000E+00 0. -1.
          1    1    1    2  502    0 -0.73629247859E+00 -0.29951520179E+02  0.11253592826E+04  0.11257580338E+04  0.00000000000E+00 0. -1.
         22    1    3    3    0    0  0.72359092426E+02  0.28627216923E+02 -0.11128905701E+02  0.78607940741E+02  0.00000000000E+00 0. -1.
         22    1    3    3    0    0 -0.14168184659E+02  0.68970624631E+02  0.72655565721E+02  0.10117566777E+03  0.00000000000E+00 0. -1.
</event>
<event>
 7    1  0.6278987E-006  0.1473056E+03  0.7818608E-02  0.1297722E+00
          2   -1    0    0  502    0  0.00000000000E+00  0.00000000000E+00  0.15552497132E+04  0.15552497132E+04  0.00000000000E+00 0. -1.
          1   -1    0    0  501    0 -0.00000000000E+00 -0.00000000000E+00 -0.51810755831E+03  0.51810755831E+03  0.00000000000E+00 0. -1.
         25    2    1    2    0    0  0.32144175504E+02  0.12929645015E+03  0.29924820320E+03  0.35060711912E+03  0.12500017927E+03 0.  0.
          2    1    1    2  501    0 -0.53860117587E+02  0.20555367817E+02 -0.48605946399E+03  0.48946627866E+03  0.00000000000E+00 0. -1.
          1    1    1    2  502    0  0.21715942083E+02 -0.14985181797E+03  0.12239534156E+04  0.12332838737E+04  0.00000000000E+00 0. -1.
         22    1    3    3    0    0  0.85422790997E+01  0.76105704941E+02  0.42990018775E+02  0.87824771967E+02  0.00000000000E+00 0.  1.
         22    1    3    3    0    0  0.23601896405E+02  0.53190745212E+02  0.25625818442E+03  0.26278234715E+03  0.00000000000E+00 0.  1.
</event>
<event>
 7    1  0.6278987E-006  0.1143404E+03  0.7818608E-02  0.1450786E+00
          2   -1    0    0  502    0  0.00000000000E+00  0.00000000000E+00  0.27383143219E+03  0.27383143219E+03  0.00000000000E+00 0. -1.
          1   -1    0    0  501    0 -0.00000000000E+00 -0.00000000000E+00 -0.53452710715E+03  0.53452710715E+03  0.00000000000E+00 0. -1.
         25    2    1    2    0    0 -0.66390463340E+02  0.71509514083E+02  0.95374796923E+02  0.18504860101E+03  0.12500131448E+03 0.  0.
          2    1    1    2  501    0  0.68797469732E+02 -0.92373660361E+02 -0.48203606853E+03  0.49560544421E+03  0.00000000000E+00 0. -1.
          1    1    1    2  502    0 -0.24070063924E+01  0.20864146277E+02  0.12596559665E+03  0.12770449412E+03  0.00000000000E+00 0. -1.
         22    1    3    3    0    0 -0.34413546836E+02  0.74839549207E+02  0.11929884606E+03  0.14497401492E+03  0.00000000000E+00 0.  1.
         22    1    3    3    0    0 -0.31976916504E+02 -0.33300351235E+01 -0.23924049138E+02  0.40074586089E+02  0.00000000000E+00 0.  1.
</event>
<event>
 7    1  0.6278987E-006  0.1038595E+03  0.7818608E-02  0.1316730E+00
          2   -1    0    0  502    0  0.00000000000E+00  0.00000000000E+00  0.83694285716E+03  0.83694285716E+03  0.00000000000E+00 0. -1.
          1   -1    0    0  501    0 -0.00000000000E+00 -0.00000000000E+00 -0.12853067696E+04  0.12853067696E+04  0.00000000000E+00 0. -1.
         25    2    1    2    0    0  0.11132197293E+03  0.11571791341E+03  0.11020559672E+03  0.23141670881E+03  0.12500080971E+03 0.  0.
          2    1    1    2  501    0 -0.90136368494E+02 -0.50304235823E+02 -0.12207428486E+04  0.12250992545E+04  0.00000000000E+00 0. -1.
          1    1    1    2  502    0 -0.21185604439E+02 -0.65413677582E+02  0.66217333947E+03  0.66573366338E+03  0.00000000000E+00 0. -1.
         22    1    3    3    0    0  0.54873586669E+02  0.21432571700E+01  0.86396496893E+02  0.10237215803E+03  0.00000000000E+00 0. -1.
         22    1    3    3    0    0  0.56448386264E+02  0.11357465624E+03  0.23809099829E+02  0.12904455078E+03  0.00000000000E+00 0. -1.
</event>
<event>
 7    1  0.6278987E-006  0.8301681E+02  0.7818608E-02  0.1339480E+00
          2   -1    0    0  502    0  0.00000000000E+00  0.00000000000E+00  0.73649217538E+03  0.73649217538E+03  0.00000000000E+00 0. -1.
          1   -1    0    0  501    0 -0.00000000000E+00 -0.00000000000E+00 -0.23569744938E+03  0.23569744938E+03  0.00000000000E+00 0. -1.
         25    2    1    2    0    0 -0.53203427892E+02  0.28318980052E+02  0.34521380103E+03  0.37206121614E+03  0.12499764304E+03 0.  0.
          2    1    1    2  501    0 -0.44552702369E+02 -0.54479810659E+02 -0.20964477156E+03  0.22114231459E+03  0.00000000000E+00 0. -1.
          1    1    1    2  502    0  0.97756130261E+02  0.26160830607E+02  0.36522569654E+03  0.37898609403E+03  0.00000000000E+00 0. -1.
         22    1    3    3    0    0  0.40512535764E+02  0.50323344820E+00  0.11599343269E+03  0.12286576100E+03  0.00000000000E+00 0.  1.
         22    1    3    3    0    0 -0.93715963656E+02  0.27815746603E+02  0.22922036833E+03  0.24919545514E+03  0.00000000000E+00 0.  1.
</event>
<event>
 7    1  0.6278987E-006  0.6756568E+02  0.7818608E-02  0.1517000E+00
          2   -1    0    0  502    0  0.00000000000E+00  0.00000000000E+00  0.33698314708E+03  0.33698314708E+03  0.00000000000E+00 0. -1.
          1   -1    0    0  501    0 -0.00000000000E+00 -0.00000000000E+00 -0.18737179817E+03  0.18737179817E+03  0.00000000000E+00 0. -1.
         25    2    1    2    0    0 -0.72372096014E+02 -0.17914153402E+02  0.10649392977E+03  0.18034545834E+03  0.12499956037E+03 0.  0.
          2    1    1    2  501    0  0.67254300602E+02 -0.38069548855E+01 -0.14220264215E+03  0.15735064438E+03  0.00000000000E+00 0. -1.
          1    1    1    2  502    0  0.51177954126E+01  0.21721108287E+02  0.18532006129E+03  0.18665884252E+03  0.00000000000E+00 0. -1.
         22    1    3    3    0    0  0.16319156591E+02 -0.42583453949E+02  0.64916543963E+02  0.79333618991E+02  0.00000000000E+00 0. -1.
         22    1    3    3    0    0 -0.88691252606E+02  0.24669300547E+02  0.41577385812E+02  0.10101183935E+03  0.00000000000E+00 0. -1.
</event>
<event>
 7    1  0.6278987E-006  0.1060336E+03  0.7818608E-02  0.1447869E+00
          2   -1    0    0  502    0  0.00000000000E+00  0.00000000000E+00  0.55402162655E+03  0.55402162655E+03  0.00000000000E+00 0. -1.
          1   -1    0    0  501    0 -0.00000000000E+00 -0.00000000000E+00 -0.25750367075E+03  0.25750367075E+03  0.00000000000E+00 0. -1.
         25    2    1    2    0    0  0.58723910211E+02 -0.10760300118E+03  0.10611390148E+03  0.20472434579E+03  0.12499997671E+03 0.  0.
          2    1    1    2  501    0 -0.61635464774E+02  0.84646473276E+02 -0.19466383796E+03  0.22103838075E+03  0.00000000000E+00 0. -1.
          1    1    1    2  502    0  0.29115545626E+01  0.22956527904E+02  0.38506789229E+03  0.38576257075E+03  0.00000000000E+00 0. -1.
         22    1    3    3    0    0  0.70755116373E+02 -0.12337805041E+03  0.11507987180E+03  0.18295301777E+03  0.00000000000E+00 0.  1.
         22    1    3    3    0    0 -0.12031206162E+02  0.15775049229E+02 -0.89659703249E+01  0.21771328020E+02  0.00000000000E+00 0.  1.
</event>
<event>
 7    1  0.6278987E-006  0.5998671E+02  0.7818608E-02  0.1487565E+00
          2   -1    0    0  502    0  0.00000000000E+00  0.00000000000E+00  0.73523036306E+03  0.73523036306E+03  0.00000000000E+00 0. -1.
          1   -1    0    0  501    0 -0.00000000000E+00 -0.00000000000E+00 -0.12017343277E+04  0.12017343277E+04  0.00000000000E+00 0. -1.
         25    2    1    2    0    0  0.60010281831E+02 -0.17269368837E+02 -0.60761999924E+02  0.15238451538E+03  0.12501821814E+03 0.  0.
          2    1    1    2  501    0 -0.42452208505E+02  0.42514842614E+02 -0.10939934849E+04  0.10956420250E+04  0.00000000000E+00 0. -1.
          1    1    1    2  502    0 -0.17558073326E+02 -0.25245473777E+02  0.68825152025E+03  0.68893815035E+03  0.00000000000E+00 0. -1.
         22    1    3    3    0    0 -0.34111651676E+02 -0.26273153093E+02 -0.70149589382E+01  0.43624454179E+02  0.00000000000E+00 0. -1.
         22    1    3    3    0    0  0.94121933507E+02  0.90037842555E+01 -0.53747040986E+02  0.10876006120E+03  0.00000000000E+00 0. -1.
</event>
<event>
 7    1  0.6278987E-006  0.6744016E+02  0.7818608E-02  0.1424986E+00
          2   -1    0    0  502    0  0.00000000000E+00  0.00000000000E+00  0.17091008621E+04  0.17091008621E+04  0.00000000000E+00 0. -1.
          1   -1    0    0  501    0 -0.00000000000E+00 -0.00000000000E+00 -0.71930852818E+02  0.71930852818E+02  0.00000000000E+00 0. -1.
         25    2    1    2    0    0  0.32347491224E+02 -0.10513359748E+02  0.25576188385E+03  0.28669977977E+03  0.12500292623E+03 0.  0.
          2    1    1    2  501    0 -0.69519433297E+02 -0.11509257993E+02 -0.34017469891E+02  0.78247063097E+02  0.00000000000E+00 0. -1.
          1    1    1    2  502    0  0.37171942072E+02  0.22022617741E+02  0.14154255953E+04  0.14160848720E+04  0.00000000000E+00 0. -1.
         22    1    3    3    0    0 -0.42147598547E+02 -0.25391370388E+02  0.66208304553E+02  0.82490492453E+02  0.00000000000E+00 0. -1.
         22    1    3    3    0    0  0.74495089771E+02  0.14878010640E+02  0.18955357930E+03  0.20420928732E+03  0.00000000000E+00 0. -1.
</event>
<event>
 7    1  0.6278987E-006  0.2352902E+03  0.7818608E-02  0.1272070E+00
          2   -1    0    0  502    0  0.00000000000E+00  0.00000000000E+00  0.23657081757E+03  0.23657081757E+03  0.00000000000E+00 0. -1.
          1   -1    0    0  501    0 -0.00000000000E+00 -0.00000000000E+00 -0.14697712721E+04  0.14697712721E+04  0.00000000000E+00 0. -1.
         25    2    1    2    0    0 -0.23218238407E+01  0.22889375545E+03 -0.25630925896E+03  0.36567346544E+03  0.12499961979E+03 0.  0.
          2    1    1    2  501    0  0.45724719437E+02  0.48661469171E+01 -0.10803862113E+04  0.10813643211E+04  0.00000000000E+00 0. -1.
          1    1    1    2  502    0 -0.43402895596E+02 -0.23375990237E+03  0.10349501579E+03  0.25930430308E+03  0.00000000000E+00 0. -1.
         22    1    3    3    0    0 -0.98296857955E+01  0.16637010380E+03 -0.93469797264E+02  0.19108175518E+03  0.00000000000E+00 0.  1.
         22    1    3    3    0    0  0.75078619548E+01  0.62523651654E+02 -0.16283946169E+03  0.17459171026E+03  0.00000000000E+00 0.  1.
</event>
<event>
 7    1  0.6278987E-006  0.1492270E+03  0.7818608E-02  0.1301373E+00
          2   -1    0    0  502    0  0.00000000000E+00  0.00000000000E+00  0.13371457325E+04  0.13371457325E+04  0.00000000000E+00 0. -1.
          1   -1    0    0  501    0 -0.00000000000E+00 -0.00000000000E+00 -0.10616430790E+03  0.10616430790E+03  0.00000000000E+00 0. -1.
         25    2    1    2    0    0  0.18030152413E+03  0.64810097856E+02  0.44903008653E+03  0.50394606328E+03  0.12499851077E+03 0.  0.
          2    1    1    2  501    0 -0.12550895694E+03 -0.69828676605E+02 -0.11426770240E+02  0.14408023260E+03  0.00000000000E+00 0. -1.
          1    1    1    2  502    0 -0.54792567194E+02  0.50185787489E+01  0.79337810832E+03  0.79528374453E+03  0.00000000000E+00 0. -1.
         22    1    3    3    0    0 -0.15018837459E+02  0.96762420856E+01  0.10484393145E+02  0.20715154818E+02  0.00000000000E+00 0.  1.
         22    1    3    3    0    0  0.19532036159E+03  0.55133855771E+02  0.43854569338E+03  0.48323090846E+03  0.00000000000E+00 0.  1.
</event>
<event>
 7    1  0.6278987E-006  0.6880904E+03  0.7818608E-02  0.1084522E+00
          2   -1    0    0  502    0  0.00000000000E+00  0.00000000000E+00  0.35769192185E+04  0.35769192185E+04  0.00000000000E+00 0. -1.
          1   -1    0    0  501    0 -0.00000000000E+00 -0.00000000000E+00 -0.96468368577E+03  0.96468368577E+03  0.00000000000E+00 0. -1.
         25    2    1    2    0    0 -0.19254243799E+03 -0.58002939174E+03  0.17683134901E+03  0.64838327426E+03  0.12499943456E+03 0.  0.
          2    1    1    2  501    0  0.29929413750E+03  0.65776819081E+03 -0.54797147777E+03  0.90692266155E+03  0.00000000000E+00 0. -1.
          1    1    1    2  502    0 -0.10675169952E+03 -0.77738799063E+02  0.29833756615E+04  0.29862969684E+04  0.00000000000E+00 0. -1.
         22    1    3    3    0    0 -0.14134267189E+02 -0.22454556929E+03  0.45711799651E+02  0.22958671308E+03  0.00000000000E+00 0.  1.
         22    1    3    3    0    0 -0.17840817080E+03 -0.35548382246E+03  0.13111954936E+03  0.41879656119E+03  0.00000000000E+00 0.  1.
</event>
<event>
 7    1  0.6278987E-006  0.7742698E+02  0.7818608E-02  0.1403948E+00
          2   -1    0    0  502    0  0.00000000000E+00  0.00000000000E+00  0.55919508176E+03  0.55919508176E+03  0.00000000000E+00 0. -1.
          1   -1    0    0  501    0 -0.00000000000E+00 -0.00000000000E+00 -0.52993385593E+03  0.52993385593E+03  0.00000000000E+00 0. -1.
         25    2    1    2    0    0 -0.38895020674E+02 -0.13171775638E+02  0.37712973660E+02  0.13687375516E+03  0.12500335261E+03 0.  0.
          2    1    1    2  501    0 -0.22706025704E+02 -0.38038749039E+02 -0.47591770122E+03  0.47797507086E+03  0.00000000000E+00 0. -1.
          1    1    1    2  502    0  0.61601046378E+02  0.51210524678E+02  0.46746595338E+03  0.47428011167E+03  0.00000000000E+00 0. -1.
         22    1    3    3    0    0 -0.62202133970E+02 -0.50070025544E+02  0.46431098538E+02  0.92368608520E+02  0.00000000000E+00 0. -1.
         22    1    3    3    0    0  0.23307113296E+02  0.36898249906E+02 -0.87181248779E+01  0.44505146643E+02  0.00000000000E+00 0. -1.
</event>
<event>
 7    1  0.6278987E-006  0.7758404E+02  0.7818608E-02  0.1355088E+00
          2   -1    0    0  502    0  0.00000000000E+00  0.00000000000E+00  0.40307327854E+03  0.40307327854E+03  0.00000000000E+00 0. -1.
          1   -1    0    0  501    0 -0.00000000000E+00 -0.00000000000E+00 -0.34372148010E+03  0.34372148010E+03  0.00000000000E+00 0. -1.
         25    2    1    2    0    0 -0.34976593110E+02  0.37828810905E+01 -0.10542730043E+03  0.16726555351E+03  0.12500070984E+03 0.  0.
          2    1    1    2  501    0 -0.32415687191E+01  0.65800550608E+02 -0.19773659525E+03  0.20842260273E+03  0.00000000000E+00 0. -1.
          1    1    1    2  502    0  0.38218161829E+02 -0.69583431699E+02  0.36251569412E+03  0.37110660240E+03  0.00000000000E+00 0. -1.
         22    1    3    3    0    0 -0.48665891171E+01 -0.25409972256E+02 -0.12008425411E+03  0.12283964533E+03  0.00000000000E+00 0.  1.
         22    1    3    3    0    0 -0.30110003992E+02  0.29192853346E+02  0.14656953673E+02  0.44425908183E+02  0.00000000000E+00 0.  1.
</event>
<event>
 7    1  0.6278987E-006  0.9698715E+02  0.7818608E-02  0.1337079E+00
          2   -1    0    0  502    0  0.00000000000E+00  0.00000000000E+00  0.25077867859E+03  0.25077867859E+03  0.00000000000E+00 0. -1.
          1   -1    0    0  501    0 -0.00000000000E+00 -0.00000000000E+00 -0.12347237901E+04  0.12347237901E+04  0.00000000000E+00 0. -1.
         25    2    1    2    0    0 -0.14725717129E+03  0.44059837840E+02 -0.75077019866E+02  0.21186804553E+03  0.12500226397E+03 0.  0.
          2    1    1    2  501    0  0.57877975336E+02 -0.20822640867E+02 -0.10786281154E+04  0.10803805134E+04  0.00000000000E+00 0. -1.
          1    1    1    2  502    0  0.89379195956E+02 -0.23237196972E+02  0.16976002372E+03  0.19325390979E+03  0.00000000000E+00 0. -1.
         22    1    3    3    0    0 -0.16263233783E+03  0.15270793296E+02 -0.50382971981E+02  0.17094127150E+03  0.00000000000E+00 0. -1.
         22    1    3    3    0    0  0.15375166536E+02  0.28789044544E+02 -0.24694047885E+02  0.40926774033E+02  0.00000000000E+00 0. -1.
</event>
<event>
 7    1  0.6278987E-006  0.1023944E+03  0.7818608E-02  0.1311452E+00
          2   -1    0    0  502    0  0.00000000000E+00  0.00000000000E+00  0.12774295080E+04  0.12774295080E+04  0.00000000000E+00 0. -1.
          1   -1    0    0  501    0 -0.00000000000E+00 -0.00000000000E+00 -0.31574094916E+02  0.31574094916E+02  0.00000000000E+00 0. -1.
         25    2    1    2    0    0 -0.99689506089E+01 -0.13349699436E+01  0.35107886207E+03  0.37280606043E+03  0.12500731652E+03 0.  0.
          2    1    1    2  501    0  0.32559882719E+02 -0.98536303863E+02  0.13873707829E+03  0.17325566667E+03  0.00000000000E+00 0. -1.
          1    1    1    2  502    0 -0.22590932110E+02  0.99871273807E+02  0.75603947275E+03  0.76294187583E+03  0.00000000000E+00 0. -1.
         22    1    3    3    0    0  0.54453448306E+02  0.18623947520E+02  0.14658423133E+03  0.15747687553E+03  0.00000000000E+00 0.  1.
         22    1    3    3    0    0 -0.64422398915E+02 -0.19958917464E+02  0.20449463074E+03  0.21532918490E+03  0.00000000000E+00 0.  1.
</event>
<event>
 7    1  0.6550379E-006  0.9107403E+02  0.7818608E-02  0.1412540E+00
          2   -1    0    0  502    0  0.00000000000E+00  0.00000000000E+00  0.18666524047E+04  0.18666524047E+04  0.00000000000E+00 0. -1.
          1   -1    0    0  501    0 -0.00000000000E+00 -0.00000000000E+00 -0.61809573127E+03  0.61809573127E+03  0.00000000000E+00 0. -1.
         25    2    1    2    0    0 -0.71317808380E+02 -0.34861877530E+02 -0.70078330804E+02  0.16381790787E+03  0.12499501667E+03 0.  0.
          2    1    1    2  501    0  0.10872978103E+02 -0.33493178799E+02 -0.49938340225E+03  0.50062340849E+03  0.00000000000E+00 0. -1.
          1    1    1    2  502    0  0.60444830277E+02  0.68355056329E+02  0.18180184065E+04  0.18203068196E+04  0.00000000000E+00 0. -1.
         22    1    3    3    0    0 -0.41435813927E+02 -0.48013138634E+02 -0.10073236549E+03  0.11903443878E+03  0.00000000000E+00 0. -1.
         22    1    3    3    0    0 -0.29881994453E+02  0.13151261104E+02  0.30654034688E+02  0.44783469091E+02  0.00000000000E+00 0. -1.
</event>
<event>
 7    1  0.6278987E-006  0.1431185E+03  0.7818608E-02  0.1393078E+00
          2   -1    0    0  502    0  0.00000000000E+00  0.00000000000E+00  0.13651331305E+03  0.13651331305E+03  0.00000000000E+00 0. -1.
          1   -1    0    0  501    0 -0.00000000000E+00 -0.00000000000E+00 -0.78308084201E+03  0.78308084201E+03  0.00000000000E+00 0. -1.
         25    2    1    2    0    0 -0.17445016398E+02  0.11998466055E+03 -0.26640618974E+03  0.31827294765E+03  0.12499905564E+03 0.  0.
          2    1    1    2  501    0  0.23053726267E+01  0.26023521539E+02 -0.44146939074E+03  0.44224174541E+03  0.00000000000E+00 0. -1.
          1    1    1    2  502    0  0.15139643771E+02 -0.14600818209E+03  0.61308051525E+02  0.15907946201E+03  0.00000000000E+00 0. -1.
         22    1    3    3    0    0  0.10146896315E+02  0.11379987431E+03 -0.10751341601E+03  0.15688373249E+03  0.00000000000E+00 0.  1.
         22    1    3    3    0    0 -0.27591912713E+02  0.61847862448E+01 -0.15889277372E+03  0.16138921516E+03  0.00000000000E+00 0.  1.
</event>
<event>
 7    1  0.6278987E-006  0.1692586E+03  0.7818608E-02  0.1337499E+00
          2   -1    0    0  502    0  0.00000000000E+00  0.00000000000E+00  0.38361869854E+03  0.38361869854E+03  0.00000000000E+00 0. -1.
          1   -1    0    0  501    0 -0.00000000000E+00 -0.00000000000E+00 -0.44315314656E+03  0.44315314656E+03  0.00000000000E+00 0. -1.
         25    2    1    2    0    0  0.39226359132E+02  0.15638481338E+03  0.23351438192E+03  0.31007914441E+03  0.12500076852E+03 0.  0.
          2    1    1    2  501    0 -0.67998924939E+01 -0.16986596589E+03 -0.38359336423E+03  0.41957663661E+03  0.00000000000E+00 0. -1.
          1    1    1    2  502    0 -0.32426466638E+02  0.13481152507E+02  0.90544534298E+02  0.97116064082E+02  0.00000000000E+00 0. -1.
         22    1    3    3    0    0  0.58783282778E+02  0.57788443543E+02  0.17581143758E+03  0.19417682695E+03  0.00000000000E+00 0.  1.
         22    1    3    3    0    0 -0.19556923646E+02  0.98596369837E+02  0.57702944344E+02  0.11590231746E+03  0.00000000000E+00 0.  1.
</event>
<event>
 7    1  0.6278987E-006  0.6984755E+02  0.7818608E-02  0.1404226E+00
          2   -1    0    0  502    0  0.00000000000E+00  0.00000000000E+00  0.12758840636E+03  0.12758840636E+03  0.00000000000E+00 0. -1.
          1   -1    0    0  501    0 -0.00000000000E+00 -0.00000000000E+00 -0.10273597105E+04  0.10273597105E+04  0.00000000000E+00 0. -1.
         25    2    1    2    0    0  0.22982438612E+02  0.65011496777E+02 -0.91748004561E+03  0.92852033450E+03  0.12500276113E+03 0.  0.
          2    1    1    2  501    0  0.38132561250E+02 -0.30772052717E+02 -0.87350188570E+02  0.10015521404E+03  0.00000000000E+00 0. -1.
          1    1    1    2  502    0 -0.61114999861E+02 -0.34239444059E+02  0.10505893002E+03  0.12627256833E+03  0.00000000000E+00 0. -1.
         22    1    3    3    0    0 -0.30055839077E+01 -0.22021968895E+02 -0.35556077461E+02  0.41931316377E+02  0.00000000000E+00 0.  1.
         22    1    3    3    0    0  0.25988022519E+02  0.87033465672E+02 -0.88192396815E+03  0.88658901812E+03  0.00000000000E+00 0.  1.
</event>
<event>
 7    1  0.6278987E-006  0.7039548E+02  0.7818608E-02  0.1376929E+00
          2   -1    0    0  502    0  0.00000000000E+00  0.00000000000E+00  0.48129169085E+03  0.48129169085E+03  0.00000000000E+00 0. -1.
          1   -1    0    0  501    0 -0.00000000000E+00 -0.00000000000E+00 -0.95531376565E+03  0.95531376565E+03  0.00000000000E+00 0. -1.
         25    2    1    2    0    0  0.23695233487E+01  0.24254695125E+02 -0.11703273738E+03  0.17296173341E+03  0.12500077891E+03 0.  0.
          2    1    1    2  501    0 -0.55975886612E+02  0.23041277753E+02 -0.80635666298E+03  0.80862554269E+03  0.00000000000E+00 0. -1.
          1    1    1    2  502    0  0.53606363263E+02 -0.47295972878E+02  0.44936732555E+03  0.45501818041E+03  0.00000000000E+00 0. -1.
         22    1    3    3    0    0  0.16104566201E+02  0.62728284556E+02 -0.20160511235E+02  0.67828024806E+02  0.00000000000E+00 0. -1.
         22    1    3    3    0    0 -0.13735042852E+02 -0.38473589431E+02 -0.96872226144E+02  0.10513370860E+03  0.00000000000E+00 0. -1.
</event>
<event>
 7    1  0.6278987E-006  0.6602462E+02  0.7818608E-02  0.1477657E+00
          2   -1    0    0  502    0  0.00000000000E+00  0.00000000000E+00  0.13621133087E+04  0.13621133087E+04  0.00000000000E+00 0. -1.
          1   -1    0    0  501    0 -0.00000000000E+00 -0.00000000000E+00 -0.30615040824E+03  0.30615040824E+03  0.00000000000E+00 0. -1.
         25    2    1    2    0    0  0.28642303333E+02 -0.47571511048E+02  0.41557851335E+02  0.14295206727E+03  0.12499923330E+03 0.  0.
          2    1    1    2  501    0 -0.23534333374E+02 -0.18534668676E+02 -0.25370599589E+03  0.25546845430E+03  0.00000000000E+00 0. -1.
          1    1    1    2  502    0 -0.51079699598E+01  0.66106179724E+02  0.12681110450E+04  0.12698431954E+04  0.00000000000E+00 0. -1.
         22    1    3    3    0    0 -0.21659017318E+02  0.33977767357E+02  0.59320021118E+01  0.40728250083E+02  0.00000000000E+00 0.  1.
         22    1    3    3    0    0  0.50301320652E+02 -0.81549278405E+02  0.35625849223E+02  0.10222381719E+03  0.00000000000E+00 0.  1.
</event>
<event>
 7    1  0.6278987E-006  0.9618691E+02  0.7818608E-02  0.1301510E+00
          2   -1    0    0  502    0  0.00000000000E+00  0.00000000000E+00  0.15554769858E+04  0.15554769858E+04  0.00000000000E+00 0. -1.
          1   -1    0    0  501    0 -0.00000000000E+00 -0.00000000000E+00 -0.15132072268E+03  0.15132072268E+03  0.00000000000E+00 0. -1.
         25    2    1    2    0    0  0.31886219084E+02  0.39894008179E+02  0.51420969246E+03  0.53164332224E+03  0.12499900566E+03 0.  0.
          2    1    1    2  501    0  0.83634166267E+02 -0.16545199672E+02 -0.12614366479E+03  0.15225190169E+03  0.00000000000E+00 0. -1.
          1    1    1    2  502    0 -0.11552038535E+03 -0.23348808507E+02  0.10160902355E+04  0.10229024846E+04  0.00000000000E+00 0. -1.
         22    1    3    3    0    0  0.67977962001E+02  0.21215223136E+02  0.45037766243E+03  0.45597272707E+03  0.00000000000E+00 0.  1.
         22    1    3    3    0    0 -0.36091742918E+02  0.18678785043E+02  0.63832030022E+02  0.75670595175E+02  0.00000000000E+00 0.  1.
</event>
<event>
 7    1  0.6278987E-006  0.1146675E+03  0.7818608E-02  0.1284842E+00
          2   -1    0    0  502    0  0.00000000000E+00  0.00000000000E+00  0.43651058237E+03  0.43651058237E+03  0.00000000000E+00 0. -1.
          1   -1    0    0  501    0 -0.00000000000E+00 -0.00000000000E+00 -0.17849825155E+04  0.17849825155E+04  0.00000000000E+00 0. -1.
         25    2    1    2    0    0  0.71499562744E+02 -0.70300996514E+02 -0.64895719602E+03  0.66845027884E+03  0.12500366166E+03 0.  0.
          2    1    1    2  501    0 -0.70453167691E+02 -0.44876429245E+02 -0.11169188452E+04  0.11200380571E+04  0.00000000000E+00 0. -1.
          1    1    1    2  502    0 -0.10463950535E+01  0.11517742576E+03  0.41740410810E+03  0.43300476187E+03  0.00000000000E+00 0. -1.
         22    1    3    3    0    0 -0.31940300450E+02  0.37215608954E+01 -0.10467990471E+03  0.10950760366E+03  0.00000000000E+00 0. -1.
         22    1    3    3    0    0  0.10343986319E+03 -0.74022557410E+02 -0.54427729131E+03  0.55894267518E+03  0.00000000000E+00 0. -1.
</event>
<event>
 7    1  0.6278987E-006  0.8568419E+02  0.7818608E-02  0.1393532E+00
          2   -1    0    0  502    0  0.00000000000E+00  0.00000000000E+00  0.16162775554E+04  0.16162775554E+04  0.00000000000E+00 0. -1.
          1   -1    0    0  501    0 -0.00000000000E+00 -0.00000000000E+00 -0.57250511468E+02  0.57250511468E+02  0.00000000000E+00 0. -1.
         25    2    1    2    0    0 -0.15666520472E+02 -0.42420230807E+02  0.62702647565E+02  0.14699024613E+03  0.12501837705E+03 0.  0.
          2    1    1    2  501    0  0.19805723191E+01 -0.43433870273E+02  0.20350817455E+02  0.48006036336E+02  0.00000000000E+00 0. -1.
          1    1    1    2  502    0  0.13685948153E+02  0.85854101080E+02  0.14759735789E+04  0.14785317844E+04  0.00000000000E+00 0. -1.
         22    1    3    3    0    0 -0.52099793891E+02 -0.66598802761E+02  0.22280808677E+02  0.87442686875E+02  0.00000000000E+00 0.  1.
         22    1    3    3    0    0  0.36433273419E+02  0.24178571955E+02  0.40421838887E+02  0.59547559252E+02  0.00000000000E+00 0.  1.
</event>
<event>
 7    1  0.6278987E-006  0.9936390E+02  0.7818608E-02  0.1331739E+00
          2   -1    0    0  502    0  0.00000000000E+00  0.00000000000E+00  0.22180879711E+03  0.22180879711E+03  0.00000000000E+00 0. -1.
          1   -1    0    0  501    0 -0.00000000000E+00 -0.00000000000E+00 -0.37037726746E+03  0.37037726746E+03  0.00000000000E+00 0. -1.
         25    2    1    2    0    0 -0.14624803921E+03  0.80948087243E+01 -0.10558965576E+03  0.21960853208E+03  0.12499886822E+03 0.  0.
          2    1    1    2  501    0  0.89495739824E+02  0.19039971940E+02 -0.19097739973E+03  0.21176490547E+03  0.00000000000E+00 0. -1.
          1    1    1    2  502    0  0.56752299388E+02 -0.27134780664E+02  0.14799858514E+03  0.16081262703E+03  0.00000000000E+00 0. -1.
         22    1    3    3    0    0 -0.91240277073E+02  0.18126069313E+02  0.76285782705E+01  0.93335618901E+02  0.00000000000E+00 0.  1.
         22    1    3    3    0    0 -0.55007762139E+02 -0.10031260588E+02 -0.11321823403E+03  0.12627291318E+03  0.00000000000E+00 0.  1.
</event>
<event>
 7    1  0.6278987E-006  0.2268569E+03  0.7818608E-02  0.1204399E+00
          2   -1    0    0  502    0  0.00000000000E+00  0.00000000000E+00  0.21266425993E+04  0.21266425993E+04  0.00000000000E+00 0. -1.
          1   -1    0    0  501    0 -0.00000000000E+00 -0.00000000000E+00 -0.23617894814E+03  0.23617894814E+03  0.00000000000E+00 0. -1.
         25    2    1    2    0    0  0.14398179773E+03 -0.21163899135E+02  0.51935796494E+03  0.55365668723E+03  0.12499745139E+03 0.  0.
          2    1    1    2  501    0 -0.23679058291E+03  0.60400700310E+00 -0.15311497900E+03  0.28198287496E+03  0.00000000000E+00 0. -1.
          1    1    1    2  502    0  0.92808785176E+02  0.20559892132E+02  0.15242206652E+04  0.15271819853E+04  0.00000000000E+00 0. -1.
         22    1    3    3    0    0  0.65706479669E+02  0.37485119063E+02  0.35001692415E+03  0.35809820275E+03  0.00000000000E+00 0. -1.
         22    1    3    3    0    0  0.78275318061E+02 -0.58649018198E+02  0.16934104080E+03  0.19555848448E+03  0.00000000000E+00 0. -1.
</event>
<event>
 7    1  0.6278987E-006  0.9902838E+02  0.7818608E-02  0.1327657E+00
          2   -1    0    0  502    0  0.00000000000E+00  0.00000000000E+00  0.11511519569E+04  0.11511519569E+04  0.00000000000E+00 0. -1.
          1   -1    0    0  501    0 -0.00000000000E+00 -0.00000000000E+00 -0.67539240078E+03  0.67539240078E+03  0.00000000000E+00 0. -1.
         25    2    1    2    0    0  0.11010848830E+03  0.74247641322E+02  0.33919741027E+03  0.38511852473E+03  0.12499921409E+03 0.  0.
          2    1    1    2  501    0 -0.46030631384E+02 -0.87467615352E+02 -0.64731767875E+03  0.65482026540E+03  0.00000000000E+00 0. -1.
          1    1    1    2  502    0 -0.64077856913E+02  0.13219974029E+02  0.78387982462E+03  0.78660556756E+03  0.00000000000E+00 0. -1.
         22    1    3    3    0    0  0.59246559646E+02  0.10417774800E+03  0.26055040502E+03  0.28679203539E+03  0.00000000000E+00 0.  1.
         22    1    3    3    0    0  0.50861928652E+02 -0.29930106679E+02  0.78647005252E+02  0.98326489346E+02  0.00000000000E+00 0.  1.
</event>
<event>
 7    1  0.6278987E-006  0.7567183E+02  0.7818608E-02  0.1387598E+00
          2   -1    0    0  502    0  0.00000000000E+00  0.00000000000E+00  0.75902615267E+03  0.75902615267E+03  0.00000000000E+00 0. -1.
          1   -1    0    0  501    0 -0.00000000000E+00 -0.00000000000E+00 -0.54980639109E+03  0.54980639109E+03  0.00000000000E+00 0. -1.
         25    2    1    2    0    0 -0.46350603471E+02 -0.11645717290E+03  0.18200552571E+02  0.17795151364E+03  0.12499931813E+03 0.  0.
          2    1    1    2  501    0  0.13012003196E+02  0.49967812330E+02 -0.46640913383E+03  0.46925853708E+03  0.00000000000E+00 0. -1.
          1    1    1    2  502    0  0.33338600275E+02  0.66489360568E+02  0.65742834284E+03  0.66162249305E+03  0.00000000000E+00 0. -1.
         22    1    3    3    0    0 -0.26289645834E+02 -0.15254443170E+02 -0.46950781613E+02  0.55930487291E+02  0.00000000000E+00 0.  1.
         22    1    3    3    0    0 -0.20060957637E+02 -0.10120272973E+03  0.65151334185E+02  0.12202102635E+03  0.00000000000E+00 0.  1.
</event>
<event>
 7    1  0.6278987E-006  0.1545219E+03  0.7818608E-02  0.1268524E+00
          2   -1    0    0  502    0  0.00000000000E+00  0.00000000000E+00  0.37582500577E+04  0.37582500577E+04  0.00000000000E+00 0. -1.
          1   -1    0    0  501    0 -0.00000000000E+00 -0.00000000000E+00 -0.35899506733E+03  0.35899506733E+03  0.00000000000E+00 0. -1.
         25    2    1    2    0    0  0.94597203130E+02 -0.47096363305E+02  0.26052050757E+04  0.26103421258E+04  0.12500331662E+03 0.  0.
          2    1    1    2  501    0 -0.98621588605E+02  0.11944397101E+03 -0.33838487812E+03  0.37215239579E+03  0.00000000000E+00 0. -1.
          1    1    1    2  502    0  0.40243854755E+01 -0.72347607707E+02  0.11324347928E+04  0.11347506034E+04  0.00000000000E+00 0. -1.
         22    1    3    3    0    0  0.65330319509E+02 -0.65726668615E+02  0.24282738740E+04  0.24300415742E+04  0.00000000000E+00 0. -1.
         22    1    3    3    0    0  0.29266883621E+02  0.18630305310E+02  0.17693120175E+03  0.18030055160E+03  0.00000000000E+00 0. -1.
</event>
<event>
 7    1  0.6278987E-006  0.1519277E+03  0.7818608E-02  0.1275882E+00
          2   -1    0    0  502    0  0.00000000000E+00  0.00000000000E+00  0.63330268249E+03  0.63330268249E+03  0.00000000000E+00 0. -1.
          1   -1    0    0  501    0 -0.00000000000E+00 -0.00000000000E+00 -0.11906074972E+04  0.11906074972E+04  0.00000000000E+00 0. -1.
         25    2    1    2    0    0 -0.33353524856E+02  0.20367273234E+03  0.11964964533E+03  0.26932464368E+03  0.12499874618E+03 0.  0.
          2    1    1    2  501    0  0.57275078234E+02 -0.13932196573E+03 -0.11079566494E+04  0.11181498029E+04  0.00000000000E+00 0. -1.
          1    1    1    2  502    0 -0.23921553378E+02 -0.64350766603E+02  0.43100218939E+03  0.43643573311E+03  0.00000000000E+00 0. -1.
         22    1    3    3    0    0  0.14670006408E+01  0.11770218325E+03 -0.27988896240E+00  0.11771165775E+03  0.00000000000E+00 0. -1.
         22    1    3    3    0    0 -0.34820525497E+02  0.85970549087E+02  0.11992953429E+03  0.15161298593E+03  0.00000000000E+00 0. -1.
</event>
<event>
 7    1  0.6278987E-006  0.2057245E+03  0.7818608E-02  0.1163948E+00
          2   -1    0    0  502    0  0.00000000000E+00  0.00000000000E+00  0.36513247326E+03  0.36513247326E+03  0.00000000000E+00 0. -1.
          1   -1    0    0  501    0 -0.00000000000E+00 -0.00000000000E+00 -0.12464236011E+04  0.12464236011E+04  0.00000000000E+00 0. -1.
         25    2    1    2    0    0  0.36381257474E+02  0.25246894211E+03 -0.47139862207E+02  0.28794285942E+03  0.12499904422E+03 0.  0.
          2    1    1    2  501    0 -0.14470501283E+03 -0.78537727825E+02 -0.10282639556E+04  0.10413618381E+04  0.00000000000E+00 0. -1.
          1    1    1    2  502    0  0.10832375536E+03 -0.17393121429E+03  0.19411269002E+03  0.28225137680E+03  0.00000000000E+00 0. -1.
         22    1    3    3    0    0 -0.30055989401E+02  0.10759558203E+03  0.22590434694E+02  0.11397587249E+03  0.00000000000E+00 0. -1.
         22    1    3    3    0    0  0.66437246876E+02  0.14487336008E+03 -0.69730296901E+02  0.17396698693E+03  0.00000000000E+00 0. -1.
</event>
<event>
 7    1  0.6278987E-006  0.5618429E+02  0.7818608E-02  0.1423655E+00
          2   -1    0    0  502    0  0.00000000000E+00  0.00000000000E+00  0.17493866047E+04  0.17493866047E+04  0.00000000000E+00 0. -1.
          1   -1    0    0  501    0 -0.00000000000E+00 -0.00000000000E+00 -0.30976002911E+03  0.30976002911E+03  0.00000000000E+00 0. -1.
         25    2    1    2    0    0 -0.43097180378E+02  0.48474414561E+02  0.37702038279E+03  0.40246308608E+03  0.12500012317E+03 0.  0.
          2    1    1    2  501    0 -0.13698919686E+02 -0.50569353342E+02 -0.29412885094E+03  0.29875859963E+03  0.00000000000E+00 0. -1.
          1    1    1    2  502    0  0.56796100064E+02  0.20949387810E+01  0.13567350437E+04  0.13579249481E+04  0.00000000000E+00 0. -1.
         22    1    3    3    0    0 -0.48156337297E+02 -0.17577363392E+02  0.61502825018E+02  0.80066185190E+02  0.00000000000E+00 0. -1.
         22    1    3    3    0    0  0.50591569188E+01  0.66051777954E+02  0.31551755777E+03  0.32239690089E+03  0.00000000000E+00 0. -1.
</event>
<event>
 7    1  0.6278987E-006  0.7048190E+02  0.7818608E-02  0.1438464E+00
          2   -1    0    0  502    0  0.00000000000E+00  0.00000000000E+00  0.38900345776E+03  0.38900345776E+03  0.00000000000E+00 0. -1.
          1   -1    0    0  501    0 -0.00000000000E+00 -0.00000000000E+00 -0.58722166743E+03  0.58722166743E+03  0.00000000000E+00 0. -1.
         25    2    1    2    0    0 -0.74003643927E+02 -0.28996017181E+01  0.12089706236E+03  0.18900351290E+03  0.12498512390E+03 0.  0.
          2    1    1    2  501    0  0.10773385758E+02  0.35747383502E+02 -0.54709446751E+03  0.54836693705E+03  0.00000000000E+00 0. -1.
          1    1    1    2  502    0  0.63230258169E+02 -0.32847781784E+02  0.22797919548E+03  0.23885467525E+03  0.00000000000E+00 0. -1.
         22    1    3    3    0    0 -0.63481992522E+02 -0.52725800279E+02  0.10898657350E+03  0.13670423034E+03  0.00000000000E+00 0.  1.
         22    1    3    3    0    0 -0.10521651405E+02  0.49826198561E+02  0.11910488857E+02  0.52299282559E+02  0.00000000000E+00 0.  1.
</event>
<event>
 7    1  0.6278987E-006  0.1006767E+03  0.7818608E-02  0.1401060E+00
          2   -1    0    0  502    0  0.00000000000E+00  0.00000000000E+00  0.22318894470E+04  0.22318894470E+04  0.00000000000E+00 0. -1.
          1   -1    0    0  501    0 -0.00000000000E+00 -0.00000000000E+00 -0.10910905039E+03  0.10910905039E+03  0.00000000000E+00 0. -1.
         25    2    1    2    0    0  0.11808080916E+03  0.63646907892E+02  0.19959324708E+03  0.27102141018E+03  0.12498453551E+03 0.  0.
          2    1    1    2  501    0 -0.32159976644E+02 -0.13438901960E+02 -0.67942938907E+02  0.76361712467E+02  0.00000000000E+00 0. -1.
          1    1    1    2  502    0 -0.85920832520E+02 -0.50208005932E+02  0.19911300884E+04  0.19936153747E+04  0.00000000000E+00 0. -1.
         22    1    3    3    0    0  0.12392052284E+03  0.36541598117E+02  0.88699196940E+02  0.15671353455E+03  0.00000000000E+00 0. -1.
         22    1    3    3    0    0 -0.58397136742E+01  0.27105309774E+02  0.11089405014E+03  0.11430787563E+03  0.00000000000E+00 0. -1.
</event>
<event>
 7    1  0.6278987E-006  0.1614722E+03  0.7818608E-02  0.1204615E+00
          2   -1    0    0  502    0  0.00000000000E+00  0.00000000000E+00  0.95193836871E+03  0.95193836871E+03  0.00000000000E+00 0. -1.
          1   -1    0    0  501    0 -0.00000000000E+00 -0.00000000000E+00 -0.36959698359E+03  0.36959698359E+03  0.00000000000E+00 0. -1.
         25    2    1    2    0    0  0.17948007595E+03  0.88999534288E+00  0.13738295872E+03  0.25828538478E+03  0.12499349139E+03 0.  0.
          2    1    1    2  501    0 -0.11659506739E+03  0.11657702033E+03 -0.28065630028E+03  0.32550356418E+03  0.00000000000E+00 0. -1.
          1    1    1    2  502    0 -0.62885008561E+02 -0.11746701567E+03  0.72561472669E+03  0.73774640335E+03  0.00000000000E+00 0. -1.
         22    1    3    3    0    0  0.18447171822E+03  0.20495741689E+02  0.14614556288E+03  0.23623804901E+03  0.00000000000E+00 0. -1.
         22    1    3    3    0    0 -0.49916422753E+01 -0.19605746346E+02 -0.87626041699E+01  0.22047335763E+02  0.00000000000E+00 0. -1.
</event>
<event>
 7    1  0.6278987E-006  0.1868722E+03  0.7818608E-02  0.1346951E+00
          2   -1    0    0  502    0  0.00000000000E+00  0.00000000000E+00  0.64416509801E+03  0.64416509801E+03  0.00000000000E+00 0. -1.
          1   -1    0    0  501    0 -0.00000000000E+00 -0.00000000000E+00 -0.84704398315E+03  0.84704398315E+03  0.00000000000E+00 0. -1.
         25    2    1    2    0    0 -0.82369656180E+02 -0.19120525903E+03 -0.12508980300E+03  0.27316119971E+03  0.12500148348E+03 0.  0.
          2    1    1    2  501    0  0.25240754842E+02  0.14908507722E+02 -0.63251017783E+03  0.63318913791E+03  0.00000000000E+00 0. -1.
          1    1    1    2  502    0  0.57128901338E+02  0.17629675131E+03  0.55472109569E+03  0.58485874354E+03  0.00000000000E+00 0. -1.
         22    1    3    3    0    0 -0.10469383903E+03 -0.92831825380E+02 -0.89947904511E+02  0.16634053402E+03  0.00000000000E+00 0.  1.
         22    1    3    3    0    0  0.22324182846E+02 -0.98373433654E+02 -0.35141898486E+02  0.10682066569E+03  0.00000000000E+00 0.  1.
</event>
<event>
 7    1  0.6278987E-006  0.5550219E+02  0.7818608E-02  0.1542698E+00
          2   -1    0    0  502    0  0.00000000000E+00  0.00000000000E+00  0.73421247004E+02  0.73421247004E+02  0.00000000000E+00 0. -1.
          1   -1    0    0  501    0 -0.00000000000E+00 -0.00000000000E+00 -0.50732794782E+03  0.50732794782E+03  0.00000000000E+00 0. -1.
         25    2    1    2    0    0 -0.61533835109E+02 -0.23960130168E+02 -0.29022917314E+03  0.32282905441E+03  0.12500049891E+03 0.  0.
          2    1    1    2  501    0  0.63744544823E+01  0.22025126088E+02 -0.18659867552E+03  0.18800214242E+03  0.00000000000E+00 0. -1.
          1    1    1    2  502    0  0.55159380626E+02  0.19350040803E+01  0.42921147841E+02  0.69917997996E+02  0.00000000000E+00 0. -1.
         22    1    3    3    0    0  0.12118011284E+02 -0.57289594402E+02 -0.96032953207E+02  0.11247787305E+03  0.00000000000E+00 0. -1.
         22    1    3    3    0    0 -0.73651846392E+02  0.33329464234E+02 -0.19419621993E+03  0.21035118136E+03  0.00000000000E+00 0. -1.
</event>
<event>
 7    1  0.6278987E-006  0.5646730E+02  0.7818608E-02  0.1418918E+00
          2   -1    0    0  502    0  0.00000000000E+00  0.00000000000E+00  0.24086537330E+04  0.24086537330E+04  0.00000000000E+00 0. -1.
          1   -1    0    0  501    0 -0.00000000000E+00 -0.00000000000E+00 -0.25561268989E+03  0.25561268989E+03  0.00000000000E+00 0. -1.
         25    2    1    2    0    0 -0.10499865167E+01  0.12325613909E+02  0.45490651625E+03  0.47193543687E+03  0.12502037761E+03 0.  0.
          2    1    1    2  501    0 -0.52579218340E+02  0.12565379965E+02 -0.24368610897E+03  0.24961046188E+03  0.00000000000E+00 0. -1.
          1    1    1    2  502    0  0.53629204857E+02 -0.24890993874E+02  0.19418206358E+04  0.19427205242E+04  0.00000000000E+00 0. -1.
         22    1    3    3    0    0  0.56320474542E+02 -0.16598030465E+02  0.16933594615E+03  0.17922654135E+03  0.00000000000E+00 0. -1.
         22    1    3    3    0    0 -0.57370461059E+02  0.28923644374E+02  0.28557057010E+03  0.29270889551E+03  0.00000000000E+00 0. -1.
</event>
<event>
 7    1  0.6278987E-006  0.5906232E+02  0.7818608E-02  0.1454938E+00
          2   -1    0    0  502    0  0.00000000000E+00  0.00000000000E+00  0.33388064687E+04  0.33388064687E+04  0.00000000000E+00 0. -1.
          1   -1    0    0  501    0 -0.00000000000E+00 -0.00000000000E+00 -0.24075885679E+02  0.24075885679E+02  0.00000000000E+00 0. -1.
         25    2    1    2    0    0  0.35496918152E+01 -0.32173987976E+02  0.13137906757E+04  0.13201206688E+04  0.12499949886E+03 0.  0.
          2    1    1    2  501    0  0.30693266727E+02  0.51741329884E+02  0.22966140974E+02  0.64394762767E+02  0.00000000000E+00 0. -1.
          1    1    1    2  502    0 -0.34242958542E+02 -0.19567341908E+02  0.19779737664E+04  0.19783669229E+04  0.00000000000E+00 0. -1.
         22    1    3    3    0    0  0.24998053169E+02  0.43646251755E+02  0.49832464953E+03  0.50085662048E+03  0.00000000000E+00 0. -1.
         22    1    3    3    0    0 -0.21448361354E+02 -0.75820239732E+02  0.81546602616E+03  0.81926404827E+03  0.00000000000E+00 0. -1.
</event>
<event>
 7    1  0.6278987E-006  0.6632174E+02  0.7818608E-02  0.1389719E+00
          2   -1    0    0  502    0  0.00000000000E+00  0.00000000000E+00  0.10501876560E+04  0.10501876560E+04  0.00000000000E+00 0. -1.
          1   -1    0    0  501    0 -0.00000000000E+00 -0.00000000000E+00 -0.18265145943E+02  0.18265145943E+02  0.00000000000E+00 0. -1.
         25    2    1    2    0    0 -0.43137236339E+02  0.14404508474E+02  0.46374249016E+03  0.48244198770E+03  0.12499945316E+03 0.  0.
          2    1    1    2  501    0 -0.27587724928E+02 -0.50923310345E+02  0.16041823657E+03  0.17055285611E+03  0.00000000000E+00 0. -1.
          1    1    1    2  502    0  0.70724961266E+02  0.36518801872E+02  0.40776178335E+03  0.41545795815E+03  0.00000000000E+00 0. -1.
         22    1    3    3    0    0 -0.58298993227E+02 -0.36119883972E+01  0.85967122218E+02  0.10393346513E+03  0.00000000000E+00 0. -1.
         22    1    3    3    0    0  0.15161756889E+02  0.18016496871E+02  0.37777536795E+03  0.37850852257E+03  0.00000000000E+00 0. -1.
</event>
<event>
 7    1  0.6278987E-006  0.2060571E+03  0.7818608E-02  0.1225186E+00
          2   -1    0    0  502    0  0.00000000000E+00  0.00000000000E+00  0.54644613269E+03  0.54644613269E+03  0.00000000000E+00 0. -1.
          1   -1    0    0  501    0 -0.00000000000E+00 -0.00000000000E+00 -0.75556536321E+03  0.75556536321E+03  0.00000000000E+00 0. -1.
         25    2    1    2    0    0 -0.26776919992E+03 -0.68936030425E+02 -0.21269065073E+03  0.37056008375E+03  0.12499976820E+03 0.  0.
          2    1    1    2  501    0  0.83266926759E+02 -0.10865570311E+02 -0.43815829599E+03  0.44613241762E+03  0.00000000000E+00 0. -1.
          1    1    1    2  502    0  0.18450227316E+03  0.79801600736E+02  0.44172971619E+03  0.48531899452E+03  0.00000000000E+00 0. -1.
         22    1    3    3    0    0 -0.57686642337E+02 -0.14911374050E+02  0.91618622842E+01  0.60282978532E+02  0.00000000000E+00 0. -1.
         22    1    3    3    0    0 -0.21008255758E+03 -0.54024656374E+02 -0.22185251301E+03  0.31027710522E+03  0.00000000000E+00 0. -1.
</event>
<event>
 7    1  0.6278987E-006  0.3898521E+02  0.7818608E-02  0.1539381E+00
          2   -1    0    0  502    0  0.00000000000E+00  0.00000000000E+00  0.44253448727E+03  0.44253448727E+03  0.00000000000E+00 0. -1.
          1   -1    0    0  501    0 -0.00000000000E+00 -0.00000000000E+00 -0.13452068880E+04  0.13452068880E+04  0.00000000000E+00 0. -1.
         25    2    1    2    0    0 -0.27728394913E+02 -0.15629439701E+02  0.34973520262E+03  0.37276436320E+03  0.12500166100E+03 0.  0.
          2    1    1    2  501    0  0.30350771685E+02 -0.24467884413E+02 -0.13284227108E+04  0.13289946370E+04  0.00000000000E+00 0. -1.
          1    1    1    2  502    0 -0.26223767724E+01  0.40097324115E+02  0.76015107434E+02  0.85982375050E+02  0.00000000000E+00 0. -1.
         22    1    3    3    0    0  0.20151711779E+02  0.42861594261E+02  0.19338838508E+03  0.19910367961E+03  0.00000000000E+00 0.  1.
         22    1    3    3    0    0 -0.47880106692E+02 -0.58491033963E+02  0.15634681754E+03  0.17366068359E+03  0.00000000000E+00 0.  1.
</event>
<event>
 7    1  0.6278987E-006  0.1053391E+03  0.7818608E-02  0.1360594E+00
          2   -1    0    0  502    0  0.00000000000E+00  0.00000000000E+00  0.11359114318E+04  0.11359114318E+04  0.00000000000E+00 0. -1.
          1   -1    0    0  501    0 -0.00000000000E+00 -0.00000000000E+00 -0.21602236666E+03  0.21602236666E+03  0.00000000000E+00 0. -1.
         25    2    1    2    0    0  0.90655341354E+02 -0.75592923696E+02  0.20078830088E+03  0.26433588123E+03  0.12499934122E+03 0.  0.
          2    1    1    2  501    0 -0.47941221532E+02  0.93514093050E+02 -0.16861128070E+03  0.19867815758E+03  0.00000000000E+00 0. -1.
          1    1    1    2  502    0 -0.42714119821E+02 -0.17921169354E+02  0.88771204495E+03  0.88891975964E+03  0.00000000000E+00 0. -1.
         22    1    3    3    0    0  0.73196441729E+02 -0.44154112208E+02  0.21040840128E+03  0.22711010554E+03  0.00000000000E+00 0.  1.
         22    1    3    3    0    0  0.17458899625E+02 -0.31438811488E+02 -0.96201004057E+01  0.37225775690E+02  0.00000000000E+00 0.  1.
</event>
<event>
 7    1  0.6278987E-006  0.1408055E+03  0.7818608E-02  0.1379148E+00
          2   -1    0    0  502    0  0.00000000000E+00  0.00000000000E+00  0.34871420440E+04  0.34871420440E+04  0.00000000000E+00 0. -1.
          1   -1    0    0  501    0 -0.00000000000E+00 -0.00000000000E+00 -0.91724774966E+02  0.91724774966E+02  0.00000000000E+00 0. -1.
         25    2    1    2    0    0 -0.11989699505E+03 -0.16511380219E+02  0.12050434040E+04  0.12175389776E+04  0.12499456455E+03 0.  0.
          2    1    1    2  501    0 -0.28498816664E+02  0.84273424940E+01 -0.80389238559E+02  0.85706664437E+02  0.00000000000E+00 0. -1.
          1    1    1    2  502    0  0.14839581171E+03  0.80840377246E+01  0.22707631036E+04  0.22756211770E+04  0.00000000000E+00 0. -1.
         22    1    3    3    0    0 -0.43003579946E+02 -0.50487667893E+02  0.85395706228E+03  0.85652844478E+03  0.00000000000E+00 0. -1.
         22    1    3    3    0    0 -0.76893415105E+02  0.33976287675E+02  0.35108634176E+03  0.36101053278E+03  0.00000000000E+00 0. -1.
</event>
<event>
 7    1  0.6278987E-006  0.1446801E+03  0.7818608E-02  0.1229285E+00
          2   -1    0    0  502    0  0.00000000000E+00  0.00000000000E+00  0.25179923537E+04  0.25179923537E+04  0.00000000000E+00 0. -1.
          1   -1    0    0  501    0 -0.00000000000E+00 -0.00000000000E+00 -0.28022136680E+03  0.28022136680E+03  0.00000000000E+00 0. -1.
         25    2    1    2    0    0  0.31203658311E+02  0.10279329835E+02  0.10522120452E+04  0.10601201563E+04  0.12500089933E+03 0.  0.
          2    1    1    2  501    0 -0.14541966862E+03 -0.19872965031E+02 -0.25433429579E+03  0.29364561767E+03  0.00000000000E+00 0. -1.
          1    1    1    2  502    0  0.11421601031E+03  0.95936351967E+01  0.14398932375E+04  0.14444479465E+04  0.00000000000E+00 0. -1.
         22    1    3    3    0    0  0.16547987051E+02 -0.56817815283E+02  0.56512707041E+03  0.56821712902E+03  0.00000000000E+00 0.  1.
         22    1    3    3    0    0  0.14655671260E+02  0.67097145118E+02  0.48708497476E+03  0.49190302725E+03  0.00000000000E+00 0.  1.
</event>
<event>
 7    1  0.6278987E-006  0.1074310E+03  0.7818608E-02  0.1280606E+00
          2   -1    0    0  502    0  0.00000000000E+00  0.00000000000E+00  0.47033030071E+03  0.47033030071E+03  0.00000000000E+00 0. -1.
          1   -1    0    0  501    0 -0.00000000000E+00 -0.00000000000E+00 -0.20093961354E+03  0.20093961354E+03  0.00000000000E+00 0. -1.
         25    2    1    2    0    0  0.18836059854E+02  0.90373855222E+02  0.18474112609E+03  0.24140674369E+03  0.12500280546E+03 0.  0.
          2    1    1    2  501    0  0.73764328841E+02 -0.84151158852E+02 -0.14442308601E+03  0.18270364397E+03  0.00000000000E+00 0. -1.
          1    1    1    2  502    0 -0.92600388695E+02 -0.62226963700E+01  0.22907264709E+03  0.24715952659E+03  0.00000000000E+00 0. -1.
         22    1    3    3    0    0  0.13855274700E+02  0.63743248843E+02  0.19996093867E+03  0.21033199330E+03  0.00000000000E+00 0. -1.
         22    1    3    3    0    0  0.49807851547E+01  0.26630606379E+02 -0.15219812583E+02  0.31074750392E+02  0.00000000000E+00 0. -1.
</event>
<event>
 7    1  0.6278987E-006  0.4903541E+02  0.7818608E-02  0.1547787E+00
          2   -1    0    0  502    0  0.00000000000E+00  0.00000000000E+00  0.21795302655E+03  0.21795302655E+03  0.00000000000E+00 0. -1.
          1   -1    0    0  501    0 -0.00000000000E+00 -0.00000000000E+00 -0.17979660891E+03  0.17979660891E+03  0.00000000000E+00 0. -1.
         25    2    1    2    0    0 -0.21569567656E+02  0.12802105333E+02  0.64772564745E+02  0.14300372005E+03  0.12500175460E+03 0.  0.
          2    1    1    2  501    0  0.44724981585E+02 -0.22522910020E+02 -0.13473973082E+03  0.14374421906E+03  0.00000000000E+00 0. -1.
          1    1    1    2  502    0 -0.23155413929E+02  0.97208046869E+01  0.10812358371E+03  0.11100169635E+03  0.00000000000E+00 0. -1.
         22    1    3    3    0    0  0.49482341648E+02  0.24011836315E+02  0.34751795644E+02  0.65059647392E+02  0.00000000000E+00 0. -1.
         22    1    3    3    0    0 -0.71051909304E+02 -0.11209730982E+02  0.30020769101E+02  0.77944072654E+02  0.00000000000E+00 0. -1.
</event>
<event>
 7    1  0.6278987E-006  0.9848476E+02  0.7818608E-02  0.1318069E+00
          2   -1    0    0  502    0  0.00000000000E+00  0.00000000000E+00  0.70328818163E+03  0.70328818163E+03  0.00000000000E+00 0. -1.
          1   -1    0    0  501    0 -0.00000000000E+00 -0.00000000000E+00 -0.75887983964E+03  0.75887983964E+03  0.00000000000E+00 0. -1.
         25    2    1    2    0    0  0.48759489876E+01  0.69142051586E+02 -0.17230644928E+02  0.14396863927E+03  0.12500270314E+03 0.  0.
          2    1    1    2  501    0 -0.76475708486E+02 -0.66594783781E+02 -0.67246132247E+03  0.68006443035E+03  0.00000000000E+00 0. -1.
          1    1    1    2  502    0  0.71599759498E+02 -0.25472678049E+01  0.63410030939E+03  0.63813495164E+03  0.00000000000E+00 0. -1.
         22    1    3    3    0    0  0.54056286326E+02  0.47376754382E+02  0.24452941062E+02  0.75924865977E+02  0.00000000000E+00 0. -1.
         22    1    3    3    0    0 -0.49180337338E+02  0.21765297204E+02 -0.41683585989E+02  0.68043773293E+02  0.00000000000E+00 0. -1.
</event>
<event>
 7    1  0.6278987E-006  0.1050065E+03  0.7818608E-02  0.1348208E+00
          2   -1    0    0  502    0  0.00000000000E+00  0.00000000000E+00  0.39385431663E+03  0.39385431663E+03  0.00000000000E+00 0. -1.
          1   -1    0    0  501    0 -0.00000000000E+00 -0.00000000000E+00 -0.62222477542E+03  0.62222477542E+03  0.00000000000E+00 0. -1.
         25    2    1    2    0    0  0.10099284550E+03 -0.10056234229E+03  0.15147446577E+03  0.24265479760E+03  0.12499798994E+03 0.  0.
          2    1    1    2  501    0 -0.91561438178E+02  0.49820654791E+02 -0.56842792121E+03  0.57790647705E+03  0.00000000000E+00 0. -1.
          1    1    1    2  502    0 -0.94314073194E+01  0.50741687501E+02  0.18858299665E+03  0.19551781740E+03  0.00000000000E+00 0. -1.
         22    1    3    3    0    0 -0.28492206534E+02 -0.21024430085E+02  0.15183028339E+02  0.38527351883E+02  0.00000000000E+00 0. -1.
         22    1    3    3    0    0  0.12948505203E+03 -0.79537912208E+02  0.13629143743E+03  0.20412744572E+03  0.00000000000E+00 0. -1.
</event>
<event>
 7    1  0.6278987E-006  0.1210229E+03  0.7818608E-02  0.1334081E+00
          2   -1    0    0  502    0  0.00000000000E+00  0.00000000000E+00  0.37428362423E+03  0.37428362423E+03  0.00000000000E+00 0. -1.
          1   -1    0    0  501    0 -0.00000000000E+00 -0.00000000000E+00 -0.66121962699E+03  0.66121962699E+03  0.00000000000E+00 0. -1.
         25    2    1    2    0    0 -0.12999211891E+02  0.15800288564E+03  0.41637080234E+02  0.20613569576E+03  0.12499754893E+03 0.  0.
          2    1    1    2  501    0 -0.18567531980E+02 -0.47069400212E+02 -0.56449682067E+03  0.56676003937E+03  0.00000000000E+00 0. -1.
          1    1    1    2  502    0  0.31566743870E+02 -0.11093348542E+03  0.23592373767E+03  0.26260751608E+03  0.00000000000E+00 0. -1.
         22    1    3    3    0    0 -0.57439975789E+02  0.12987269809E+03  0.54303205319E+02  0.15203653060E+03  0.00000000000E+00 0.  1.
         22    1    3    3    0    0  0.44440763898E+02  0.28130187547E+02 -0.12666125085E+02  0.54099165169E+02  0.00000000000E+00 0.  1.
</event>
<event>
 7    1  0.6278987E-006  0.1434145E+03  0.7818608E-02  0.1221909E+00
          2   -1    0    0  502    0  0.00000000000E+00  0.00000000000E+00  0.80938151053E+03  0.80938151053E+03  0.00000000000E+00 0. -1.
          1   -1    0    0  501    0 -0.00000000000E+00 -0.00000000000E+00 -0.10802302505E+04  0.10802302505E+04  0.00000000000E+00 0. -1.
         25    2    1    2    0    0 -0.18448100084E+02 -0.67192817934E+01  0.94832484369E+02  0.15812525240E+03  0.12499965685E+03 0.  0.
          2    1    1    2  501    0 -0.46521473174E+02 -0.13565939664E+03 -0.10346057472E+04  0.10444983349E+04  0.00000000000E+00 0. -1.
          1    1    1    2  502    0  0.64969573257E+02  0.14237867843E+03  0.66892452290E+03  0.68698817374E+03  0.00000000000E+00 0. -1.
         22    1    3    3    0    0 -0.30517414696E+02 -0.51490279400E+02  0.89438146580E+01  0.60519032486E+02  0.00000000000E+00 0.  1.
         22    1    3    3    0    0  0.12069314612E+02  0.44770997607E+02  0.85888669711E+02  0.97606219917E+02  0.00000000000E+00 0.  1.
</event>
<event>
 7    1  0.6278987E-006  0.1264512E+03  0.7818608E-02  0.1371655E+00
          2   -1    0    0  502    0  0.00000000000E+00  0.00000000000E+00  0.66758223568E+03  0.66758223568E+03  0.00000000000E+00 0. -1.
          1   -1    0    0  501    0 -0.00000000000E+00 -0.00000000000E+00 -0.69739047444E+03  0.69739047444E+03  0.00000000000E+00 0. -1.
         25    2    1    2    0    0 -0.16013089243E+02  0.12122758747E+03  0.13550688265E+03  0.22122312263E+03  0.12500003100E+03 0.  0.
          2    1    1    2  501    0 -0.34988952255E+02 -0.37780971552E+01 -0.64566646982E+03  0.64662484568E+03  0.00000000000E+00 0. -1.
          1    1    1    2  502    0  0.51002041498E+02 -0.11744949032E+03  0.48035134840E+03  0.49712474182E+03  0.00000000000E+00 0. -1.
         22    1    3    3    0    0  0.15994434126E+02 -0.20724603869E+02  0.37676467311E+02  0.45878615036E+02  0.00000000000E+00 0. -1.
         22    1    3    3    0    0 -0.32007523369E+02  0.14195219134E+03  0.97830415341E+02  0.17534450760E+03  0.00000000000E+00 0. -1.
</event>
<event>
 7    1  0.6278987E-006  0.5097915E+02  0.7818608E-02  0.1495780E+00
          2   -1    0    0  502    0  0.00000000000E+00  0.00000000000E+00  0.87346219954E+03  0.87346219954E+03  0.00000000000E+00 0. -1.
          1   -1    0    0  501    0 -0.00000000000E+00 -0.00000000000E+00 -0.77157237976E+03  0.77157237976E+03  0.00000000000E+00 0. -1.
         25    2    1    2    0    0  0.38702959145E+02  0.15193218185E+02 -0.12410901690E+03  0.18098773274E+03  0.12499903360E+03 0.  0.
          2    1    1    2  501    0 -0.15643730738E+02  0.30385664195E+02 -0.61777934693E+03  0.61872395815E+03  0.00000000000E+00 0. -1.
          1    1    1    2  502    0 -0.23059228407E+02 -0.45578882380E+02  0.84377818361E+03  0.84532288841E+03  0.00000000000E+00 0. -1.
         22    1    3    3    0    0  0.80096465763E+02 -0.12254799018E+02 -0.65704197488E+02  0.10432001483E+03  0.00000000000E+00 0.  1.
         22    1    3    3    0    0 -0.41393506618E+02  0.27448017203E+02 -0.58404819409E+02  0.76667717904E+02  0.00000000000E+00 0.  1.
</event>
<event>
 7    1  0.6278987E-006  0.1943190E+03  0.7818608E-02  0.1205514E+00
          2   -1    0    0  502    0  0.00000000000E+00  0.00000000000E+00  0.19760719482E+03  0.19760719482E+03  0.00000000000E+00 0. -1.
          1   -1    0    0  501    0 -0.00000000000E+00 -0.00000000000E+00 -0.65913622868E+03  0.65913622868E+03  0.00000000000E+00 0. -1.
         25    2    1    2    0    0  0.41142721556E+02  0.20849986205E+03 -0.33624447323E+03  0.41695403228E+03  0.12500161296E+03 0.  0.
          2    1    1    2  501    0  0.64913839212E+02 -0.18065300017E+03 -0.22206683228E+03  0.29353533176E+03  0.00000000000E+00 0. -1.
          1    1    1    2  502    0 -0.10605656077E+03 -0.27846861878E+02  0.96782271666E+02  0.14625405946E+03  0.00000000000E+00 0. -1.
         22    1    3    3    0    0 -0.23074000364E+02  0.88459287632E+02 -0.21890059117E+03  0.23722336283E+03  0.00000000000E+00 0.  1.
         22    1    3    3    0    0  0.64216721921E+02  0.12004057442E+03 -0.11734388207E+03  0.17973066945E+03  0.00000000000E+00 0.  1.
</event>
<event>
 7    1  0.6278987E-006  0.8722399E+02  0.7818608E-02  0.1482198E+00
          2   -1    0    0  502    0  0.00000000000E+00  0.00000000000E+00  0.68839594602E+03  0.68839594602E+03  0.00000000000E+00 0. -1.
          1   -1    0    0  501    0 -0.00000000000E+00 -0.00000000000E+00 -0.12782798596E+04  0.12782798596E+04  0.00000000000E+00 0. -1.
         25    2    1    2    0    0 -0.19565001614E+02  0.63360291606E+02  0.96712270855E+02  0.17139353532E+03  0.12500065910E+03 0.  0.
          2    1    1    2  501    0  0.19267236956E+02 -0.85318240367E+02 -0.12391796096E+04  0.12422626668E+04  0.00000000000E+00 0. -1.
          1    1    1    2  502    0  0.29776465715E+00  0.21957948761E+02  0.55258342510E+03  0.55301960352E+03  0.00000000000E+00 0. -1.
         22    1    3    3    0    0 -0.13135298177E+01  0.10024862964E+03  0.71270331899E+02  0.12300802134E+03  0.00000000000E+00 0. -1.
         22    1    3    3    0    0 -0.18251471796E+02 -0.36888338034E+02  0.25441938956E+02  0.48385513983E+02  0.00000000000E+00 0. -1.
</event>
<event>
 7    1  0.6278987E-006  0.4435646E+02  0.7818608E-02  0.1550651E+00
          2   -1    0    0  502    0  0.00000000000E+00  0.00000000000E+00  0.77262975856E+03  0.77262975856E+03  0.00000000000E+00 0. -1.
          1   -1    0    0  501    0 -0.00000000000E+00 -0.00000000000E+00 -0.12931015224E+04  0.12931015224E+04  0.00000000000E+00 0. -1.
         25    2    1    2    0    0 -0.40493845335E+02  0.52383602343E+02 -0.50506994909E+02  0.15019297843E+03  0.12499272351E+03 0.  0.
          2    1    1    2  501    0  0.43390225469E+01 -0.26908024053E+02 -0.11919189875E+04  0.11922305740E+04  0.00000000000E+00 0. -1.
          1    1    1    2  502    0  0.36154822788E+02 -0.25475578290E+02  0.72195421860E+03  0.72330772847E+03  0.00000000000E+00 0. -1.
         22    1    3    3    0    0  0.26439603368E+02 -0.69985608270E+01  0.21940262111E+02  0.35062908913E+02  0.00000000000E+00 0. -1.
         22    1    3    3    0    0 -0.66933448703E+02  0.59382163170E+02 -0.72447257020E+02  0.11513006952E+03  0.00000000000E+00 0. -1.
</event>
<event>
 7    1  0.6278987E-006  0.5259070E+02  0.7818608E-02  0.1469846E+00
          2   -1    0    0  502    0  0.00000000000E+00  0.00000000000E+00  0.39494810444E+03  0.39494810444E+03  0.00000000000E+00 0. -1.
          1   -1    0    0  501    0 -0.00000000000E+00 -0.00000000000E+00 -0.11399108490E+03  0.11399108490E+03  0.00000000000E+00 0. -1.
         25    2    1    2    0    0 -0.53889651620E+02 -0.44481205826E+01 -0.34805279571E+02  0.14055423232E+03  0.12498081616E+03 0.  0.
          2    1    1    2  501    0  0.12710669283E+02  0.37674898253E+02 -0.78048079565E+01  0.40520045647E+02  0.00000000000E+00 0. -1.
          1    1    1    2  502    0  0.41178982337E+02 -0.33226777671E+02  0.32356710706E+03  0.32786491138E+03  0.00000000000E+00 0. -1.
         22    1    3    3    0    0 -0.84582731758E+02 -0.28783484026E+02 -0.45058108500E+02  0.10006478205E+03  0.00000000000E+00 0.  1.
         22    1    3    3    0    0  0.30693080138E+02  0.24335363443E+02  0.10252828929E+02  0.40489450272E+02  0.00000000000E+00 0.  1.
</event>
<event>
 7    1  0.6278987E-006  0.1047040E+03  0.7818608E-02  0.1328954E+00
          2   -1    0    0  502    0  0.00000000000E+00  0.00000000000E+00  0.63309888694E+03  0.63309888694E+03  0.00000000000E+00 0. -1.
          1   -1    0    0  501    0 -0.00000000000E+00 -0.00000000000E+00 -0.15746699992E+04  0.15746699992E+04  0.00000000000E+00 0. -1.
         25    2    1    2    0    0  0.60547792988E+02  0.17635778868E+02 -0.23023544366E+03  0.26946419065E+03  0.12500213835E+03 0.  0.
          2    1    1    2  501    0 -0.10843007123E+03  0.20442313422E+02 -0.13209891464E+04  0.13255894136E+04  0.00000000000E+00 0. -1.
          1    1    1    2  502    0  0.47882278245E+02 -0.38078092290E+02  0.60965347780E+03  0.61271528190E+03  0.00000000000E+00 0. -1.
         22    1    3    3    0    0  0.62120580693E+02 -0.96228372969E+01 -0.34251097711E+02  0.71587032608E+02  0.00000000000E+00 0.  1.
         22    1    3    3    0    0 -0.15727877045E+01  0.27258616165E+02 -0.19598434595E+03  0.19787715804E+03  0.00000000000E+00 0.  1.
</event>
<event>
 7    1  0.6278987E-006  0.1227361E+03  0.7818608E-02  0.1275661E+00
          2   -1    0    0  502    0  0.00000000000E+00  0.00000000000E+00  0.77067707903E+03  0.77067707903E+03  0.00000000000E+00 0. -1.
          1   -1    0    0  501    0 -0.00000000000E+00 -0.00000000000E+00 -0.16915289926E+04  0.16915289926E+04  0.00000000000E+00 0. -1.
         25    2    1    2    0    0 -0.22783674170E+02  0.38138530841E+02 -0.80837190715E+02  0.15534965376E+03  0.12500088071E+03 0.  0.
          2    1    1    2  501    0  0.43127502992E+02 -0.12083474845E+03 -0.15683349600E+04  0.15735741370E+04  0.00000000000E+00 0. -1.
          1    1    1    2  502    0 -0.20343828823E+02  0.82696217609E+02  0.72832023707E+03  0.73328228092E+03  0.00000000000E+00 0. -1.
         22    1    3    3    0    0 -0.60735710044E+02 -0.11966497738E+02 -0.13739781629E+02  0.63409818970E+02  0.00000000000E+00 0.  1.
         22    1    3    3    0    0  0.37952035874E+02  0.50105028579E+02 -0.67097409087E+02  0.91939834795E+02  0.00000000000E+00 0.  1.
</event>
<event>
 7    1  0.6278987E-006  0.1621192E+03  0.7818608E-02  0.1335784E+00
          2   -1    0    0  502    0  0.00000000000E+00  0.00000000000E+00  0.12272121229E+04  0.12272121229E+04  0.00000000000E+00 0. -1.
          1   -1    0    0  501    0 -0.00000000000E+00 -0.00000000000E+00 -0.90548485881E+02  0.90548485881E+02  0.00000000000E+00 0. -1.
         25    2    1    2    0    0  0.13053810566E+03 -0.13037643710E+03  0.35509722728E+03  0.41923421077E+03  0.12500028111E+03 0.  0.
          2    1    1    2  501    0 -0.12538296261E+03  0.93519940884E+02  0.47436233629E+02  0.16345354972E+03  0.00000000000E+00 0. -1.
          1    1    1    2  502    0 -0.51551430560E+01  0.36856496220E+02  0.73413017615E+03  0.73507284833E+03  0.00000000000E+00 0. -1.
         22    1    3    3    0    0  0.13430510425E+03 -0.14803701625E+03  0.29390757699E+03  0.35543562429E+03  0.00000000000E+00 0. -1.
         22    1    3    3    0    0 -0.37669985817E+01  0.17660579141E+02  0.61189650290E+02  0.63798586478E+02  0.00000000000E+00 0. -1.
</event>
<event>
 7    1  0.6278987E-006  0.9228306E+02  0.7818608E-02  0.1399650E+00
          2   -1    0    0  502    0  0.00000000000E+00  0.00000000000E+00  0.12416849527E+04  0.12416849527E+04  0.00000000000E+00 0. -1.
          1   -1    0    0  501    0 -0.00000000000E+00 -0.00000000000E+00 -0.21683755826E+03  0.21683755826E+03  0.00000000000E+00 0. -1.
         25    2    1    2    0    0 -0.31965504891E+02 -0.70588832309E+02  0.60845805718E+03  0.62598454215E+03  0.12502344950E+03 0.  0.
          2    1    1    2  501    0  0.69318318394E+02  0.61462038934E+02 -0.19713055739E+03  0.21781429740E+03  0.00000000000E+00 0. -1.
          1    1    1    2  502    0 -0.37352813502E+02  0.91267933759E+01  0.61351989468E+03  0.61472367142E+03  0.00000000000E+00 0. -1.
         22    1    3    3    0    0 -0.87534042563E+01 -0.82987465872E+02  0.20041528327E+03  0.21709405185E+03  0.00000000000E+00 0. -1.
         22    1    3    3    0    0 -0.23212100635E+02  0.12398633563E+02  0.40804277390E+03  0.40889049031E+03  0.00000000000E+00 0. -1.
</event>
<event>
 7    1  0.6278987E-006  0.6281701E+02  0.7818608E-02  0.1441402E+00
          2   -1    0    0  502    0  0.00000000000E+00  0.00000000000E+00  0.51401178094E+02  0.51401178094E+02  0.00000000000E+00 0. -1.
          1   -1    0    0  501    0 -0.00000000000E+00 -0.00000000000E+00 -0.11991901046E+04  0.11991901046E+04  0.00000000000E+00 0. -1.
         25    2    1    2    0    0  0.30236226712E+00 -0.10232498340E+03 -0.14696038477E+03  0.21838639382E+03  0.12499907465E+03 0.  0.
          2    1    1    2  501    0 -0.46841301163E+01  0.61578551435E+02 -0.98703409341E+03  0.98896418572E+03  0.00000000000E+00 0. -1.
          1    1    1    2  502    0  0.43817678492E+01  0.40746431964E+02 -0.13794448358E+02  0.43240703195E+02  0.00000000000E+00 0. -1.
         22    1    3    3    0    0  0.68894902859E+01  0.27180746854E+02 -0.46710079883E+02  0.54480176566E+02  0.00000000000E+00 0.  1.
         22    1    3    3    0    0 -0.65871280187E+01 -0.12950573025E+03 -0.10025030489E+03  0.16390621725E+03  0.00000000000E+00 0.  1.
</event>
<event>
 7    1  0.6278987E-006  0.5781564E+02  0.7818608E-02  0.1536038E+00
          2   -1    0    0  502    0  0.00000000000E+00  0.00000000000E+00  0.18054211234E+04  0.18054211234E+04  0.00000000000E+00 0. -1.
          1   -1    0    0  501    0 -0.00000000000E+00 -0.00000000000E+00 -0.38270643337E+03  0.38270643337E+03  0.00000000000E+00 0. -1.
         25    2    1    2    0    0  0.54738842347E+02 -0.25616445895E+02 -0.24511275047E+03  0.28170507595E+03  0.12499978484E+03 0.  0.
          2    1    1    2  501    0 -0.15568762058E+02 -0.16912833353E+02 -0.11771783380E+03  0.11994131347E+03  0.00000000000E+00 0. -1.
          1    1    1    2  502    0 -0.39170080289E+02  0.42529279248E+02  0.17855452743E+04  0.17864811673E+04  0.00000000000E+00 0. -1.
         22    1    3    3    0    0  0.31666109545E+02 -0.38068111527E+02 -0.17395667017E+02  0.52483643547E+02  0.00000000000E+00 0.  1.
         22    1    3    3    0    0  0.23072732801E+02  0.12451665632E+02 -0.22771708345E+03  0.22922143240E+03  0.00000000000E+00 0.  1.
</event>
<event>
 7    1  0.6278987E-006  0.9581528E+02  0.7818608E-02  0.1459444E+00
          2   -1    0    0  502    0  0.00000000000E+00  0.00000000000E+00  0.22835087348E+04  0.22835087348E+04  0.00000000000E+00 0. -1.
          1   -1    0    0  501    0 -0.00000000000E+00 -0.00000000000E+00 -0.50541070590E+03  0.50541070590E+03  0.00000000000E+00 0. -1.
         25    2    1    2    0    0  0.44818399894E+02  0.77988574979E+02  0.11577303846E+03  0.19266384281E+03  0.12500021239E+03 0.  0.
          2    1    1    2  501    0  0.21815450586E+02 -0.88049416228E+01 -0.46558488995E+03  0.46617886120E+03  0.00000000000E+00 0. -1.
          1    1    1    2  502    0 -0.66633850480E+02 -0.69183633356E+02  0.21279098804E+04  0.21300767367E+04  0.00000000000E+00 0. -1.
         22    1    3    3    0    0  0.31685861595E+02  0.11076052621E+03  0.10467357601E+03  0.15565489233E+03  0.00000000000E+00 0.  1.
         22    1    3    3    0    0  0.13132538299E+02 -0.32771951227E+02  0.11099462448E+02  0.37008950485E+02  0.00000000000E+00 0.  1.
</event>
<event>
 7    1  0.6278987E-006  0.1430457E+03  0.7818608E-02  0.1245360E+00
          2   -1    0    0  502    0  0.00000000000E+00  0.00000000000E+00  0.96191704420E+03  0.96191704420E+03  0.00000000000E+00 0. -1.
          1   -1    0    0  501    0 -0.00000000000E+00 -0.00000000000E+00 -0.13793703785E+04  0.13793703785E+04  0.00000000000E+00 0. -1.
         25    2    1    2    0    0  0.65186428571E+02 -0.41635950576E+02  0.28411261291E+02  0.14971426637E+03  0.12499735572E+03 0.  0.
          2    1    1    2  501    0 -0.14610824658E+03 -0.14341778904E+02 -0.13118380815E+04  0.13200274460E+04  0.00000000000E+00 0. -1.
          1    1    1    2  502    0  0.80921818011E+02  0.55977729480E+02  0.86597348589E+03  0.87154571027E+03  0.00000000000E+00 0. -1.
         22    1    3    3    0    0  0.28113453639E+02  0.44558925073E+02  0.44525047504E+01  0.52874274252E+02  0.00000000000E+00 0.  1.
         22    1    3    3    0    0  0.37072974932E+02 -0.86194875649E+02  0.23958756541E+02  0.96839992118E+02  0.00000000000E+00 0.  1.
</event>
<event>
 7    1  0.6278987E-006  0.4208169E+02  0.7818608E-02  0.1579411E+00
          2   -1    0    0  502    0  0.00000000000E+00  0.00000000000E+00  0.87637663736E+03  0.87637663736E+03  0.00000000000E+00 0. -1.
          1   -1    0    0  501    0 -0.00000000000E+00 -0.00000000000E+00 -0.74642449226E+03  0.74642449226E+03  0.00000000000E+00 0. -1.
         25    2    1    2    0    0  0.11633354450E+02 -0.37439915899E+02 -0.22370236726E+03  0.25923838791E+03  0.12499884163E+03 0.  0.
          2    1    1    2  501    0  0.12101452108E+02  0.40789934526E+02 -0.50389009579E+03  0.50568319385E+03  0.00000000000E+00 0. -1.
          1    1    1    2  502    0 -0.23734806559E+02 -0.33500186272E+01  0.85754460815E+03  0.85787954786E+03  0.00000000000E+00 0. -1.
         22    1    3    3    0    0  0.61128290404E+02 -0.15956516771E+02 -0.17679215485E+03  0.18774116313E+03  0.00000000000E+00 0.  1.
         22    1    3    3    0    0 -0.49494935954E+02 -0.21483399128E+02 -0.46910212406E+02  0.71497224779E+02  0.00000000000E+00 0.  1.
</event>
<event>
 7    1  0.6278987E-006  0.8509756E+02  0.7818608E-02  0.1343610E+00
          2   -1    0    0  502    0  0.00000000000E+00  0.00000000000E+00  0.13605197854E+04  0.13605197854E+04  0.00000000000E+00 0. -1.
          1   -1    0    0  501    0 -0.00000000000E+00 -0.00000000000E+00 -0.36225451242E+03  0.36225451242E+03  0.00000000000E+00 0. -1.
         25    2    1    2    0    0 -0.81780922999E+02 -0.58729194221E+02  0.42351967413E+03  0.45291811873E+03  0.12501468025E+03 0.  0.
          2    1    1    2  501    0 -0.37673023333E+01  0.66142116419E+02 -0.34237437393E+03  0.34872508378E+03  0.00000000000E+00 0. -1.
          1    1    1    2  502    0  0.85548225332E+02 -0.74129221975E+01  0.91711997274E+03  0.92113109527E+03  0.00000000000E+00 0. -1.
         22    1    3    3    0    0 -0.10999158290E+03 -0.61256431497E+02  0.28557178750E+03  0.31209252558E+03  0.00000000000E+00 0. -1.
         22    1    3    3    0    0  0.28210659898E+02  0.25272372754E+01  0.13794788662E+03  0.14082559314E+03  0.00000000000E+00 0. -1.
</event>
<event>
 7    1  0.6278987E-006  0.9441407E+02  0.7818608E-02  0.1323847E+00
          2   -1    0    0  502    0  0.00000000000E+00  0.00000000000E+00  0.20223948929E+04  0.20223948929E+04  0.00000000000E+00 0. -1.
          1   -1    0    0  501    0 -0.00000000000E+00 -0.00000000000E+00 -0.16745236306E+03  0.16745236306E+03  0.00000000000E+00 0. -1.
         25    2    1    2    0    0 -0.16088969716E+03  0.32042176016E+02  0.72325708119E+03  0.75208922708E+03  0.12500081719E+03 0.  0.
          2    1    1    2  501    0  0.91269803277E+02 -0.18214664755E+02 -0.13780248427E+03  0.16628732866E+03  0.00000000000E+00 0. -1.
          1    1    1    2  502    0  0.69619893884E+02 -0.13827511260E+02  0.12694879329E+04  0.12714707002E+04  0.00000000000E+00 0. -1.
         22    1    3    3    0    0 -0.31085386665E+02  0.64225285836E+02  0.21491956996E+03  0.22645443284E+03  0.00000000000E+00 0. -1.
         22    1    3    3    0    0 -0.12980431050E+03 -0.32183109820E+02  0.50833751124E+03  0.52563479423E+03  0.00000000000E+00 0. -1.
</event>
<event>
 7    1  0.6278987E-006  0.2255044E+03  0.7818608E-02  0.1253688E+00
          2   -1    0    0  502    0  0.00000000000E+00  0.00000000000E+00  0.15777020985E+04  0.15777020985E+04  0.00000000000E+00 0. -1.
          1   -1    0    0  501    0 -0.00000000000E+00 -0.00000000000E+00 -0.10964532234E+04  0.10964532234E+04  0.00000000000E+00 0. -1.
         25    2    1    2    0    0 -0.26357213880E+03  0.46656613016E+02 -0.52140506675E+03  0.59927912045E+03  0.12500043473E+03 0.  0.
          2    1    1    2  501    0  0.50901243167E+02  0.26594382314E+02 -0.52632078014E+03  0.52944476703E+03  0.00000000000E+00 0. -1.
          1    1    1    2  502    0  0.21267089563E+03 -0.73250995330E+02  0.15289747220E+04  0.15454314345E+04  0.00000000000E+00 0. -1.
         22    1    3    3    0    0 -0.76682033544E+02 -0.11762908842E+02 -0.26820377589E+03  0.27919843426E+03  0.00000000000E+00 0. -1.
         22    1    3    3    0    0 -0.18689010526E+03  0.58419521858E+02 -0.25320129086E+03  0.32008068619E+03  0.00000000000E+00 0. -1.
</event>
<event>
 7    1  0.6278987E-006  0.7757852E+02  0.7818608E-02  0.1447714E+00
          2   -1    0    0  502    0  0.00000000000E+00  0.00000000000E+00  0.13316447395E+04  0.13316447395E+04  0.00000000000E+00 0. -1.
          1   -1    0    0  501    0 -0.00000000000E+00 -0.00000000000E+00 -0.90488832064E+03  0.90488832064E+03  0.00000000000E+00 0. -1.
         25    2    1    2    0    0  0.65398386432E+02 -0.48717821608E+02 -0.24641476950E+02  0.15126793804E+03  0.12499764639E+03 0.  0.
          2    1    1    2  501    0  0.99363440953E+01  0.30064969669E+02 -0.81543881150E+03  0.81605336139E+03  0.00000000000E+00 0. -1.
          1    1    1    2  502    0 -0.75334730527E+02  0.18652851939E+02  0.12668367073E+04  0.12692117607E+04  0.00000000000E+00 0. -1.
         22    1    3    3    0    0  0.87745985649E+02  0.81384514039E+01 -0.12957453944E+02  0.89070129682E+02  0.00000000000E+00 0. -1.
         22    1    3    3    0    0 -0.22347599217E+02 -0.56856273012E+02 -0.11684023006E+02  0.62197808363E+02  0.00000000000E+00 0. -1.
</event>
<event>
 7    1  0.6278987E-006  0.1826428E+03  0.7818608E-02  0.1228387E+00
          2   -1    0    0  502    0  0.00000000000E+00  0.00000000000E+00  0.96568697506E+03  0.96568697506E+03  0.00000000000E+00 0. -1.
          1   -1    0    0  501    0 -0.00000000000E+00 -0.00000000000E+00 -0.64379398302E+03  0.64379398302E+03  0.00000000000E+00 0. -1.
         25    2    1    2    0    0 -0.17959128798E+02 -0.13786186730E+03 -0.10626771408E+02  0.18726069527E+03  0.12500085983E+03 0.  0.
          2    1    1    2  501    0 -0.61470713301E+02  0.18356889106E+03 -0.52513615483E+03  0.55968220221E+03  0.00000000000E+00 0. -1.
          1    1    1    2  502    0  0.79429842100E+02 -0.45707023762E+02  0.85765591828E+03  0.86253806061E+03  0.00000000000E+00 0. -1.
         22    1    3    3    0    0 -0.68446801866E+01 -0.11420805065E+02  0.46281334234E+02  0.48158554107E+02  0.00000000000E+00 0.  1.
         22    1    3    3    0    0 -0.11114448612E+02 -0.12644106224E+03 -0.56908105642E+02  0.13910214116E+03  0.00000000000E+00 0.  1.
</event>
<event>
 7    1  0.6278987E-006  0.1177178E+03  0.7818608E-02  0.1427942E+00
          2   -1    0    0  502    0  0.00000000000E+00  0.00000000000E+00  0.34315932534E+03  0.34315932534E+03  0.00000000000E+00 0. -1.
          1   -1    0    0  501    0 -0.00000000000E+00 -0.00000000000E+00 -0.86464932897E+03  0.86464932897E+03  0.00000000000E+00 0. -1.
         25    2    1    2    0    0 -0.10307021362E+03  0.42016668777E+02  0.51047658970E+02  0.17501712869E+03  0.12504504172E+03 0.  0.
          2    1    1    2  501    0  0.31357795944E+01  0.23997310537E+02 -0.78688244133E+03  0.78725452079E+03  0.00000000000E+00 0. -1.
          1    1    1    2  502    0  0.99934434023E+02 -0.66013979314E+02  0.21434477874E+03  0.24553700483E+03  0.00000000000E+00 0. -1.
         22    1    3    3    0    0 -0.11263765069E+03  0.54605958408E+01  0.70014416027E+02  0.13273687096E+03  0.00000000000E+00 0. -1.
         22    1    3    3    0    0  0.95674370705E+01  0.36556072936E+02 -0.18966757057E+02  0.42280257732E+02  0.00000000000E+00 0. -1.
</event>
<event>
 7    1  0.6278987E-006  0.7613444E+02  0.7818608E-02  0.1465021E+00
          2   -1    0    0  502    0  0.00000000000E+00  0.00000000000E+00  0.42007201120E+03  0.42007201120E+03  0.00000000000E+00 0. -1.
          1   -1    0    0  501    0 -0.00000000000E+00 -0.00000000000E+00 -0.94643431881E+03  0.94643431881E+03  0.00000000000E+00 0. -1.
         25    2    1    2    0    0  0.19786602172E+02  0.46370368294E+02 -0.15494079048E+03  0.20535979761E+03  0.12499710892E+03 0.  0.
          2    1    1    2  501    0 -0.23564160675E+02 -0.74553192919E+02 -0.76377365950E+03  0.76776536206E+03  0.00000000000E+00 0. -1.
          1    1    1    2  502    0  0.37775585026E+01  0.28182824624E+02  0.39235214237E+03  0.39338117033E+03  0.00000000000E+00 0. -1.
         22    1    3    3    0    0  0.36454258831E+02 -0.32732230506E+02 -0.86625278393E+02  0.99520102278E+02  0.00000000000E+00 0. -1.
         22    1    3    3    0    0 -0.16667656659E+02  0.79102598801E+02 -0.68315512087E+02  0.10583969533E+03  0.00000000000E+00 0. -1.
</event>
<event>
 7    1  0.6278987E-006  0.8585959E+02  0.7818608E-02  0.1313634E+00
          2   -1    0    0  502    0  0.00000000000E+00  0.00000000000E+00  0.16820898559E+04  0.16820898559E+04  0.00000000000E+00 0. -1.
          1   -1    0    0  501    0 -0.00000000000E+00 -0.00000000000E+00 -0.29233635801E+03  0.29233635801E+03  0.00000000000E+00 0. -1.
         25    2    1    2    0    0  0.19880902880E+02 -0.50249795639E+02  0.41653955136E+02  0.14241258032E+03  0.12500399511E+03 0.  0.
          2    1    1    2  501    0 -0.91735710485E+02  0.38690647579E+01 -0.23204819845E+03  0.24955315395E+03  0.00000000000E+00 0. -1.
          1    1    1    2  502    0  0.71854807605E+02  0.46380730881E+02  0.15801477412E+04  0.15824604797E+04  0.00000000000E+00 0. -1.
         22    1    3    3    0    0  0.59403804299E+02  0.10145013162E+02  0.25381804416E+01  0.60317291196E+02  0.00000000000E+00 0. -1.
         22    1    3    3    0    0 -0.39522901419E+02 -0.60394808801E+02  0.39115774694E+02  0.82095289126E+02  0.00000000000E+00 0. -1.
</event>
<event>
 7    1  0.6278987E-006  0.8751793E+02  0.7818608E-02  0.1364572E+00
          2   -1    0    0  502    0  0.00000000000E+00  0.00000000000E+00  0.93818509507E+03  0.93818509507E+03  0.00000000000E+00 0. -1.
          1   -1    0    0  501    0 -0.00000000000E+00 -0.00000000000E+00 -0.10952640820E+03  0.10952640820E+03  0.00000000000E+00 0. -1.
         25    2    1    2    0    0  0.47765568597E+02  0.50645080818E+02  0.47587247250E+03  0.49691659836E+03  0.12500008754E+03 0.  0.
          2    1    1    2  501    0  0.49228992719E+02 -0.22015312895E+02 -0.85448397265E+02  0.10104254708E+03  0.00000000000E+00 0. -1.
          1    1    1    2  502    0 -0.96994561316E+02 -0.28629767923E+02  0.43823461163E+03  0.44975235783E+03  0.00000000000E+00 0. -1.
         22    1    3    3    0    0 -0.34620394582E+02  0.41045935928E+02  0.11935014534E+03  0.13087321257E+03  0.00000000000E+00 0.  1.
         22    1    3    3    0    0  0.82385963178E+02  0.95991448901E+01  0.35652232716E+03  0.36604338579E+03  0.00000000000E+00 0.  1.
</event>
<event>
 7    1  0.6278987E-006  0.6558403E+02  0.7818608E-02  0.1399745E+00
          2   -1    0    0  502    0  0.00000000000E+00  0.00000000000E+00  0.14240117403E+04  0.14240117403E+04  0.00000000000E+00 0. -1.
          1   -1    0    0  501    0 -0.00000000000E+00 -0.00000000000E+00 -0.23245146992E+03  0.23245146992E+03  0.00000000000E+00 0. -1.
         25    2    1    2    0    0 -0.93416833891E+02 -0.53513554057E+02  0.51512373769E+03  0.54089367963E+03  0.12499240862E+03 0.  0.
          2    1    1    2  501    0  0.53822957843E+02  0.51089988726E+01 -0.21512641767E+03  0.22181611357E+03  0.00000000000E+00 0. -1.
          1    1    1    2  502    0  0.39593876047E+02  0.48404555185E+02  0.89156295035E+03  0.89375341701E+03  0.00000000000E+00 0. -1.
         22    1    3    3    0    0  0.14112698450E+02 -0.54827234417E+02  0.20395716389E+03  0.21166888906E+03  0.00000000000E+00 0.  1.
         22    1    3    3    0    0 -0.10752953234E+03  0.13136803595E+01  0.31116657379E+03  0.32922479057E+03  0.00000000000E+00 0.  1.
</event>
<event>
 7    1  0.6278987E-006  0.1072751E+03  0.7818608E-02  0.1425275E+00
          2   -1    0    0  502    0  0.00000000000E+00  0.00000000000E+00  0.80016268251E+03  0.80016268251E+03  0.00000000000E+00 0. -1.
          1   -1    0    0  501    0 -0.00000000000E+00 -0.00000000000E+00 -0.27963016528E+04  0.27963016528E+04  0.00000000000E+00 0. -1.
         25    2    1    2    0    0 -0.11009942992E+03  0.56945002139E+02  0.48283885639E+03  0.51392953270E+03  0.12500234239E+03 0.  0.
          2    1    1    2  501    0  0.10270565013E+03 -0.30870848910E+02 -0.27791114717E+04  0.27811799712E+04  0.00000000000E+00 0. -1.
          1    1    1    2  502    0  0.73937797900E+01 -0.26074153229E+02  0.30013364512E+03  0.30135483135E+03  0.00000000000E+00 0. -1.
         22    1    3    3    0    0 -0.11632280924E+03 -0.14089425743E+00  0.28218031648E+03  0.30521590196E+03  0.00000000000E+00 0.  1.
         22    1    3    3    0    0  0.62233793169E+01  0.57085896396E+02  0.20065853991E+03  0.20871363074E+03  0.00000000000E+00 0.  1.
</event>
<event>
 7    1  0.6278987E-006  0.8856880E+02  0.7818608E-02  0.1319661E+00
          2   -1    0    0  502    0  0.00000000000E+00  0.00000000000E+00  0.46095421440E+03  0.46095421440E+03  0.00000000000E+00 0. -1.
          1   -1    0    0  501    0 -0.00000000000E+00 -0.00000000000E+00 -0.61375187416E+03  0.61375187416E+03  0.00000000000E+00 0. -1.
         25    2    1    2    0    0 -0.10901588231E+03  0.36508378183E+02 -0.13389881969E+03  0.21626594196E+03  0.12499895785E+03 0.  0.
          2    1    1    2  501    0  0.42297385872E+02 -0.77946938375E+02 -0.43043530487E+03  0.43947621748E+03  0.00000000000E+00 0. -1.
          1    1    1    2  502    0  0.66718496442E+02  0.41438560192E+02  0.41153646480E+03  0.41896392911E+03  0.00000000000E+00 0. -1.
         22    1    3    3    0    0  0.53372044802E+01 -0.69330515614E+01 -0.83511018968E+02  0.83968108497E+02  0.00000000000E+00 0.  1.
         22    1    3    3    0    0 -0.11435308679E+03  0.43441429744E+02 -0.50387800724E+02  0.13229783347E+03  0.00000000000E+00 0.  1.
</event>
<event>
 7    1  0.6696935E-006  0.5357826E+02  0.7818608E-02  0.1467108E+00
          2   -1    0    0  502    0  0.00000000000E+00  0.00000000000E+00  0.19426182882E+04  0.19426182882E+04  0.00000000000E+00 0. -1.
          1   -1    0    0  501    0 -0.00000000000E+00 -0.00000000000E+00 -0.55595386689E+03  0.55595386689E+03  0.00000000000E+00 0. -1.
         25    2    1    2    0    0 -0.67436887590E+02 -0.54676129199E+02 -0.27294455963E+03  0.31250751381E+03  0.12500000259E+03 0.  0.
          2    1    1    2  501    0  0.44706756234E+02  0.22001879206E+02 -0.26066173668E+03  0.26538145699E+03  0.00000000000E+00 0. -1.
          1    1    1    2  502    0  0.22730131356E+02  0.32674249993E+02  0.19202707176E+04  0.19206831843E+04  0.00000000000E+00 0. -1.
         22    1    3    3    0    0 -0.75923577646E+02  0.70536651515E+00 -0.74757865291E+02  0.10655339322E+03  0.00000000000E+00 0.  1.
         22    1    3    3    0    0  0.84866900562E+01 -0.55381495714E+02 -0.19818669434E+03  0.20595412059E+03  0.00000000000E+00 0.  1.
</event>
<event>
 7    1  0.6278987E-006  0.8315674E+02  0.7818608E-02  0.1350612E+00
          2   -1    0    0  502    0  0.00000000000E+00  0.00000000000E+00  0.22843839376E+04  0.22843839376E+04  0.00000000000E+00 0. -1.
          1   -1    0    0  501    0 -0.00000000000E+00 -0.00000000000E+00 -0.26291161255E+04  0.26291161255E+04  0.00000000000E+00 0. -1.
         25    2    1    2    0    0 -0.12039515672E+03 -0.67186968870E+02  0.65651009965E+02  0.19734246297E+03  0.12499964014E+03 0.  0.
          2    1    1    2  501    0  0.81191430262E+02  0.16792982853E+02 -0.25621263156E+04  0.25634674388E+04  0.00000000000E+00 0. -1.
          1    1    1    2  502    0  0.39203726455E+02  0.50393986017E+02  0.21517431178E+04  0.21526901614E+04  0.00000000000E+00 0. -1.
         22    1    3    3    0    0 -0.13434172274E+00 -0.65164094438E+02  0.31069269884E+02  0.72191944029E+02  0.00000000000E+00 0.  1.
         22    1    3    3    0    0 -0.12026081499E+03 -0.20228744319E+01  0.34581740081E+02  0.12515051894E+03  0.00000000000E+00 0.  1.
</event>
<event>
 7    1  0.6278987E-006  0.2485424E+03  0.7818608E-02  0.1210686E+00
          2   -1    0    0  502    0  0.00000000000E+00  0.00000000000E+00  0.12622856873E+04  0.12622856873E+04  0.00000000000E+00 0. -1.
          1   -1    0    0  501    0 -0.00000000000E+00 -0.00000000000E+00 -0.32448637200E+03  0.32448637200E+03  0.00000000000E+00 0. -1.
         25    2    1    2    0    0 -0.84840913817E+02  0.31118756540E+03  0.51150301543E+03  0.61749185376E+03  0.12500069261E+03 0.  0.
          2    1    1    2  501    0  0.63056844269E+02 -0.23305889028E+03 -0.21474847638E+03  0.32312462001E+03  0.00000000000E+00 0. -1.
          1    1    1    2  502    0  0.21784069548E+02 -0.78128675117E+02  0.64104477620E+03  0.64615558549E+03  0.00000000000E+00 0. -1.
         22    1    3    3    0    0  0.17278446046E+02  0.12117472377E+03  0.25111147082E+03  0.27935430757E+03  0.00000000000E+00 0.  1.
         22    1    3    3    0    0 -0.10211935986E+03  0.19001284163E+03  0.26039154461E+03  0.33813754620E+03  0.00000000000E+00 0.  1.
</event>
<event>
 7    1  0.6278987E-006  0.1774082E+03  0.7818608E-02  0.1200146E+00
          2   -1    0    0  502    0  0.00000000000E+00  0.00000000000E+00  0.10566555889E+04  0.10566555889E+04  0.00000000000E+00 0. -1.
          1   -1    0    0  501    0 -0.00000000000E+00 -0.00000000000E+00 -0.90288078044E+03  0.90288078044E+03  0.00000000000E+00 0. -1.
         25    2    1    2    0    0  0.16414601451E+03  0.89986778738E+02 -0.35554972446E+03  0.42081240638E+03  0.12500376140E+03 0.  0.
          2    1    1    2  501    0 -0.68937890244E+02 -0.17445575243E+03 -0.49345138734E+03  0.52790293988E+03  0.00000000000E+00 0. -1.
          1    1    1    2  502    0 -0.95208124270E+02  0.84468973695E+02  0.10027759202E+04  0.10108210230E+04  0.00000000000E+00 0. -1.
         22    1    3    3    0    0  0.53039864319E+02 -0.25953434489E+02 -0.58412507627E+02  0.83059189835E+02  0.00000000000E+00 0.  1.
         22    1    3    3    0    0  0.11110615020E+03  0.11594021323E+03 -0.29713721684E+03  0.33775321654E+03  0.00000000000E+00 0.  1.
</event>
<event>
 7    1  0.6278987E-006  0.1337560E+03  0.7818608E-02  0.1287944E+00
          2   -1    0    0  502    0  0.00000000000E+00  0.00000000000E+00  0.10400606287E+03  0.10400606287E+03  0.00000000000E+00 0. -1.
          1   -1    0    0  501    0 -0.00000000000E+00 -0.00000000000E+00 -0.10220477553E+04  0.10220477553E+04  0.00000000000E+00 0. -1.
         25    2    1    2    0    0 -0.24495237710E+02  0.16722502223E+03 -0.31734106309E+03  0.38065089584E+03  0.12500211779E+03 0.  0.
          2    1    1    2  501    0  0.65298857577E+02 -0.11090395345E+03 -0.64841266525E+03  0.66106173097E+03  0.00000000000E+00 0. -1.
          1    1    1    2  502    0 -0.40803619867E+02 -0.56321068781E+02  0.47712035929E+02  0.84341191332E+02  0.00000000000E+00 0. -1.
         22    1    3    3    0    0 -0.75888498945E+01  0.18409233635E+03 -0.26123578092E+03  0.31967438461E+03  0.00000000000E+00 0.  1.
         22    1    3    3    0    0 -0.16906387816E+02 -0.16867314118E+02 -0.56105282165E+02  0.60976511227E+02  0.00000000000E+00 0.  1.
</event>
<event>
 7    1  0.6278987E-006  0.8755019E+02  0.7818608E-02  0.1368469E+00
          2   -1    0    0  502    0  0.00000000000E+00  0.00000000000E+00  0.20423843889E+04  0.20423843889E+04  0.00000000000E+00 0. -1.
          1   -1    0    0  501    0 -0.00000000000E+00 -0.00000000000E+00 -0.74893195291E+02  0.74893195291E+02  0.00000000000E+00 0. -1.
         25    2    1    2    0    0 -0.64398643578E+01 -0.10495050191E+03  0.58001762322E+03  0.60257864268E+03  0.12499799066E+03 0.  0.
          2    1    1    2  501    0 -0.38478213812E+02  0.78381293544E+02 -0.32942696124E+02  0.93324280569E+02  0.00000000000E+00 0. -1.
          1    1    1    2  502    0  0.44918078170E+02  0.26569208367E+02  0.14204162665E+04  0.14213746609E+04  0.00000000000E+00 0. -1.
         22    1    3    3    0    0  0.78510175918E+01 -0.12109642828E+02 -0.56803206619E+00  0.14443150178E+02  0.00000000000E+00 0.  1.
         22    1    3    3    0    0 -0.14290881950E+02 -0.92840859083E+02  0.58058565528E+03  0.58813549250E+03  0.00000000000E+00 0.  1.
</event>
<event>
 7    1  0.6278987E-006  0.5902617E+02  0.7818608E-02  0.1431205E+00
          2   -1    0    0  502    0  0.00000000000E+00  0.00000000000E+00  0.89669879996E+03  0.89669879996E+03  0.00000000000E+00 0. -1.
          1   -1    0    0  501    0 -0.00000000000E+00 -0.00000000000E+00 -0.76656875006E+02  0.76656875006E+02  0.00000000000E+00 0. -1.
         25    2    1    2    0    0  0.30012973180E+02  0.86476975919E+02  0.37369093425E+03  0.40453461215E+03  0.12499716861E+03 0.  0.
          2    1    1    2  501    0 -0.35991875491E+02 -0.30358415610E+02 -0.50343136284E+02  0.68930979034E+02  0.00000000000E+00 0. -1.
          1    1    1    2  502    0  0.59789023107E+01 -0.56118560309E+02  0.49669412699E+03  0.49989008379E+03  0.00000000000E+00 0. -1.
         22    1    3    3    0    0  0.29093209997E+02  0.89980353231E+02  0.12968908583E+03  0.16050588095E+03  0.00000000000E+00 0. -1.
         22    1    3    3    0    0  0.91976318295E+00 -0.35033773123E+01  0.24400184842E+03  0.24402873120E+03  0.00000000000E+00 0. -1.
</event>
<event>
 7    1  0.6278987E-006  0.7564593E+02  0.7818608E-02  0.1390171E+00
          2   -1    0    0  502    0  0.00000000000E+00  0.00000000000E+00  0.24013497648E+04  0.24013497648E+04  0.00000000000E+00 0. -1.
          1   -1    0    0  501    0 -0.00000000000E+00 -0.00000000000E+00 -0.25269682395E+03  0.25269682395E+03  0.00000000000E+00 0. -1.
         25    2    1    2    0    0 -0.40567244195E+02  0.90255083740E+02  0.16336084800E+04  0.16413687318E+04  0.12499186559E+03 0.  0.
          2    1    1    2  501    0  0.61386413190E+02 -0.44143735770E+02 -0.24220887733E+03  0.25373628315E+03  0.00000000000E+00 0. -1.
          1    1    1    2  502    0 -0.20819168995E+02 -0.46111347969E+02  0.75725333818E+03  0.75894157377E+03  0.00000000000E+00 0. -1.
         22    1    3    3    0    0  0.70396894884E+01  0.10577411321E+03  0.12538589877E+04  0.12583322619E+04  0.00000000000E+00 0.  1.
         22    1    3    3    0    0 -0.47606933683E+02 -0.15519029473E+02  0.37974949233E+03  0.38303646998E+03  0.00000000000E+00 0.  1.
</event>
<event>
 7    1  0.6278987E-006  0.1145203E+03  0.7818608E-02  0.1325540E+00
          2   -1    0    0  502    0  0.00000000000E+00  0.00000000000E+00  0.34666938084E+03  0.34666938084E+03  0.00000000000E+00 0. -1.
          1   -1    0    0  501    0 -0.00000000000E+00 -0.00000000000E+00 -0.48474741677E+03  0.48474741677E+03  0.00000000000E+00 0. -1.
         25    2    1    2    0    0 -0.37540941808E+02 -0.99246859749E+02  0.10008905620E+03  0.19209752172E+03  0.12499750877E+03 0.  0.
          2    1    1    2  501    0 -0.54314531565E+02  0.19313045086E+02 -0.41810119361E+03  0.42205647744E+03  0.00000000000E+00 0. -1.
          1    1    1    2  502    0  0.91855473373E+02  0.79933814663E+02  0.17993410148E+03  0.21726279845E+03  0.00000000000E+00 0. -1.
         22    1    3    3    0    0 -0.27787659099E+02 -0.10985646765E+03  0.12159426104E+03  0.16620999309E+03  0.00000000000E+00 0. -1.
         22    1    3    3    0    0 -0.97532827086E+01  0.10609607905E+02 -0.21505204842E+02  0.25887528634E+02  0.00000000000E+00 0. -1.
</event>
<event>
 7    1  0.6278987E-006  0.1676876E+03  0.7818608E-02  0.1222422E+00
          2   -1    0    0  502    0  0.00000000000E+00  0.00000000000E+00  0.31795611936E+04  0.31795611936E+04  0.00000000000E+00 0. -1.
          1   -1    0    0  501    0 -0.00000000000E+00 -0.00000000000E+00 -0.66732969427E+02  0.66732969427E+02  0.00000000000E+00 0. -1.
         25    2    1    2    0    0  0.83468056600E+02  0.20591020809E+02  0.55824242698E+03  0.57849047425E+03  0.12500285959E+03 0.  0.
          2    1    1    2  501    0 -0.18932867216E+03 -0.29148516379E+02  0.10996799589E+03  0.22087992718E+03  0.00000000000E+00 0. -1.
          1    1    1    2  502    0  0.10586061556E+03  0.85574955700E+01  0.24446178013E+04  0.24469237616E+04  0.00000000000E+00 0. -1.
         22    1    3    3    0    0  0.51412872073E+02 -0.42725945985E+02  0.15135610152E+03  0.16546135302E+03  0.00000000000E+00 0. -1.
         22    1    3    3    0    0  0.32055184527E+02  0.63316966793E+02  0.40688632546E+03  0.41302912123E+03  0.00000000000E+00 0. -1.
</event>
<event>
 7    1  0.6278987E-006  0.9268889E+02  0.7818608E-02  0.1331401E+00
          2   -1    0    0  502    0  0.00000000000E+00  0.00000000000E+00  0.88135430665E+03  0.88135430665E+03  0.00000000000E+00 0. -1.
          1   -1    0    0  501    0 -0.00000000000E+00 -0.00000000000E+00 -0.75882419916E+03  0.75882419916E+03  0.00000000000E+00 0. -1.
         25    2    1    2    0    0 -0.15237077350E+03 -0.22753413587E+02  0.45876057119E+03  0.49982134716E+03  0.12500218778E+03 0.  0.
          2    1    1    2  501    0  0.85730216702E+02  0.34314356471E+02 -0.73252999189E+03  0.73832738953E+03  0.00000000000E+00 0. -1.
          1    1    1    2  502    0  0.66640556794E+02 -0.11560942884E+02  0.39629952819E+03  0.40202976911E+03  0.00000000000E+00 0. -1.
         22    1    3    3    0    0 -0.10538528086E+03 -0.73987206618E+02  0.28977938133E+03  0.31709975404E+03  0.00000000000E+00 0. -1.
         22    1    3    3    0    0 -0.46985492639E+02  0.51233793031E+02  0.16898118986E+03  0.18272159312E+03  0.00000000000E+00 0. -1.
</event>
<event>
 7    1  0.6278987E-006  0.1168551E+03  0.7818608E-02  0.1321852E+00
          2   -1    0    0  502    0  0.00000000000E+00  0.00000000000E+00  0.64471792176E+03  0.64471792176E+03  0.00000000000E+00 0. -1.
          1   -1    0    0  501    0 -0.00000000000E+00 -0.00000000000E+00 -0.13697350829E+04  0.13697350829E+04  0.00000000000E+00 0. -1.
         25    2    1    2    0    0  0.59022177515E+02 -0.16112441088E+03 -0.71512903309E+03  0.74597566878E+03  0.12500188489E+03 0.  0.
          2    1    1    2  501    0 -0.45246211097E+01  0.58199987466E+02 -0.63243865977E+03  0.63512704958E+03  0.00000000000E+00 0. -1.
          1    1    1    2  502    0 -0.54497556405E+02  0.10292442341E+03  0.62255053172E+03  0.63335028629E+03  0.00000000000E+00 0. -1.
         22    1    3    3    0    0  0.51270556852E+02 -0.21905193023E+02 -0.93164521452E+02  0.10857318057E+03  0.00000000000E+00 0. -1.
         22    1    3    3    0    0  0.77516206625E+01 -0.13921921785E+03 -0.62196451164E+03  0.63740248822E+03  0.00000000000E+00 0. -1.
</event>
<event>
 7    1  0.6278987E-006  0.7717538E+02  0.7818608E-02  0.1418753E+00
          2   -1    0    0  502    0  0.00000000000E+00  0.00000000000E+00  0.35161049124E+04  0.35161049124E+04  0.00000000000E+00 0. -1.
          1   -1    0    0  501    0 -0.00000000000E+00 -0.00000000000E+00 -0.43830686650E+02  0.43830686650E+02  0.00000000000E+00 0. -1.
         25    2    1    2    0    0  0.11310780789E+03 -0.18789990928E+02  0.10937379963E+04  0.11068141752E+04  0.12501349491E+03 0.  0.
          2    1    1    2  501    0 -0.73503306606E+02  0.18798475873E+02  0.16313587642E+01  0.75886626678E+02  0.00000000000E+00 0. -1.
          1    1    1    2  502    0 -0.39604501281E+02 -0.84849455559E-02  0.23769048707E+04  0.23772347971E+04  0.00000000000E+00 0. -1.
         22    1    3    3    0    0  0.70973457932E+02 -0.69429734934E+02  0.77546101280E+03  0.78179121394E+03  0.00000000000E+00 0.  1.
         22    1    3    3    0    0  0.42134349955E+02  0.50639744006E+02  0.31827698349E+03  0.32502296125E+03  0.00000000000E+00 0.  1.
</event>
<event>
 7    1  0.6278987E-006  0.5655173E+02  0.7818608E-02  0.1480472E+00
          2   -1    0    0  502    0  0.00000000000E+00  0.00000000000E+00  0.14638880734E+03  0.14638880734E+03  0.00000000000E+00 0. -1.
          1   -1    0    0  501    0 -0.00000000000E+00 -0.00000000000E+00 -0.28097568931E+03  0.28097568931E+03  0.00000000000E+00 0. -1.
         25    2    1    2    0    0  0.36045506858E+02 -0.76143000924E+02  0.20211879828E+02  0.15209172823E+03  0.12500535411E+03 0.  0.
          2    1    1    2  501    0 -0.61063064327E+01  0.33737046383E+02 -0.20213425322E+03  0.20502129548E+03  0.00000000000E+00 0. -1.
          1    1    1    2  502    0 -0.29939200426E+02  0.42405954542E+02  0.47335491416E+02  0.70251472940E+02  0.00000000000E+00 0. -1.
         22    1    3    3    0    0  0.59135430051E+02 -0.20417517229E+02 -0.33814295661E+02  0.71114560311E+02  0.00000000000E+00 0.  1.
         22    1    3    3    0    0 -0.23089923193E+02 -0.55725483696E+02  0.54026175489E+02  0.80977167919E+02  0.00000000000E+00 0.  1.
</event>
<event>
 7    1  0.6278987E-006  0.5086888E+02  0.7818608E-02  0.1441544E+00
          2   -1    0    0  502    0  0.00000000000E+00  0.00000000000E+00  0.50687532640E+02  0.50687532640E+02  0.00000000000E+00 0. -1.
          1   -1    0    0  501    0 -0.00000000000E+00 -0.00000000000E+00 -0.86552292699E+03  0.86552292699E+03  0.00000000000E+00 0. -1.
         25    2    1    2    0    0 -0.37225539825E+02 -0.35762859210E+02 -0.24550825996E+03  0.28029613438E+03  0.12500757708E+03 0.  0.
          2    1    1    2  501    0  0.50763153510E+02 -0.12944290935E+02 -0.58154949470E+03  0.58390433052E+03  0.00000000000E+00 0. -1.
          1    1    1    2  502    0 -0.13537613685E+02  0.48707150145E+02  0.12222360310E+02  0.52009994723E+02  0.00000000000E+00 0. -1.
         22    1    3    3    0    0  0.37820739873E+02 -0.22317069208E+02 -0.15915494871E+03  0.16510226419E+03  0.00000000000E+00 0.  1.
         22    1    3    3    0    0 -0.75046279699E+02 -0.13445790002E+02 -0.86353311252E+02  0.11519387019E+03  0.00000000000E+00 0.  1.
</event>
<event>
 7    1  0.6278987E-006  0.9299003E+02  0.7818608E-02  0.1318910E+00
          2   -1    0    0  502    0  0.00000000000E+00  0.00000000000E+00  0.19563867015E+04  0.19563867015E+04  0.00000000000E+00 0. -1.
          1   -1    0    0  501    0 -0.00000000000E+00 -0.00000000000E+00 -0.93755287049E+02  0.93755287049E+02  0.00000000000E+00 0. -1.
         25    2    1    2    0    0  0.16813878228E+02  0.12430214151E+03  0.65461346330E+03  0.67814302723E+03  0.12500180064E+03 0.  0.
          2    1    1    2  501    0  0.44845274069E+02 -0.81062092084E+02 -0.54337001549E+02  0.10739958620E+03  0.00000000000E+00 0. -1.
          1    1    1    2  502    0 -0.61659152296E+02 -0.43240049425E+02  0.12623549527E+04  0.12645993751E+04  0.00000000000E+00 0. -1.
         22    1    3    3    0    0  0.10716944772E+02  0.10889557665E+03  0.65229914257E+03  0.66141308645E+03  0.00000000000E+00 0.  1.
         22    1    3    3    0    0  0.60969334556E+01  0.15406564855E+02  0.23143207253E+01  0.16729940783E+02  0.00000000000E+00 0.  1.
</event>
<event>
 7    1  0.6278987E-006  0.6111280E+02  0.7818608E-02  0.1465375E+00
          2   -1    0    0  502    0  0.00000000000E+00  0.00000000000E+00  0.34477060115E+03  0.34477060115E+03  0.00000000000E+00 0. -1.
          1   -1    0    0  501    0 -0.00000000000E+00 -0.00000000000E+00 -0.42519557422E+03  0.42519557422E+03  0.00000000000E+00 0. -1.
         25    2    1    2    0    0  0.40613965588E+01 -0.53120709215E+02  0.27114757384E+03  0.30328992829E+03  0.12500187645E+03 0.  0.
          2    1    1    2  501    0 -0.38913351604E+02  0.47305457937E+02 -0.40114798200E+03  0.40579768203E+03  0.00000000000E+00 0. -1.
          1    1    1    2  502    0  0.34851955046E+02  0.58152512788E+01  0.49575435089E+02  0.60878565047E+02  0.00000000000E+00 0. -1.
         22    1    3    3    0    0  0.26542103394E+02  0.13351101357E+02  0.77490446878E+01  0.30704769232E+02  0.00000000000E+00 0. -1.
         22    1    3    3    0    0 -0.22480706835E+02 -0.66471810572E+02  0.26339852915E+03  0.27258515906E+03  0.00000000000E+00 0. -1.
</event>
<event>
 7    1  0.6278987E-006  0.2012832E+03  0.7818608E-02  0.1304781E+00
          2   -1    0    0  502    0  0.00000000000E+00  0.00000000000E+00  0.57386377700E+03  0.57386377700E+03  0.00000000000E+00 0. -1.
          1   -1    0    0  501    0 -0.00000000000E+00 -0.00000000000E+00 -0.33157748479E+04  0.33157748479E+04  0.00000000000E+00 0. -1.
         25    2    1    2    0    0  0.16918856322E+03 -0.22747723998E+02 -0.73914722379E+03  0.76883608611E+03  0.12501231939E+03 0.  0.
          2    1    1    2  501    0 -0.20864812815E+03  0.25218457650E+02 -0.25567670341E+04  0.25653903560E+04  0.00000000000E+00 0. -1.
          1    1    1    2  502    0  0.39459564932E+02 -0.24707336519E+01  0.55400318691E+03  0.55541218288E+03  0.00000000000E+00 0. -1.
         22    1    3    3    0    0  0.85688132947E+02 -0.50161482670E+02 -0.20819526292E+03  0.23065970167E+03  0.00000000000E+00 0. -1.
         22    1    3    3    0    0  0.83500430271E+02  0.27413758672E+02 -0.53095196087E+03  0.53817638444E+03  0.00000000000E+00 0. -1.
</event>
<event>
 7    1  0.6278987E-006  0.5696636E+02  0.7818608E-02  0.1540759E+00
          2   -1    0    0  502    0  0.00000000000E+00  0.00000000000E+00  0.71833826573E+02  0.71833826573E+02  0.00000000000E+00 0. -1.
          1   -1    0    0  501    0 -0.00000000000E+00 -0.00000000000E+00 -0.69727831313E+03  0.69727831313E+03  0.00000000000E+00 0. -1.
         25    2    1    2    0    0  0.19379904402E+02  0.30400568317E+02 -0.49163849841E+03  0.50855961212E+03  0.12499876287E+03 0.  0.
          2    1    1    2  501    0  0.18715992242E+02  0.12708405163E+02 -0.18328264021E+03  0.18467354475E+03  0.00000000000E+00 0. -1.
          1    1    1    2  502    0 -0.38095896644E+02 -0.43108973480E+02  0.49476652062E+02  0.75878982827E+02  0.00000000000E+00 0. -1.
         22    1    3    3    0    0 -0.42100523899E+02  0.29301769221E+02 -0.35546160337E+03  0.35914342437E+03  0.00000000000E+00 0. -1.
         22    1    3    3    0    0  0.61480428301E+02  0.10987990961E+01 -0.13617689503E+03  0.14941618776E+03  0.00000000000E+00 0. -1.
</event>
<event>
 7    1  0.6278987E-006  0.6830608E+02  0.7818608E-02  0.1493486E+00
          2   -1    0    0  502    0  0.00000000000E+00  0.00000000000E+00  0.19863029894E+04  0.19863029894E+04  0.00000000000E+00 0. -1.
          1   -1    0    0  501    0 -0.00000000000E+00 -0.00000000000E+00 -0.16123083113E+02  0.16123083113E+02  0.00000000000E+00 0. -1.
         25    2    1    2    0    0 -0.22102172749E+02 -0.45057840684E+02  0.16091649061E+04  0.16147933371E+04  0.12500844564E+03 0.  0.
          2    1    1    2  501    0  0.47359395309E+02  0.50860000481E+02  0.82306156817E+02  0.10772165717E+03  0.00000000000E+00 0. -1.
          1    1    1    2  502    0 -0.25257222560E+02 -0.58021597967E+01  0.27870884332E+03  0.27991107819E+03  0.00000000000E+00 0. -1.
         22    1    3    3    0    0 -0.11816733620E+02 -0.71562755643E+02  0.49696401397E+03  0.50222912537E+03  0.00000000000E+00 0.  1.
         22    1    3    3    0    0 -0.10285439129E+02  0.26504914959E+02  0.11122008921E+04  0.11125642117E+04  0.00000000000E+00 0.  1.
</event>
<event>
 7    1  0.6278987E-006  0.1102905E+03  0.7818608E-02  0.1281115E+00
          2   -1    0    0  502    0  0.00000000000E+00  0.00000000000E+00  0.41477389481E+03  0.41477389481E+03  0.00000000000E+00 0. -1.
          1   -1    0    0  501    0 -0.00000000000E+00 -0.00000000000E+00 -0.11367474769E+03  0.11367474769E+03  0.00000000000E+00 0. -1.
         25    2    1    2    0    0 -0.94959180145E+02  0.65203459928E+02  0.19820027073E+03  0.26110942353E+03  0.12500418656E+03 0.  0.
          2    1    1    2  501    0  0.71621717529E+02  0.54446088213E+02 -0.22201625280E+02  0.92665846505E+02  0.00000000000E+00 0. -1.
          1    1    1    2  502    0  0.23337462617E+02 -0.11964954814E+03  0.12510050167E+03  0.17467337247E+03  0.00000000000E+00 0. -1.
         22    1    3    3    0    0  0.98150794997E+01 -0.41611551307E+01  0.10277820816E+03  0.10332962339E+03  0.00000000000E+00 0. -1.
         22    1    3    3    0    0 -0.10477425965E+03  0.69364615059E+02  0.95422062575E+02  0.15777980014E+03  0.00000000000E+00 0. -1.
</event>
<event>
 7    1  0.6278987E-006  0.6455531E+02  0.7818608E-02  0.1489373E+00
          2   -1    0    0  502    0  0.00000000000E+00  0.00000000000E+00  0.13599428953E+04  0.13599428953E+04  0.00000000000E+00 0. -1.
          1   -1    0    0  501    0 -0.00000000000E+00 -0.00000000000E+00 -0.40794240497E+03  0.40794240497E+03  0.00000000000E+00 0. -1.
         25    2    1    2    0    0 -0.37246117150E+02 -0.59632065042E+00  0.10313904566E+04  0.10396054077E+04  0.12500200358E+03 0.  0.
          2    1    1    2  501    0  0.63843557377E+02  0.10016228216E+02 -0.40062713566E+03  0.40580589753E+03  0.00000000000E+00 0. -1.
          1    1    1    2  502    0 -0.26597440227E+02 -0.94199075658E+01  0.32123716936E+03  0.32247399501E+03  0.00000000000E+00 0. -1.
         22    1    3    3    0    0  0.23905491145E+02 -0.15528660824E+02  0.77768688505E+03  0.77820916404E+03  0.00000000000E+00 0. -1.
         22    1    3    3    0    0 -0.61151608295E+02  0.14932340173E+02  0.25370357153E+03  0.26139624364E+03  0.00000000000E+00 0. -1.
</event>
<event>
 7    1  0.6278987E-006  0.1150398E+03  0.7818608E-02  0.1308367E+00
          2   -1    0    0  502    0  0.00000000000E+00  0.00000000000E+00  0.11924628164E+04  0.11924628164E+04  0.00000000000E+00 0. -1.
          1   -1    0    0  501    0 -0.00000000000E+00 -0.00000000000E+00 -0.58220410100E+03  0.58220410100E+03  0.00000000000E+00 0. -1.
         25    2    1    2    0    0 -0.10143793779E+03  0.12528930061E+02  0.48834530272E+03  0.51434615096E+03  0.12499679601E+03 0.  0.
          2    1    1    2  501    0  0.37640779525E+01  0.66844235171E+02 -0.56146842665E+03  0.56544594276E+03  0.00000000000E+00 0. -1.
          1    1    1    2  502    0  0.97673859839E+02 -0.79373165232E+02  0.68338183933E+03  0.69487482367E+03  0.00000000000E+00 0. -1.
         22    1    3    3    0    0  0.15812267560E+02  0.38279367325E+02  0.12380465654E+03  0.13054857620E+03  0.00000000000E+00 0. -1.
         22    1    3    3    0    0 -0.11725020535E+03 -0.25750437264E+02  0.36454064618E+03  0.38379757476E+03  0.00000000000E+00 0. -1.
</event>
<event>
 7    1  0.6278987E-006  0.1117427E+03  0.7818608E-02  0.1421748E+00
          2   -1    0    0  502    0  0.00000000000E+00  0.00000000000E+00  0.93769285905E+03  0.93769285905E+03  0.00000000000E+00 0. -1.
          1   -1    0    0  501    0 -0.00000000000E+00 -0.00000000000E+00 -0.76973706118E+02  0.76973706118E+02  0.00000000000E+00 0. -1.
         25    2    1    2    0    0  0.74487269591E+02  0.10781923812E+03  0.19490228624E+03  0.26605456627E+03  0.12499915845E+03 0.  0.
          2    1    1    2  501    0 -0.84811396785E+00 -0.26716919131E+02 -0.32315049463E+02  0.41937757295E+02  0.00000000000E+00 0. -1.
          1    1    1    2  502    0 -0.73639155623E+02 -0.81102318987E+02  0.69813191616E+03  0.70667424160E+03  0.00000000000E+00 0. -1.
         22    1    3    3    0    0  0.49824694255E+02  0.24701042067E+02  0.32531476126E+01  0.55706593920E+02  0.00000000000E+00 0. -1.
         22    1    3    3    0    0  0.24662575336E+02  0.83118196051E+02  0.19164913863E+03  0.21034797235E+03  0.00000000000E+00 0. -1.
</event>
<event>
 7    1  0.6497806E-006  0.1256086E+03  0.7818608E-02  0.1339382E+00
          2   -1    0    0  502    0  0.00000000000E+00  0.00000000000E+00  0.82388412708E+03  0.82388412708E+03  0.00000000000E+00 0. -1.
          1   -1    0    0  501    0 -0.00000000000E+00 -0.00000000000E+00 -0.13993088292E+04  0.13993088292E+04  0.00000000000E+00 0. -1.
         25    2    1    2    0    0  0.84715706712E+02 -0.81364428489E+02 -0.37568687411E+03  0.41299210456E+03  0.12499971946E+03 0.  0.
          2    1    1    2  501    0 -0.11888907234E+03  0.49751267747E+02 -0.10001583140E+04  0.10084277134E+04  0.00000000000E+00 0. -1.
          1    1    1    2  502    0  0.34173365627E+02  0.31613160742E+02  0.80042048600E+03  0.80177313827E+03  0.00000000000E+00 0. -1.
         22    1    3    3    0    0  0.24906759700E+02 -0.85357995638E+02 -0.31650158290E+03  0.32875459856E+03  0.00000000000E+00 0. -1.
         22    1    3    3    0    0  0.59808947012E+02  0.39935671492E+01 -0.59185291206E+02  0.84237505996E+02  0.00000000000E+00 0. -1.
</event>
<event>
 7    1  0.6278987E-006  0.7725011E+02  0.7818608E-02  0.1386066E+00
          2   -1    0    0  502    0  0.00000000000E+00  0.00000000000E+00  0.88030630047E+02  0.88030630047E+02  0.00000000000E+00 0. -1.
          1   -1    0    0  501    0 -0.00000000000E+00 -0.00000000000E+00 -0.33070700412E+04  0.33070700412E+04  0.00000000000E+00 0. -1.
         25    2    1    2    0    0  0.24279217844E+02  0.48055912176E+02 -0.26001029948E+03  0.29348025687E+03  0.12500581677E+03 0.  0.
          2    1    1    2  501    0 -0.41356394807E+02  0.30199207985E+02 -0.30075417215E+04  0.30079776512E+04  0.00000000000E+00 0. -1.
          1    1    1    2  502    0  0.17077176963E+02 -0.78255120160E+02  0.48512609750E+02  0.93642763250E+02  0.00000000000E+00 0. -1.
         22    1    3    3    0    0  0.12513484284E+02 -0.39459583072E+01 -0.23362354209E+03  0.23399170348E+03  0.00000000000E+00 0.  1.
         22    1    3    3    0    0  0.11765733559E+02  0.52001870483E+02 -0.26386757387E+02  0.59488553397E+02  0.00000000000E+00 0.  1.
</event>
<event>
 7    1  0.6278987E-006  0.1256773E+03  0.7818608E-02  0.1329146E+00
          2   -1    0    0  502    0  0.00000000000E+00  0.00000000000E+00  0.42959101606E+03  0.42959101606E+03  0.00000000000E+00 0. -1.
          1   -1    0    0  501    0 -0.00000000000E+00 -0.00000000000E+00 -0.45073397660E+03  0.45073397660E+03  0.00000000000E+00 0. -1.
         25    2    1    2    0    0 -0.15853029696E+02 -0.16023617038E+03 -0.10261707916E+03  0.22821820422E+03  0.12500533970E+03 0.  0.
          2    1    1    2  501    0 -0.13179985919E+02  0.11845088196E+03 -0.27096303170E+03  0.29601568880E+03  0.00000000000E+00 0. -1.
          1    1    1    2  502    0  0.29033015614E+02  0.41785288415E+02  0.35243715032E+03  0.35609109965E+03  0.00000000000E+00 0. -1.
         22    1    3    3    0    0  0.26819090889E+02 -0.10273868963E+03 -0.11391775260E+03  0.15572975419E+03  0.00000000000E+00 0. -1.
         22    1    3    3    0    0 -0.42672120584E+02 -0.57497480747E+02  0.11300673439E+02  0.72488450029E+02  0.00000000000E+00 0. -1.
</event>
<event>
 7    1  0.6278987E-006  0.7170636E+02  0.7818608E-02  0.1374882E+00
          2   -1    0    0  502    0  0.00000000000E+00  0.00000000000E+00  0.78803440684E+02  0.78803440684E+02  0.00000000000E+00 0. -1.
          1   -1    0    0  501    0 -0.00000000000E+00 -0.00000000000E+00 -0.31285865654E+03  0.31285865654E+03  0.00000000000E+00 0. -1.
         25    2    1    2    0    0 -0.84025304537E+02 -0.36636508207E+02 -0.14796459437E+03  0.21429369044E+03  0.12500311612E+03 0.  0.
          2    1    1    2  501    0  0.66970543612E+02 -0.21339489928E+02 -0.92965484334E+02  0.11654616604E+03  0.00000000000E+00 0. -1.
          1    1    1    2  502    0  0.17054760925E+02  0.57975998135E+02  0.68748628441E+01  0.60822240743E+02  0.00000000000E+00 0. -1.
         22    1    3    3    0    0  0.26434307520E+02 -0.15555503236E+02 -0.72897302804E+02  0.79087059947E+02  0.00000000000E+00 0.  1.
         22    1    3    3    0    0 -0.11045961206E+03 -0.21081004971E+02 -0.75067291565E+02  0.13520663049E+03  0.00000000000E+00 0.  1.
</event>
<event>
 7    1  0.6278987E-006  0.4831271E+02  0.7818608E-02  0.1455639E+00
          2   -1    0    0  502    0  0.00000000000E+00  0.00000000000E+00  0.25985280482E+03  0.25985280482E+03  0.00000000000E+00 0. -1.
          1   -1    0    0  501    0 -0.00000000000E+00 -0.00000000000E+00 -0.59999738396E+03  0.59999738396E+03  0.00000000000E+00 0. -1.
         25    2    1    2    0    0  0.23507196720E+02  0.20116297227E+02  0.23742198203E+02  0.13094163579E+03  0.12499906518E+03 0.  0.
          2    1    1    2  501    0 -0.38813404114E+02  0.28186479647E+02 -0.54180065305E+03  0.54391994413E+03  0.00000000000E+00 0. -1.
          1    1    1    2  502    0  0.15306207394E+02 -0.48302776874E+02  0.17791387571E+03  0.18498860886E+03  0.00000000000E+00 0. -1.
         22    1    3    3    0    0 -0.14556377390E+01  0.70660776888E+02  0.25648068073E+01  0.70722291433E+02  0.00000000000E+00 0. -1.
         22    1    3    3    0    0  0.24962834459E+02 -0.50544479661E+02  0.21177391396E+02  0.60219344357E+02  0.00000000000E+00 0. -1.
</event>
<event>
 7    1  0.6278987E-006  0.7457591E+02  0.7818608E-02  0.1364853E+00
          2   -1    0    0  502    0  0.00000000000E+00  0.00000000000E+00  0.29542836125E+04  0.29542836125E+04  0.00000000000E+00 0. -1.
          1   -1    0    0  501    0 -0.00000000000E+00 -0.00000000000E+00 -0.11293131153E+04  0.11293131153E+04  0.00000000000E+00 0. -1.
         25    2    1    2    0    0  0.63365704025E+01  0.10463319395E+03  0.67246895347E+03  0.69197520057E+03  0.12500770945E+03 0.  0.
          2    1    1    2  501    0 -0.46551010764E+02 -0.42654310247E+02 -0.11180684899E+04  0.11198497823E+04  0.00000000000E+00 0. -1.
          1    1    1    2  502    0  0.40214440361E+02 -0.61978883699E+02  0.22705700337E+04  0.22717717449E+04  0.00000000000E+00 0. -1.
         22    1    3    3    0    0  0.58008032002E+02  0.62681629536E+02  0.24738392223E+03  0.26171114503E+03  0.00000000000E+00 0. -1.
         22    1    3    3    0    0 -0.51671461600E+02  0.41951564411E+02  0.42508503124E+03  0.43026405554E+03  0.00000000000E+00 0. -1.
</event>
<event>
 7    1  0.6278987E-006  0.8338370E+02  0.7818608E-02  0.1351874E+00
          2   -1    0    0  502    0  0.00000000000E+00  0.00000000000E+00  0.29151900405E+03  0.29151900405E+03  0.00000000000E+00 0. -1.
          1   -1    0    0  501    0 -0.00000000000E+00 -0.00000000000E+00 -0.39682649608E+03  0.39682649608E+03  0.00000000000E+00 0. -1.
         25    2    1    2    0    0 -0.10183177865E+03 -0.85437642802E+02  0.56603647555E+02  0.19104397376E+03  0.12499810015E+03 0.  0.
          2    1    1    2  501    0  0.76828966403E+02  0.27619332591E+02 -0.31835218139E+03  0.32865426972E+03  0.00000000000E+00 0. -1.
          1    1    1    2  502    0  0.25002812250E+02  0.57818310210E+02  0.15644104180E+03  0.16864725665E+03  0.00000000000E+00 0. -1.
         22    1    3    3    0    0 -0.26737018806E+02  0.27081780876E+02  0.39229864235E+02  0.54655953728E+02  0.00000000000E+00 0.  1.
         22    1    3    3    0    0 -0.75094759847E+02 -0.11251942368E+03  0.17373783320E+02  0.13638802003E+03  0.00000000000E+00 0.  1.
</event>
<event>
 7    1  0.6278987E-006  0.7912598E+02  0.7818608E-02  0.1403566E+00
          2   -1    0    0  502    0  0.00000000000E+00  0.00000000000E+00  0.13868358751E+03  0.13868358751E+03  0.00000000000E+00 0. -1.
          1   -1    0    0  501    0 -0.00000000000E+00 -0.00000000000E+00 -0.21285980144E+04  0.21285980144E+04  0.00000000000E+00 0. -1.
         25    2    1    2    0    0 -0.62699810029E+02  0.88552870702E+01 -0.41088468295E+03  0.43412107590E+03  0.12500081428E+03 0.  0.
          2    1    1    2  501    0  0.22845215958E+01  0.43419539138E+02 -0.16932305823E+04  0.16937887354E+04  0.00000000000E+00 0. -1.
          1    1    1    2  502    0  0.60415288434E+02 -0.52274826208E+02  0.11420083835E+03  0.13937179059E+03  0.00000000000E+00 0. -1.
         22    1    3    3    0    0  0.11232681534E+02 -0.34545237901E+02 -0.24212114724E+03  0.24483095503E+03  0.00000000000E+00 0.  1.
         22    1    3    3    0    0 -0.73932491563E+02  0.43400524971E+02 -0.16876353571E+03  0.18929012088E+03  0.00000000000E+00 0.  1.
</event>
<event>
 7    1  0.6278987E-006  0.7840581E+02  0.7818608E-02  0.1386982E+00
          2   -1    0    0  502    0  0.00000000000E+00  0.00000000000E+00  0.21081106833E+04  0.21081106833E+04  0.00000000000E+00 0. -1.
          1   -1    0    0  501    0 -0.00000000000E+00 -0.00000000000E+00 -0.53299875974E+02  0.53299875974E+02  0.00000000000E+00 0. -1.
         25    2    1    2    0    0 -0.10267948718E+03 -0.68411677107E+02  0.38764829533E+03  0.42558155824E+03  0.12500090874E+03 0.  0.
          2    1    1    2  501    0  0.57797040490E+02  0.46190762095E+02  0.63472706437E+01  0.74258819254E+02  0.00000000000E+00 0. -1.
          1    1    1    2  502    0  0.44882446693E+02  0.22220915012E+02  0.16608152413E+04  0.16615701817E+04  0.00000000000E+00 0. -1.
         22    1    3    3    0    0  0.59809196893E+01  0.20422736255E+02  0.13411098980E+03  0.13578886972E+03  0.00000000000E+00 0. -1.
         22    1    3    3    0    0 -0.10866040687E+03 -0.88834413362E+02  0.25353730554E+03  0.28979268852E+03  0.00000000000E+00 0. -1.
</event>
<event>
 7    1  0.6278987E-006  0.1194900E+03  0.7818608E-02  0.1342695E+00
          2   -1    0    0  502    0  0.00000000000E+00  0.00000000000E+00  0.10280682003E+04  0.10280682003E+04  0.00000000000E+00 0. -1.
          1   -1    0    0  501    0 -0.00000000000E+00 -0.00000000000E+00 -0.20616381403E+03  0.20616381403E+03  0.00000000000E+00 0. -1.
         25    2    1    2    0    0  0.15379453731E+03 -0.35437660592E+02  0.31188898244E+03  0.37122584175E+03  0.12500120289E+03 0.  0.
          2    1    1    2  501    0 -0.40756342390E+02  0.24502381166E+02 -0.16848483553E+03  0.17506737540E+03  0.00000000000E+00 0. -1.
          1    1    1    2  502    0 -0.11303819492E+03  0.10935279426E+02  0.67850023938E+03  0.68793879719E+03  0.00000000000E+00 0. -1.
         22    1    3    3    0    0  0.55293709858E+02  0.46953231148E+02  0.12361829940E+03  0.14332998364E+03  0.00000000000E+00 0. -1.
         22    1    3    3    0    0  0.98500827456E+02 -0.82390891741E+02  0.18827068304E+03  0.22789585811E+03  0.00000000000E+00 0. -1.
</event>
<event>
 7    1  0.6278987E-006  0.1093032E+03  0.7818608E-02  0.1378627E+00
          2   -1    0    0  502    0  0.00000000000E+00  0.00000000000E+00  0.30664281783E+03  0.30664281783E+03  0.00000000000E+00 0. -1.
          1   -1    0    0  501    0 -0.00000000000E+00 -0.00000000000E+00 -0.38534966871E+03  0.38534966871E+03  0.00000000000E+00 0. -1.
         25    2    1    2    0    0 -0.41489688802E+02 -0.91135826287E+02  0.86925842256E+02  0.18223243859E+03  0.12500170603E+03 0.  0.
          2    1    1    2  501    0  0.77725979914E+02  0.78285470430E+02 -0.32635866937E+03  0.34449952672E+03  0.00000000000E+00 0. -1.
          1    1    1    2  502    0 -0.36236291113E+02  0.12850355856E+02  0.16072597625E+03  0.16526052124E+03  0.00000000000E+00 0. -1.
         22    1    3    3    0    0  0.72039043120E+01 -0.10149264283E+03  0.84718935834E+02  0.13240072082E+03  0.00000000000E+00 0. -1.
         22    1    3    3    0    0 -0.48693593114E+02  0.10356816542E+02  0.22069064216E+01  0.49831717762E+02  0.00000000000E+00 0. -1.
</event>
<event>
 7    1  0.7248502E-006  0.7762917E+02  0.7818608E-02  0.1336009E+00
          2   -1    0    0  502    0  0.00000000000E+00  0.00000000000E+00  0.12398512915E+04  0.12398512915E+04  0.00000000000E+00 0. -1.
          1   -1    0    0  501    0 -0.00000000000E+00 -0.00000000000E+00 -0.84763871856E+03  0.84763871856E+03  0.00000000000E+00 0. -1.
         25    2    1    2    0    0  0.82245705345E+01 -0.71240390048E+02 -0.79534939847E+02  0.16459710829E+03  0.12499425853E+03 0.  0.
          2    1    1    2  501    0  0.65148204747E+02  0.46079128054E+02 -0.72211631472E+03  0.72651190397E+03  0.00000000000E+00 0. -1.
          1    1    1    2  502    0 -0.73372775282E+02  0.25161261993E+02  0.11938638275E+04  0.11963809978E+04  0.00000000000E+00 0. -1.
         22    1    3    3    0    0  0.10957714467E+02 -0.72853134519E+02  0.10578164193E+02  0.74428141676E+02  0.00000000000E+00 0.  1.
         22    1    3    3    0    0 -0.27331439323E+01  0.16127444716E+01 -0.90113104041E+02  0.90168966614E+02  0.00000000000E+00 0.  1.
</event>
<event>
 7    1  0.6278987E-006  0.9921576E+02  0.7818608E-02  0.1307272E+00
          2   -1    0    0  502    0  0.00000000000E+00  0.00000000000E+00  0.30247088898E+04  0.30247088898E+04  0.00000000000E+00 0. -1.
          1   -1    0    0  501    0 -0.00000000000E+00 -0.00000000000E+00 -0.17510476337E+04  0.17510476337E+04  0.00000000000E+00 0. -1.
         25    2    1    2    0    0 -0.14017931949E+02  0.27278004382E+02  0.36929580712E+03  0.39108357162E+03  0.12500549945E+03 0.  0.
          2    1    1    2  501    0  0.91545987124E+02 -0.38978659893E+02 -0.17381495193E+04  0.17409950474E+04  0.00000000000E+00 0. -1.
          1    1    1    2  502    0 -0.77528055174E+02  0.11700655512E+02  0.26425149683E+04  0.26436779044E+04  0.00000000000E+00 0. -1.
         22    1    3    3    0    0 -0.54621893274E+02  0.25828151219E+02  0.87261410834E+02  0.10613763913E+03  0.00000000000E+00 0. -1.
         22    1    3    3    0    0  0.40603961325E+02  0.14498531620E+01  0.28203439629E+03  0.28494593248E+03  0.00000000000E+00 0. -1.
</event>
<event>
 7    1  0.6278987E-006  0.3491615E+02  0.7818608E-02  0.1553198E+00
          2   -1    0    0  502    0  0.00000000000E+00  0.00000000000E+00  0.12040100119E+04  0.12040100119E+04  0.00000000000E+00 0. -1.
          1   -1    0    0  501    0 -0.00000000000E+00 -0.00000000000E+00 -0.20841101814E+04  0.20841101814E+04  0.00000000000E+00 0. -1.
         25    2    1    2    0    0 -0.28294275866E+02  0.37630151257E+02  0.64594993963E+03  0.65961455651E+03  0.12499377712E+03 0.  0.
          2    1    1    2  501    0 -0.64589324612E+01 -0.33446377175E+02 -0.20765823343E+04  0.20768617115E+04  0.00000000000E+00 0. -1.
          1    1    1    2  502    0  0.34753208327E+02 -0.41837740823E+01  0.55053222509E+03  0.55164392530E+03  0.00000000000E+00 0. -1.
         22    1    3    3    0    0 -0.56014938604E+02  0.11722370400E+02  0.58518309080E+03  0.58797477588E+03  0.00000000000E+00 0.  1.
         22    1    3    3    0    0  0.27720662738E+02  0.25907780858E+02  0.60766848832E+02  0.71639780628E+02  0.00000000000E+00 0.  1.
</event>
<event>
 7    1  0.6278987E-006  0.1111722E+03  0.7818608E-02  0.1342227E+00
          2   -1    0    0  502    0  0.00000000000E+00  0.00000000000E+00  0.12046965102E+03  0.12046965102E+03  0.00000000000E+00 0. -1.
          1   -1    0    0  501    0 -0.00000000000E+00 -0.00000000000E+00 -0.98472486556E+03  0.98472486556E+03  0.00000000000E+00 0. -1.
         25    2    1    2    0    0  0.45195333377E+02  0.12773243344E+03 -0.39076431765E+02  0.18844348036E+03  0.12500314020E+03 0.  0.
          2    1    1    2  501    0 -0.43910032544E+02 -0.26563358274E+02 -0.81325611380E+03  0.81487373843E+03  0.00000000000E+00 0. -1.
          1    1    1    2  502    0 -0.12853008335E+01 -0.10116907516E+03 -0.11922668978E+02  0.10187729778E+03  0.00000000000E+00 0. -1.
         22    1    3    3    0    0  0.27414074663E+02  0.87717326165E+02  0.38278850254E+02  0.99554664260E+02  0.00000000000E+00 0. -1.
         22    1    3    3    0    0  0.17781258715E+02  0.40015107274E+02 -0.77355282019E+02  0.88888816101E+02  0.00000000000E+00 0. -1.
</event>
<event>
 7    1  0.6278987E-006  0.5935390E+02  0.7818608E-02  0.1446774E+00
          2   -1    0    0  502    0  0.00000000000E+00  0.00000000000E+00  0.16856190134E+04  0.16856190134E+04  0.00000000000E+00 0. -1.
          1   -1    0    0  501    0 -0.00000000000E+00 -0.00000000000E+00 -0.17196905686E+03  0.17196905686E+03  0.00000000000E+00 0. -1.
         25    2    1    2    0    0  0.60670106424E+02  0.63390622975E+02  0.31978602703E+03  0.35438223943E+03  0.12499774256E+03 0.  0.
          2    1    1    2  501    0 -0.64765726841E+01 -0.41169245636E+02 -0.15121465698E+03  0.15685255900E+03  0.00000000000E+00 0. -1.
          1    1    1    2  502    0 -0.54193533740E+02 -0.22221377339E+02  0.13450785864E+04  0.13463532718E+04  0.00000000000E+00 0. -1.
         22    1    3    3    0    0  0.86031167407E+02  0.37075686503E+02  0.12505891738E+03  0.15625524347E+03  0.00000000000E+00 0. -1.
         22    1    3    3    0    0 -0.25361060983E+02  0.26314936472E+02  0.19472710965E+03  0.19812699596E+03  0.00000000000E+00 0. -1.
</event>
<event>
 7    1  0.6278987E-006  0.2920293E+03  0.7818608E-02  0.1292957E+00
          2   -1    0    0  502    0  0.00000000000E+00  0.00000000000E+00  0.32436570509E+03  0.32436570509E+03  0.00000000000E+00 0. -1.
          1   -1    0    0  501    0 -0.00000000000E+00 -0.00000000000E+00 -0.26743967348E+04  0.26743967348E+04  0.00000000000E+00 0. -1.
         25    2    1    2    0    0 -0.12433908532E+03 -0.28879606569E+03 -0.14909428182E+04  0.15288539489E+04  0.12498213656E+03 0.  0.
          2    1    1    2  501    0 -0.76466751948E+01  0.29417221309E+02 -0.10949084886E+04  0.10953302895E+04  0.00000000000E+00 0. -1.
          1    1    1    2  502    0  0.13198576052E+03  0.25937884438E+03  0.23582027712E+03  0.37457820144E+03  0.00000000000E+00 0. -1.
         22    1    3    3    0    0 -0.61698871922E+02 -0.24959805773E+02 -0.33257411497E+03  0.33916851954E+03  0.00000000000E+00 0.  1.
         22    1    3    3    0    0 -0.62640213399E+02 -0.26383625992E+03 -0.11583687032E+04  0.11896854294E+04  0.00000000000E+00 0.  1.
</event>
<event>
 7    1  0.6278987E-006  0.7683150E+02  0.7818608E-02  0.1379765E+00
          2   -1    0    0  502    0  0.00000000000E+00  0.00000000000E+00  0.17068426633E+04  0.17068426633E+04  0.00000000000E+00 0. -1.
          1   -1    0    0  501    0 -0.00000000000E+00 -0.00000000000E+00 -0.11766119938E+03  0.11766119938E+03  0.00000000000E+00 0. -1.
         25    2    1    2    0    0 -0.26771091344E+02  0.87882290812E+02  0.12064068270E+03  0.19652143891E+03  0.12500605288E+03 0.  0.
          2    1    1    2  501    0 -0.34664092817E+02 -0.41653723670E+02 -0.69439127996E+02  0.88081919389E+02  0.00000000000E+00 0. -1.
          1    1    1    2  502    0  0.61435184161E+02 -0.46228567142E+02  0.15379799092E+04  0.15399005044E+04  0.00000000000E+00 0. -1.
         22    1    3    3    0    0  0.22039828645E+02 -0.16138011998E+02  0.61495452884E+02  0.67289525213E+02  0.00000000000E+00 0.  1.
         22    1    3    3    0    0 -0.48810919989E+02  0.10402030281E+03  0.59145229820E+02  0.12923191369E+03  0.00000000000E+00 0.  1.
</event>
<event>
 7    1  0.6278987E-006  0.3484590E+02  0.7818608E-02  0.1591258E+00
          2   -1    0    0  502    0  0.00000000000E+00  0.00000000000E+00  0.86478831023E+03  0.86478831023E+03  0.00000000000E+00 0. -1.
          1   -1    0    0  501    0 -0.00000000000E+00 -0.00000000000E+00 -0.81193854782E+02  0.81193854782E+02  0.00000000000E+00 0. -1.
         25    2    1    2    0    0 -0.40920739533E+02  0.39601249086E+02  0.53032968373E+03  0.54782963975E+03  0.12499989954E+03 0.  0.
          2    1    1    2  501    0  0.15377062263E+02 -0.31106435573E+02 -0.67692695035E+02  0.76068162453E+02  0.00000000000E+00 0. -1.
          1    1    1    2  502    0  0.25543677269E+02 -0.84948135129E+01  0.32095746675E+03  0.32208436282E+03  0.00000000000E+00 0. -1.
         22    1    3    3    0    0  0.37315719221E+01  0.36195860404E+02  0.47614999905E+03  0.47753836132E+03  0.00000000000E+00 0.  1.
         22    1    3    3    0    0 -0.44652311455E+02  0.34053886815E+01  0.54179684685E+02  0.70291278427E+02  0.00000000000E+00 0.  1.
</event>
<event>
 7    1  0.6278987E-006  0.5160026E+02  0.7818608E-02  0.1471408E+00
          2   -1    0    0  502    0  0.00000000000E+00  0.00000000000E+00  0.83000361042E+02  0.83000361042E+02  0.00000000000E+00 0. -1.
          1   -1    0    0  501    0 -0.00000000000E+00 -0.00000000000E+00 -0.31705700817E+03  0.31705700817E+03  0.00000000000E+00 0. -1.
         25    2    1    2    0    0 -0.27725961562E+02 -0.78926762539E+01 -0.18922859274E+03  0.22861245036E+03  0.12500067546E+03 0.  0.
          2    1    1    2  501    0  0.49732843758E+02  0.41383168949E+02 -0.90139317290E+02  0.11095503117E+03  0.00000000000E+00 0. -1.
          1    1    1    2  502    0 -0.22006882195E+02 -0.33490492695E+02  0.45311262908E+02  0.60489887677E+02  0.00000000000E+00 0. -1.
         22    1    3    3    0    0 -0.56205903716E+02 -0.51445232429E+02 -0.11551627783E+03  0.13838253501E+03  0.00000000000E+00 0. -1.
         22    1    3    3    0    0  0.28479942154E+02  0.43552556175E+02 -0.73712314909E+02  0.90229915348E+02  0.00000000000E+00 0. -1.
</event>
<event>
 7    1  0.1154331E-005  0.1109800E+03  0.7818608E-02  0.1391470E+00
          2   -1    0    0  502    0  0.00000000000E+00  0.00000000000E+00  0.87868565419E+03  0.87868565419E+03  0.00000000000E+00 0. -1.
          1   -1    0    0  501    0 -0.00000000000E+00 -0.00000000000E+00 -0.18795350061E+04  0.18795350061E+04  0.00000000000E+00 0. -1.
         25    2    1    2    0    0 -0.10419104774E+03 -0.92300168371E+02 -0.40697861227E+03  0.44793258546E+03  0.12504764997E+03 0.  0.
          2    1    1    2  501    0  0.11114691126E+02  0.32266934550E+02 -0.14483040649E+04  0.14487060971E+04  0.00000000000E+00 0. -1.
          1    1    1    2  502    0  0.93076356614E+02  0.60033233821E+02  0.85443332516E+03  0.86158197780E+03  0.00000000000E+00 0. -1.
         22    1    3    3    0    0 -0.68968199796E+02 -0.39132110839E+02 -0.36023707323E+03  0.36886133385E+03  0.00000000000E+00 0.  1.
         22    1    3    3    0    0 -0.35222847944E+02 -0.53168057532E+02 -0.46741539037E+02  0.79071251606E+02  0.00000000000E+00 0.  1.
</event>
<event>
 7    1  0.6278987E-006  0.1138848E+03  0.7818608E-02  0.1379089E+00
          2   -1    0    0  502    0  0.00000000000E+00  0.00000000000E+00  0.16077242087E+03  0.16077242087E+03  0.00000000000E+00 0. -1.
          1   -1    0    0  501    0 -0.00000000000E+00 -0.00000000000E+00 -0.11613103999E+04  0.11613103999E+04  0.00000000000E+00 0. -1.
         25    2    1    2    0    0  0.12475776526E+03  0.81137791349E+02 -0.55637537069E+03  0.58934323664E+03  0.12499622511E+03 0.  0.
          2    1    1    2  501    0 -0.33335401270E+02 -0.15497260718E+02 -0.56581663472E+03  0.56700959269E+03  0.00000000000E+00 0. -1.
          1    1    1    2  502    0 -0.91422363994E+02 -0.65640530631E+02  0.12165402643E+03  0.16572999139E+03  0.00000000000E+00 0. -1.
         22    1    3    3    0    0  0.29021802192E+02 -0.15914693102E+02 -0.27054582059E+02  0.42749185599E+02  0.00000000000E+00 0. -1.
         22    1    3    3    0    0  0.95735963072E+02  0.97052484451E+02 -0.52932078863E+03  0.54659405104E+03  0.00000000000E+00 0. -1.
</event>
<event>
 7    1  0.6278987E-006  0.5789050E+02  0.7818608E-02  0.1428761E+00
          2   -1    0    0  502    0  0.00000000000E+00  0.00000000000E+00  0.59488412432E+03  0.59488412432E+03  0.00000000000E+00 0. -1.
          1   -1    0    0  501    0 -0.00000000000E+00 -0.00000000000E+00 -0.32428443652E+03  0.32428443652E+03  0.00000000000E+00 0. -1.
         25    2    1    2    0    0 -0.12036004130E+02 -0.25274639630E+01 -0.12962013558E+02  0.12626750127E+03  0.12499685841E+03 0.  0.
          2    1    1    2  501    0  0.55466746808E+02  0.25014830852E+02 -0.24990063794E+03  0.25720153695E+03  0.00000000000E+00 0. -1.
          1    1    1    2  502    0 -0.43430742678E+02 -0.22487366889E+02  0.53346233930E+03  0.53569952262E+03  0.00000000000E+00 0. -1.
         22    1    3    3    0    0 -0.16759441180E+02 -0.60169626544E+02  0.11432766096E+02  0.63497802857E+02  0.00000000000E+00 0.  1.
         22    1    3    3    0    0  0.47234370503E+01  0.57642162581E+02 -0.24394779654E+02  0.62769698413E+02  0.00000000000E+00 0.  1.
</event>
<event>
 7    1  0.6278987E-006  0.2736549E+02  0.7818608E-02  0.1637576E+00
          2   -1    0    0  502    0  0.00000000000E+00  0.00000000000E+00  0.70018847395E+03  0.70018847395E+03  0.00000000000E+00 0. -1.
          1   -1    0    0  501    0 -0.00000000000E+00 -0.00000000000E+00 -0.15229273841E+04  0.15229273841E+04  0.00000000000E+00 0. -1.
         25    2    1    2    0    0 -0.43632853152E+01  0.16082638880E+02  0.36446585045E+02  0.13126922739E+03  0.12500226784E+03 0.  0.
          2    1    1    2  501    0  0.26059431051E+02  0.81610188136E+00 -0.14750940370E+04  0.14753244314E+04  0.00000000000E+00 0. -1.
          1    1    1    2  502    0 -0.21696145736E+02 -0.16898740762E+02  0.61590854185E+03  0.61652219920E+03  0.00000000000E+00 0. -1.
         22    1    3    3    0    0  0.25787962144E+02 -0.40221603473E+02  0.46432553741E+02  0.66624157964E+02  0.00000000000E+00 0. -1.
         22    1    3    3    0    0 -0.30151247459E+02  0.56304242353E+02 -0.99859686958E+01  0.64645069426E+02  0.00000000000E+00 0. -1.
</event>
<event>
 7    1  0.6278987E-006  0.1796560E+03  0.7818608E-02  0.1217149E+00
          2   -1    0    0  502    0  0.00000000000E+00  0.00000000000E+00  0.21491639785E+03  0.21491639785E+03  0.00000000000E+00 0. -1.
          1   -1    0    0  501    0 -0.00000000000E+00 -0.00000000000E+00 -0.25713204970E+04  0.25713204970E+04  0.00000000000E+00 0. -1.
         25    2    1    2    0    0 -0.85705444529E+02 -0.56112472812E+02 -0.75055466999E+03  0.76775730711E+03  0.12499974863E+03 0.  0.
          2    1    1    2  501    0 -0.97845324326E+02  0.37469950642E+02 -0.17690566160E+04  0.17721566001E+04  0.00000000000E+00 0. -1.
          1    1    1    2  502    0  0.18355076886E+03  0.18642522170E+02  0.16320718686E+03  0.24632298760E+03  0.00000000000E+00 0. -1.
         22    1    3    3    0    0  0.53777498715E+01  0.13105301213E+02 -0.76565239236E+01  0.16102529992E+02  0.00000000000E+00 0. -1.
         22    1    3    3    0    0 -0.91083194400E+02 -0.69217774024E+02 -0.74289814606E+03  0.75165477712E+03  0.00000000000E+00 0. -1.
</event>
<event>
 7    1  0.6278987E-006  0.4288839E+03  0.7818608E-02  0.1191606E+00
          2   -1    0    0  502    0  0.00000000000E+00  0.00000000000E+00  0.21122406096E+04  0.21122406096E+04  0.00000000000E+00 0. -1.
          1   -1    0    0  501    0 -0.00000000000E+00 -0.00000000000E+00 -0.76291108303E+03  0.76291108303E+03  0.00000000000E+00 0. -1.
         25    2    1    2    0    0 -0.19273410437E+03  0.39741310419E+03  0.15354033180E+04  0.16025515445E+04  0.12499797329E+03 0.  0.
          2    1    1    2  501    0  0.54172577217E+02 -0.20160046858E+02 -0.65355825773E+03  0.65610935968E+03  0.00000000000E+00 0. -1.
          1    1    1    2  502    0  0.13856152715E+03 -0.37725305733E+03  0.46748446628E+03  0.61649078848E+03  0.00000000000E+00 0. -1.
         22    1    3    3    0    0 -0.20547395504E+03  0.34767731835E+03  0.14185217337E+04  0.14748908342E+04  0.00000000000E+00 0. -1.
         22    1    3    3    0    0  0.12739850673E+02  0.49735785839E+02  0.11688158438E+03  0.12766071031E+03  0.00000000000E+00 0. -1.
</event>
<event>
 7    1  0.6278987E-006  0.4619811E+02  0.7818608E-02  0.1470720E+00
          2   -1    0    0  502    0  0.00000000000E+00  0.00000000000E+00  0.18643828173E+04  0.18643828173E+04  0.00000000000E+00 0. -1.
          1   -1    0    0  501    0 -0.00000000000E+00 -0.00000000000E+00 -0.34370646986E+02  0.34370646986E+02  0.00000000000E+00 0. -1.
         25    2    1    2    0    0 -0.19806513059E+02  0.22489672130E+02  0.15359734309E+03  0.20029097513E+03  0.12500499030E+03 0.  0.
          2    1    1    2  501    0 -0.14037732629E+02 -0.53935373578E+02  0.61923310940E+02  0.83310136828E+02  0.00000000000E+00 0. -1.
          1    1    1    2  502    0  0.33844245688E+02  0.31445701448E+02  0.16144915162E+04  0.16151523523E+04  0.00000000000E+00 0. -1.
         22    1    3    3    0    0  0.14713156237E+00  0.56053763930E+02  0.15110186891E+03  0.16116395654E+03  0.00000000000E+00 0. -1.
         22    1    3    3    0    0 -0.19953644621E+02 -0.33564091800E+02  0.24954741809E+01  0.39127018586E+02  0.00000000000E+00 0. -1.
</event>
<event>
 7    1  0.6278987E-006  0.2746279E+02  0.7818608E-02  0.1631920E+00
          2   -1    0    0  502    0  0.00000000000E+00  0.00000000000E+00  0.39206091802E+03  0.39206091802E+03  0.00000000000E+00 0. -1.
          1   -1    0    0  501    0 -0.00000000000E+00 -0.00000000000E+00 -0.60509035006E+02  0.60509035006E+02  0.00000000000E+00 0. -1.
         25    2    1    2    0    0 -0.10590195996E+02 -0.65030804302E+01  0.15553980200E+03  0.19993022884E+03  0.12500009636E+03 0.  0.
          2    1    1    2  501    0 -0.11771511262E+02  0.24120325594E+02 -0.32524663158E+02  0.42168854593E+02  0.00000000000E+00 0. -1.
          1    1    1    2  502    0  0.22361707258E+02 -0.17617245164E+02  0.20853674417E+03  0.21047086960E+03  0.00000000000E+00 0. -1.
         22    1    3    3    0    0 -0.78625424681E+00 -0.89763160864E+01  0.17646253340E+03  0.17669243940E+03  0.00000000000E+00 0.  1.
         22    1    3    3    0    0 -0.98039417491E+01  0.24732356562E+01 -0.20922731405E+02  0.23237789436E+02  0.00000000000E+00 0.  1.
</event>
<event>
 7    1  0.6278987E-006  0.1742006E+03  0.7818608E-02  0.1309962E+00
          2   -1    0    0  502    0  0.00000000000E+00  0.00000000000E+00  0.14825862958E+04  0.14825862958E+04  0.00000000000E+00 0. -1.
          1   -1    0    0  501    0 -0.00000000000E+00 -0.00000000000E+00 -0.24556739028E+04  0.24556739028E+04  0.00000000000E+00 0. -1.
         25    2    1    2    0    0 -0.80413227101E+02 -0.13253565370E+03 -0.67527991384E+02  0.21027756052E+03  0.12499854497E+03 0.  0.
          2    1    1    2  501    0  0.26975702943E+02 -0.34223794372E+02 -0.23111326783E+04  0.23115434699E+04  0.00000000000E+00 0. -1.
          1    1    1    2  502    0  0.53437524157E+02  0.16675944807E+03  0.14055730627E+04  0.14164391681E+04  0.00000000000E+00 0. -1.
         22    1    3    3    0    0  0.16385706858E+02 -0.61287284937E+02  0.14098145917E+02  0.64987540364E+02  0.00000000000E+00 0. -1.
         22    1    3    3    0    0 -0.96798933959E+02 -0.71248368760E+02 -0.81626137300E+02  0.14529002016E+03  0.00000000000E+00 0. -1.
</event>
<event>
 7    1  0.6278987E-006  0.3158573E+03  0.7818608E-02  0.1190547E+00
          2   -1    0    0  502    0  0.00000000000E+00  0.00000000000E+00  0.48144081821E+03  0.48144081821E+03  0.00000000000E+00 0. -1.
          1   -1    0    0  501    0 -0.00000000000E+00 -0.00000000000E+00 -0.39362206186E+03  0.39362206186E+03  0.00000000000E+00 0. -1.
         25    2    1    2    0    0 -0.26498507533E+03  0.26189225063E+03  0.82082828717E+02  0.40145740144E+03  0.12500325321E+03 0.  0.
          2    1    1    2  501    0  0.21089188911E+03 -0.20375736556E+03 -0.12649407507E+03  0.31936374863E+03  0.00000000000E+00 0. -1.
          1    1    1    2  502    0  0.54093186217E+02 -0.58134885074E+02  0.13223000271E+03  0.15424173000E+03  0.00000000000E+00 0. -1.
         22    1    3    3    0    0 -0.77177471788E+02  0.10780771075E+03  0.86822950239E+02  0.15848371947E+03  0.00000000000E+00 0.  1.
         22    1    3    3    0    0 -0.18780760354E+03  0.15408453988E+03 -0.47401215216E+01  0.24297368197E+03  0.00000000000E+00 0.  1.
</event>
<event>
 7    1  0.1450494E-005  0.5337799E+02  0.7818608E-02  0.1430442E+00
          2   -1    0    0  502    0  0.00000000000E+00  0.00000000000E+00  0.98430535463E+03  0.98430535463E+03  0.00000000000E+00 0. -1.
          1   -1    0    0  501    0 -0.00000000000E+00 -0.00000000000E+00 -0.10227843022E+04  0.10227843022E+04  0.00000000000E+00 0. -1.
         25    2    1    2    0    0  0.44680450720E+02  0.35071282244E+02 -0.31500807463E+03  0.34363135774E+03  0.12500434162E+03 0.  0.
          2    1    1    2  501    0  0.38440061923E+01 -0.54767680270E+02 -0.69166915727E+03  0.69384472204E+03  0.00000000000E+00 0. -1.
          1    1    1    2  502    0 -0.48524456912E+02  0.19696398026E+02  0.96819828434E+03  0.96961357705E+03  0.00000000000E+00 0. -1.
         22    1    3    3    0    0  0.60753379093E+02  0.98495110533E-02 -0.29298316682E+03  0.29921582379E+03  0.00000000000E+00 0. -1.
         22    1    3    3    0    0 -0.16072928373E+02  0.35061432733E+02 -0.22024907817E+02  0.44415533951E+02  0.00000000000E+00 0. -1.
</event>
<event>
 7    1  0.6278987E-006  0.5599978E+02  0.7818608E-02  0.1485403E+00
          2   -1    0    0  502    0  0.00000000000E+00  0.00000000000E+00  0.95917571097E+02  0.95917571097E+02  0.00000000000E+00 0. -1.
          1   -1    0    0  501    0 -0.00000000000E+00 -0.00000000000E+00 -0.21920765854E+03  0.21920765854E+03  0.00000000000E+00 0. -1.
         25    2    1    2    0    0 -0.42361146809E+02  0.20752613759E+02 -0.94325646614E+02  0.16354924536E+03  0.12500356119E+03 0.  0.
          2    1    1    2  501    0  0.60284268734E+02  0.74814661287E+01 -0.73835736645E+02  0.95613186319E+02  0.00000000000E+00 0. -1.
          1    1    1    2  502    0 -0.17923121924E+02 -0.28234079888E+02  0.44871295819E+02  0.55962797956E+02  0.00000000000E+00 0. -1.
         22    1    3    3    0    0  0.39227536361E+02 -0.15520163479E+02 -0.44421003138E+02  0.61260922318E+02  0.00000000000E+00 0.  1.
         22    1    3    3    0    0 -0.81588683171E+02  0.36272777238E+02 -0.49904643475E+02  0.10228832304E+03  0.00000000000E+00 0.  1.
</event>
<event>
 7    1  0.6278987E-006  0.3796762E+02  0.7818608E-02  0.1526506E+00
          2   -1    0    0  502    0  0.00000000000E+00  0.00000000000E+00  0.68391547157E+03  0.68391547157E+03  0.00000000000E+00 0. -1.
          1   -1    0    0  501    0 -0.00000000000E+00 -0.00000000000E+00 -0.26761514340E+03  0.26761514340E+03  0.00000000000E+00 0. -1.
         25    2    1    2    0    0  0.10680012022E+01 -0.31819699004E+01 -0.43978265762E+02  0.13254504784E+03  0.12499134485E+03 0.  0.
          2    1    1    2  501    0 -0.38986633019E+02  0.12538665620E+01 -0.17666062154E+03  0.18091573989E+03  0.00000000000E+00 0. -1.
          1    1    1    2  502    0  0.37918631817E+02  0.19281033384E+01  0.63693921548E+03  0.63806982725E+03  0.00000000000E+00 0. -1.
         22    1    3    3    0    0  0.49245178119E+02 -0.39419927077E+02 -0.33274243528E+02  0.71317553948E+02  0.00000000000E+00 0.  1.
         22    1    3    3    0    0 -0.48177176917E+02  0.36237957177E+02 -0.10704022234E+02  0.61227493890E+02  0.00000000000E+00 0.  1.
</event>
<event>
 7    1  0.6278987E-006  0.1426804E+03  0.7818608E-02  0.1230044E+00
          2   -1    0    0  502    0  0.00000000000E+00  0.00000000000E+00  0.13839293834E+04  0.13839293834E+04  0.00000000000E+00 0. -1.
          1   -1    0    0  501    0 -0.00000000000E+00 -0.00000000000E+00 -0.10263807788E+03  0.10263807788E+03  0.00000000000E+00 0. -1.
         25    2    1    2    0    0 -0.77305958340E+02  0.57616822625E+02  0.11492265058E+03  0.19526579674E+03  0.12500242524E+03 0.  0.
          2    1    1    2  501    0  0.19193180298E+03 -0.45006524668E+02  0.10437224602E+03  0.22306270418E+03  0.00000000000E+00 0. -1.
          1    1    1    2  502    0 -0.11462584464E+03 -0.12610297957E+02  0.10619964089E+04  0.10682389604E+04  0.00000000000E+00 0. -1.
         22    1    3    3    0    0 -0.94771189075E+02  0.71882866790E+02  0.12319282359E+03  0.17124601193E+03  0.00000000000E+00 0.  1.
         22    1    3    3    0    0  0.17465230735E+02 -0.14266044166E+02 -0.82701730098E+01  0.24019784811E+02  0.00000000000E+00 0.  1.
</event>
<event>
 7    1  0.6278987E-006  0.7696729E+02  0.7818608E-02  0.1394198E+00
          2   -1    0    0  502    0  0.00000000000E+00  0.00000000000E+00  0.87887129545E+03  0.87887129545E+03  0.00000000000E+00 0. -1.
          1   -1    0    0  501    0 -0.00000000000E+00 -0.00000000000E+00 -0.43922849491E+03  0.43922849491E+03  0.00000000000E+00 0. -1.
         25    2    1    2    0    0  0.20421456188E+02 -0.78022739974E+02 -0.14061972412E+03  0.20468078723E+03  0.12496293059E+03 0.  0.
          2    1    1    2  501    0 -0.60050145506E+02  0.50679281675E+02 -0.26008374330E+03  0.27169461367E+03  0.00000000000E+00 0. -1.
          1    1    1    2  502    0  0.39628689318E+02  0.27343458299E+02  0.84034626797E+03  0.84172438947E+03  0.00000000000E+00 0. -1.
         22    1    3    3    0    0 -0.43234687295E+02 -0.16638869074E+02 -0.93808964332E+02  0.10462414606E+03  0.00000000000E+00 0. -1.
         22    1    3    3    0    0  0.63656143483E+02 -0.61383870900E+02 -0.46810759792E+02  0.10005664117E+03  0.00000000000E+00 0. -1.
</event>
<event>
 7    1  0.6278987E-006  0.1685062E+03  0.7818608E-02  0.1393428E+00
          2   -1    0    0  502    0  0.00000000000E+00  0.00000000000E+00  0.29065094877E+04  0.29065094877E+04  0.00000000000E+00 0. -1.
          1   -1    0    0  501    0 -0.00000000000E+00 -0.00000000000E+00 -0.23943704537E+03  0.23943704537E+03  0.00000000000E+00 0. -1.
         25    2    1    2    0    0 -0.47966746672E+02 -0.18327521259E+03  0.62560864989E+02  0.23543611135E+03  0.12500275343E+03 0.  0.
          2    1    1    2  501    0  0.10011414186E+02  0.19732835150E+02 -0.14962960090E+03  0.15125683674E+03  0.00000000000E+00 0. -1.
          1    1    1    2  502    0  0.37955332486E+02  0.16354237744E+03  0.27541411783E+04  0.27592535850E+04  0.00000000000E+00 0. -1.
         22    1    3    3    0    0 -0.65225905052E+02 -0.28900488503E+02  0.14158179754E+02  0.72733149110E+02  0.00000000000E+00 0. -1.
         22    1    3    3    0    0  0.17259158380E+02 -0.15437472409E+03  0.48402685235E+02  0.16270296224E+03  0.00000000000E+00 0. -1.
</event>
<event>
 7    1  0.6278987E-006  0.7771882E+02  0.7818608E-02  0.1369938E+00
          2   -1    0    0  502    0  0.00000000000E+00  0.00000000000E+00  0.50059419358E+03  0.50059419358E+03  0.00000000000E+00 0. -1.
          1   -1    0    0  501    0 -0.00000000000E+00 -0.00000000000E+00 -0.17782017742E+03  0.17782017742E+03  0.00000000000E+00 0. -1.
         25    2    1    2    0    0 -0.12162767623E+03  0.51197647294E+02  0.53079939120E+02  0.18936074483E+03  0.12500208412E+03 0.  0.
          2    1    1    2  501    0  0.50152305294E+02 -0.29288251622E+02 -0.97956469764E+02  0.11387943352E+03  0.00000000000E+00 0. -1.
          1    1    1    2  502    0  0.71475370935E+02 -0.21909395673E+02  0.36765054680E+03  0.37517419265E+03  0.00000000000E+00 0. -1.
         22    1    3    3    0    0 -0.10105739955E+03 -0.22783301487E+02  0.41973942129E+02  0.11177427543E+03  0.00000000000E+00 0.  1.
         22    1    3    3    0    0 -0.20570276679E+02  0.73980948781E+02  0.11105996991E+02  0.77586469403E+02  0.00000000000E+00 0.  1.
</event>
<event>
 7    1  0.6278987E-006  0.9364603E+02  0.7818608E-02  0.1299205E+00
          2   -1    0    0  502    0  0.00000000000E+00  0.00000000000E+00  0.17844231450E+03  0.17844231450E+03  0.00000000000E+00 0. -1.
          1   -1    0    0  501    0 -0.00000000000E+00 -0.00000000000E+00 -0.17251874679E+04  0.17251874679E+04  0.00000000000E+00 0. -1.
         25    2    1    2    0    0  0.12128742704E+03 -0.72589743622E+02 -0.46568549374E+03  0.50246251215E+03  0.12500274474E+03 0.  0.
          2    1    1    2  501    0 -0.32794561915E+02  0.85627719509E+02 -0.12267701304E+04  0.12301920754E+04  0.00000000000E+00 0. -1.
          1    1    1    2  502    0 -0.88492865122E+02 -0.13037975887E+02  0.14571047069E+03  0.17097519487E+03  0.00000000000E+00 0. -1.
         22    1    3    3    0    0 -0.20694554391E+01  0.16761205705E+02 -0.16041807367E+03  0.16130461562E+03  0.00000000000E+00 0. -1.
         22    1    3    3    0    0  0.12335688248E+03 -0.89350949327E+02 -0.30526742008E+03  0.34115789652E+03  0.00000000000E+00 0. -1.
</event>
<event>
 7    1  0.6278987E-006  0.1224261E+03  0.7818608E-02  0.1257275E+00
          2   -1    0    0  502    0  0.00000000000E+00  0.00000000000E+00  0.16742034890E+04  0.16742034890E+04  0.00000000000E+00 0. -1.
          1   -1    0    0  501    0 -0.00000000000E+00 -0.00000000000E+00 -0.94394237833E+02  0.94394237833E+02  0.00000000000E+00 0. -1.
         25    2    1    2    0    0 -0.13990608400E+02 -0.25043676639E+02  0.73712083440E+02  0.14792355490E+03  0.12499993595E+03 0.  0.
          2    1    1    2  501    0 -0.76709094266E+02 -0.67371473493E+02 -0.67298595923E+01  0.10231564687E+03  0.00000000000E+00 0. -1.
          1    1    1    2  502    0  0.90699702666E+02  0.92415150132E+02  0.15128270273E+04  0.15183585250E+04  0.00000000000E+00 0. -1.
         22    1    3    3    0    0  0.45548334405E+02 -0.46376023052E+02  0.37684639636E+02  0.75136664457E+02  0.00000000000E+00 0. -1.
         22    1    3    3    0    0 -0.59538942806E+02  0.21332346413E+02  0.36027443804E+02  0.72786890447E+02  0.00000000000E+00 0. -1.
</event>
<event>
 7    1  0.6278987E-006  0.7900060E+02  0.7818608E-02  0.1349530E+00
          2   -1    0    0  502    0  0.00000000000E+00  0.00000000000E+00  0.77000237550E+03  0.77000237550E+03  0.00000000000E+00 0. -1.
          1   -1    0    0  501    0 -0.00000000000E+00 -0.00000000000E+00 -0.51802812005E+02  0.51802812005E+02  0.00000000000E+00 0. -1.
         25    2    1    2    0    0  0.62669499671E+02  0.22121092065E+02  0.36148944210E+03  0.38822343045E+03  0.12500402513E+03 0.  0.
          2    1    1    2  501    0 -0.26591635332E+02  0.62399979746E+02  0.27491247205E+01  0.67885419854E+02  0.00000000000E+00 0. -1.
          1    1    1    2  502    0 -0.36077864339E+02 -0.84521071811E+02  0.35396099668E+03  0.36569633721E+03  0.00000000000E+00 0. -1.
         22    1    3    3    0    0 -0.37266016048E+02  0.72946315581E+01  0.13466779031E+03  0.13991919578E+03  0.00000000000E+00 0. -1.
         22    1    3    3    0    0  0.99935515719E+02  0.14826460507E+02  0.22682165179E+03  0.24830423466E+03  0.00000000000E+00 0. -1.
</event>
<event>
 7    1  0.6278987E-006  0.5597420E+02  0.7818608E-02  0.1419316E+00
          2   -1    0    0  502    0  0.00000000000E+00  0.00000000000E+00  0.11876071235E+04  0.11876071235E+04  0.00000000000E+00 0. -1.
          1   -1    0    0  501    0 -0.00000000000E+00 -0.00000000000E+00 -0.47905206251E+02  0.47905206251E+02  0.00000000000E+00 0. -1.
         25    2    1    2    0    0 -0.25194747019E+02 -0.21773205032E+02  0.17697031795E+03  0.21921188540E+03  0.12500603798E+03 0.  0.
          2    1    1    2  501    0 -0.22512520187E+02  0.51247417532E+02  0.42018279935E+01  0.56131690936E+02  0.00000000000E+00 0. -1.
          1    1    1    2  502    0  0.47707267206E+02 -0.29474212500E+02  0.95852977136E+03  0.96016875346E+03  0.00000000000E+00 0. -1.
         22    1    3    3    0    0 -0.71971799326E+02 -0.35883235640E+02  0.11391910816E+03  0.13944572314E+03  0.00000000000E+00 0. -1.
         22    1    3    3    0    0  0.46777052307E+02  0.14110030608E+02  0.63051209791E+02  0.79766162264E+02  0.00000000000E+00 0. -1.
</event>
<event>
 7    1  0.6278987E-006  0.8199801E+02  0.7818608E-02  0.1372576E+00
          2   -1    0    0  502    0  0.00000000000E+00  0.00000000000E+00  0.50223182788E+03  0.50223182788E+03  0.00000000000E+00 0. -1.
          1   -1    0    0  501    0 -0.00000000000E+00 -0.00000000000E+00 -0.47771538610E+03  0.47771538610E+03  0.00000000000E+00 0. -1.
         25    2    1    2    0    0  0.22583797793E+02  0.12310559012E+03  0.21969309021E+02  0.17824974859E+03  0.12500123235E+03 0.  0.
          2    1    1    2  501    0 -0.31654454927E+02 -0.43576782998E+02 -0.39374023828E+03  0.39740699009E+03  0.00000000000E+00 0. -1.
          1    1    1    2  502    0  0.90706571334E+01 -0.79528807124E+02  0.39628737104E+03  0.40429047531E+03  0.00000000000E+00 0. -1.
         22    1    3    3    0    0  0.18698396799E+02  0.13570938823E+03  0.51148120168E+02  0.14622858234E+03  0.00000000000E+00 0. -1.
         22    1    3    3    0    0  0.38854009948E+01 -0.12603798110E+02 -0.29178811147E+02  0.32021166244E+02  0.00000000000E+00 0. -1.
</event>
<event>
 7    1  0.6278987E-006  0.6360058E+02  0.7818608E-02  0.1484268E+00
          2   -1    0    0  502    0  0.00000000000E+00  0.00000000000E+00  0.38192498715E+03  0.38192498715E+03  0.00000000000E+00 0. -1.
          1   -1    0    0  501    0 -0.00000000000E+00 -0.00000000000E+00 -0.19320247990E+04  0.19320247990E+04  0.00000000000E+00 0. -1.
         25    2    1    2    0    0  0.13549737994E+02  0.92055689596E+02 -0.35963841962E+03  0.39194744541E+03  0.12500064682E+03 0.  0.
          2    1    1    2  501    0 -0.51925200695E+01 -0.29223658616E+02 -0.15533429685E+04  0.15536265195E+04  0.00000000000E+00 0. -1.
          1    1    1    2  502    0 -0.83572179243E+01 -0.62832030980E+02  0.36288157629E+03  0.36837582116E+03  0.00000000000E+00 0. -1.
         22    1    3    3    0    0 -0.41962468570E+02  0.78153484417E+02 -0.28114924917E+03  0.29481132306E+03  0.00000000000E+00 0.  1.
         22    1    3    3    0    0  0.55512206564E+02  0.13902205179E+02 -0.78489170454E+02  0.97136122349E+02  0.00000000000E+00 0.  1.
</event>
<event>
 7    1  0.6278987E-006  0.7519524E+02  0.7818608E-02  0.1437313E+00
          2   -1    0    0  502    0  0.00000000000E+00  0.00000000000E+00  0.22961942716E+04  0.22961942716E+04  0.00000000000E+00 0. -1.
          1   -1    0    0  501    0 -0.00000000000E+00 -0.00000000000E+00 -0.15627833863E+04  0.15627833863E+04  0.00000000000E+00 0. -1.
         25    2    1    2    0    0  0.10313842577E+03  0.25677368804E+02 -0.77056739266E+02  0.18127185756E+03  0.12499953255E+03 0.  0.
          2    1    1    2  501    0 -0.28218914543E+02 -0.21205362390E+02 -0.14327741235E+04  0.14332088695E+04  0.00000000000E+00 0. -1.
          1    1    1    2  502    0 -0.74919511227E+02 -0.44720064146E+01  0.22432417481E+04  0.22444969309E+04  0.00000000000E+00 0. -1.
         22    1    3    3    0    0  0.96456871326E+02  0.64795753873E+02 -0.80618292989E+02  0.14142746166E+03  0.00000000000E+00 0. -1.
         22    1    3    3    0    0  0.66815544436E+01 -0.39118385068E+02  0.35615537236E+01  0.39844395905E+02  0.00000000000E+00 0. -1.
</event>
<event>
 7    1  0.6278987E-006  0.9694292E+02  0.7818608E-02  0.1355311E+00
          2   -1    0    0  502    0  0.00000000000E+00  0.00000000000E+00  0.18003456531E+04  0.18003456531E+04  0.00000000000E+00 0. -1.
          1   -1    0    0  501    0 -0.00000000000E+00 -0.00000000000E+00 -0.23617243482E+02  0.23617243482E+02  0.00000000000E+00 0. -1.
         25    2    1    2    0    0 -0.42649084767E+02  0.80807116760E+02  0.57065201276E+03  0.59128145680E+03  0.12498522690E+03 0.  0.
          2    1    1    2  501    0  0.87526730373E+02 -0.53322485690E+02  0.19550382846E+03  0.22073958175E+03  0.00000000000E+00 0. -1.
          1    1    1    2  502    0 -0.44877645605E+02 -0.27484631070E+02  0.10105725684E+04  0.10119418580E+04  0.00000000000E+00 0. -1.
         22    1    3    3    0    0 -0.72075128821E+02  0.12781014347E+02  0.19278541515E+03  0.20621443891E+03  0.00000000000E+00 0.  1.
         22    1    3    3    0    0  0.29426044053E+02  0.68026102413E+02  0.37786659761E+03  0.38506701789E+03  0.00000000000E+00 0.  1.
</event>
<event>
 7    1  0.6278987E-006  0.9700132E+02  0.7818608E-02  0.1385139E+00
          2   -1    0    0  502    0  0.00000000000E+00  0.00000000000E+00  0.26612210352E+04  0.26612210352E+04  0.00000000000E+00 0. -1.
          1   -1    0    0  501    0 -0.00000000000E+00 -0.00000000000E+00 -0.11298170584E+03  0.11298170584E+03  0.00000000000E+00 0. -1.
         25    2    1    2    0    0 -0.53283886276E+02 -0.95575130041E+02  0.26307769699E+03  0.31114024177E+03  0.12499838948E+03 0.  0.
          2    1    1    2  501    0  0.12195617690E+02  0.95747228537E+02 -0.62533777297E+02  0.11500755700E+03  0.00000000000E+00 0. -1.
          1    1    1    2  502    0  0.41088268586E+02 -0.17209849601E+00  0.23476954097E+04  0.23480549423E+04  0.00000000000E+00 0. -1.
         22    1    3    3    0    0 -0.64264922683E+02 -0.10039502718E+03  0.27148018900E+03  0.29649727619E+03  0.00000000000E+00 0. -1.
         22    1    3    3    0    0  0.10981036407E+02  0.48198971363E+01 -0.84024920043E+01  0.14642965576E+02  0.00000000000E+00 0. -1.
</event>
<event>
 7    1  0.6278987E-006  0.1526357E+03  0.7818608E-02  0.1324737E+00
          2   -1    0    0  502    0  0.00000000000E+00  0.00000000000E+00  0.41049017113E+04  0.41049017113E+04  0.00000000000E+00 0. -1.
          1   -1    0    0  501    0 -0.00000000000E+00 -0.00000000000E+00 -0.50109679012E+03  0.50109679012E+03  0.00000000000E+00 0. -1.
         25    2    1    2    0    0 -0.60857958989E+02  0.18574511975E+03  0.86008694040E+03  0.89083113503E+03  0.12500250159E+03 0.  0.
          2    1    1    2  501    0  0.44277566970E+02 -0.14546450771E+03 -0.47367368630E+03  0.49748084087E+03  0.00000000000E+00 0. -1.
          1    1    1    2  502    0  0.16580392019E+02 -0.40280612039E+02  0.32173916671E+04  0.32176865256E+04  0.00000000000E+00 0. -1.
         22    1    3    3    0    0  0.79165058791E+01  0.30656706648E+02  0.38611625406E+03  0.38741226927E+03  0.00000000000E+00 0. -1.
         22    1    3    3    0    0 -0.68774464868E+02  0.15508841310E+03  0.47397068634E+03  0.50341886576E+03  0.00000000000E+00 0. -1.
</event>
<event>
 7    1  0.6278987E-006  0.7824259E+02  0.7818608E-02  0.1408412E+00
          2   -1    0    0  502    0  0.00000000000E+00  0.00000000000E+00  0.15098642768E+04  0.15098642768E+04  0.00000000000E+00 0. -1.
          1   -1    0    0  501    0 -0.00000000000E+00 -0.00000000000E+00 -0.50666518281E+02  0.50666518281E+02  0.00000000000E+00 0. -1.
         25    2    1    2    0    0 -0.12753603367E+02 -0.40056622414E+02  0.15378038344E+03  0.20258314914E+03  0.12499735433E+03 0.  0.
          2    1    1    2  501    0  0.13558520966E+02 -0.40099244925E+02 -0.71549352307E+01  0.42929896721E+02  0.00000000000E+00 0. -1.
          1    1    1    2  502    0 -0.80491759904E+00  0.80155867338E+02  0.13125723103E+04  0.13150177493E+04  0.00000000000E+00 0. -1.
         22    1    3    3    0    0 -0.62845528898E+01  0.40162266566E+02  0.17380573523E+02  0.44210718120E+02  0.00000000000E+00 0. -1.
         22    1    3    3    0    0 -0.64690504774E+01 -0.80218888979E+02  0.13639980991E+03  0.15837243102E+03  0.00000000000E+00 0. -1.
</event>
<event>
 7    1  0.6278987E-006  0.5178809E+02  0.7818608E-02  0.1551688E+00
          2   -1    0    0  502    0  0.00000000000E+00  0.00000000000E+00  0.24722189331E+04  0.24722189331E+04  0.00000000000E+00 0. -1.
          1   -1    0    0  501    0 -0.00000000000E+00 -0.00000000000E+00 -0.87687753448E+03  0.87687753448E+03  0.00000000000E+00 0. -1.
         25    2    1    2    0    0 -0.23569923287E+02 -0.66254416421E+02  0.28785387111E+03  0.32160726871E+03  0.12500478068E+03 0.  0.
          2    1    1    2  501    0 -0.40827596657E+01  0.22827420472E+02 -0.85953871296E+03  0.85985147504E+03  0.00000000000E+00 0. -1.
          1    1    1    2  502    0  0.27652682953E+02  0.43426995949E+02  0.21670262404E+04  0.21676377238E+04  0.00000000000E+00 0. -1.
         22    1    3    3    0    0 -0.51577212789E+01  0.20979061584E+02  0.14555050842E+01  0.21652750606E+02  0.00000000000E+00 0.  1.
         22    1    3    3    0    0 -0.18412202008E+02 -0.87233478005E+02  0.28639836602E+03  0.29995451810E+03  0.00000000000E+00 0.  1.
</event>
<event>
 7    1  0.6278987E-006  0.6620614E+03  0.7818608E-02  0.1032041E+00
          2   -1    0    0  502    0  0.00000000000E+00  0.00000000000E+00  0.51467674953E+03  0.51467674953E+03  0.00000000000E+00 0. -1.
          1   -1    0    0  501    0 -0.00000000000E+00 -0.00000000000E+00 -0.18610976269E+04  0.18610976269E+04  0.00000000000E+00 0. -1.
         25    2    1    2    0    0  0.64066230037E+03 -0.15195717643E+03 -0.31511570033E+03  0.74058259768E+03  0.12500205125E+03 0.  0.
          2    1    1    2  501    0 -0.66926284774E+03 -0.13348909584E+03 -0.11397993162E+04  0.13284858220E+04  0.00000000000E+00 0. -1.
          1    1    1    2  502    0  0.28600547370E+02  0.28544627228E+03  0.10849413916E+03  0.30670595674E+03  0.00000000000E+00 0. -1.
         22    1    3    3    0    0  0.53867890532E+02  0.17899606943E+02 -0.45935949330E+02  0.73022304811E+02  0.00000000000E+00 0.  1.
         22    1    3    3    0    0  0.58679440983E+03 -0.16985678338E+03 -0.26917975100E+03  0.66756029287E+03  0.00000000000E+00 0.  1.
</event>
<event>
 7    1  0.6278987E-006  0.1032525E+03  0.7818608E-02  0.1457795E+00
          2   -1    0    0  502    0  0.00000000000E+00  0.00000000000E+00  0.13505667492E+03  0.13505667492E+03  0.00000000000E+00 0. -1.
          1   -1    0    0  501    0 -0.00000000000E+00 -0.00000000000E+00 -0.14144836427E+04  0.14144836427E+04  0.00000000000E+00 0. -1.
         25    2    1    2    0    0 -0.52851133259E+01  0.85003558736E+02 -0.15999395071E+03  0.22017287751E+03  0.12499797721E+03 0.  0.
          2    1    1    2  501    0  0.74403582874E+01  0.20803848685E+02 -0.11975977690E+04  0.11978015593E+04  0.00000000000E+00 0. -1.
          1    1    1    2  502    0 -0.21552449615E+01 -0.10580740742E+03  0.78164751959E+02  0.13156588082E+03  0.00000000000E+00 0. -1.
         22    1    3    3    0    0 -0.53900182610E+02  0.79888782146E+02 -0.74969955208E+02  0.12209808099E+03  0.00000000000E+00 0.  1.
         22    1    3    3    0    0  0.48615069284E+02  0.51147765902E+01 -0.85023995505E+02  0.98074796521E+02  0.00000000000E+00 0.  1.
</event>
<event>
 7    1  0.6278987E-006  0.4914398E+02  0.7818608E-02  0.1507053E+00
          2   -1    0    0  502    0  0.00000000000E+00  0.00000000000E+00  0.11950536690E+04  0.11950536690E+04  0.00000000000E+00 0. -1.
          1   -1    0    0  501    0 -0.00000000000E+00 -0.00000000000E+00 -0.51633038883E+03  0.51633038883E+03  0.00000000000E+00 0. -1.
         25    2    1    2    0    0  0.15382867544E+02 -0.21315679093E+02  0.36418011938E+03  0.38592884596E+03  0.12499169574E+03 0.  0.
          2    1    1    2  501    0 -0.47296660251E+02  0.13678663115E+02 -0.50392750992E+03  0.50632698442E+03  0.00000000000E+00 0. -1.
          1    1    1    2  502    0  0.31913792706E+02  0.76370159786E+01  0.81847067069E+03  0.81912822742E+03  0.00000000000E+00 0. -1.
         22    1    3    3    0    0  0.50525915646E+02  0.23519543152E+02  0.27134065408E+03  0.27700503176E+03  0.00000000000E+00 0. -1.
         22    1    3    3    0    0 -0.35143048101E+02 -0.44835222245E+02  0.92839465292E+02  0.10892381420E+03  0.00000000000E+00 0. -1.
</event>
<event>
 7    1  0.6278987E-006  0.1537762E+03  0.7818608E-02  0.1204107E+00
          2   -1    0    0  502    0  0.00000000000E+00  0.00000000000E+00  0.19078174247E+04  0.19078174247E+04  0.00000000000E+00 0. -1.
          1   -1    0    0  501    0 -0.00000000000E+00 -0.00000000000E+00 -0.22758176753E+03  0.22758176753E+03  0.00000000000E+00 0. -1.
         25    2    1    2    0    0 -0.13261089951E+02 -0.23084892712E+02  0.30833312956E+03  0.33377484574E+03  0.12501023993E+03 0.  0.
          2    1    1    2  501    0  0.57191161470E+02  0.15672606715E+03 -0.17880392714E+03  0.24455006325E+03  0.00000000000E+00 0. -1.
          1    1    1    2  502    0 -0.43930071519E+02 -0.13364117444E+03  0.15507064548E+04  0.15570742832E+04  0.00000000000E+00 0. -1.
         22    1    3    3    0    0 -0.58903013596E+02 -0.12609779813E+02  0.25836091495E+03  0.26529028239E+03  0.00000000000E+00 0. -1.
         22    1    3    3    0    0  0.45641923645E+02 -0.10475112900E+02  0.49972214617E+02  0.68484563356E+02  0.00000000000E+00 0. -1.
</event>
<event>
 7    1  0.6278987E-006  0.2043739E+03  0.7818608E-02  0.1229573E+00
          2   -1    0    0  502    0  0.00000000000E+00  0.00000000000E+00  0.85252106178E+03  0.85252106178E+03  0.00000000000E+00 0. -1.
          1   -1    0    0  501    0 -0.00000000000E+00 -0.00000000000E+00 -0.24153732083E+03  0.24153732083E+03  0.00000000000E+00 0. -1.
         25    2    1    2    0    0  0.19508292887E+03 -0.14264636946E+02  0.20192918405E+03  0.30766939720E+03  0.12499693437E+03 0.  0.
          2    1    1    2  501    0  0.57924277292E+01  0.80691660550E+02 -0.15999249871E+03  0.17928272629E+03  0.00000000000E+00 0. -1.
          1    1    1    2  502    0 -0.20087535660E+03 -0.66427023604E+02  0.56904705561E+03  0.60710625912E+03  0.00000000000E+00 0. -1.
         22    1    3    3    0    0  0.45972107288E+02  0.37452109535E+02  0.11606703630E+02  0.60421939114E+02  0.00000000000E+00 0. -1.
         22    1    3    3    0    0  0.14911082158E+03 -0.51716746482E+02  0.19032248042E+03  0.24724745809E+03  0.00000000000E+00 0. -1.
</event>
<event>
 7    1  0.6278987E-006  0.1727263E+03  0.7818608E-02  0.1301373E+00
          2   -1    0    0  502    0  0.00000000000E+00  0.00000000000E+00  0.79024441779E+03  0.79024441779E+03  0.00000000000E+00 0. -1.
          1   -1    0    0  501    0 -0.00000000000E+00 -0.00000000000E+00 -0.49176479784E+03  0.49176479784E+03  0.00000000000E+00 0. -1.
         25    2    1    2    0    0  0.72591207382E+02 -0.14905664713E+03 -0.19526525135E+03  0.28502303725E+03  0.12498898326E+03 0.  0.
          2    1    1    2  501    0  0.43097065209E+02  0.20058387555E+02 -0.23917956588E+03  0.24385766478E+03  0.00000000000E+00 0. -1.
          1    1    1    2  502    0 -0.11568827259E+03  0.12899825958E+03  0.73292443717E+03  0.75312851360E+03  0.00000000000E+00 0. -1.
         22    1    3    3    0    0  0.55247024809E+02 -0.13707815946E+02 -0.11072994663E+03  0.12450405234E+03  0.00000000000E+00 0.  1.
         22    1    3    3    0    0  0.17344182573E+02 -0.13534883119E+03 -0.84535304715E+02  0.16051898491E+03  0.00000000000E+00 0.  1.
</event>
<event>
 7    1  0.6278987E-006  0.1242331E+03  0.7818608E-02  0.1269252E+00
          2   -1    0    0  502    0  0.00000000000E+00  0.00000000000E+00  0.13851862761E+04  0.13851862761E+04  0.00000000000E+00 0. -1.
          1   -1    0    0  501    0 -0.00000000000E+00 -0.00000000000E+00 -0.12946011071E+03  0.12946011071E+03  0.00000000000E+00 0. -1.
         25    2    1    2    0    0  0.15448875664E+01  0.45664388962E+02  0.82482654094E+01  0.13334586822E+03  0.12500185435E+03 0.  0.
          2    1    1    2  501    0 -0.94546391659E+02 -0.12803291889E+03  0.35625622301E+02  0.16309700629E+03  0.00000000000E+00 0. -1.
          1    1    1    2  502    0  0.93001504093E+02  0.82368529933E+02  0.12118522776E+04  0.12182035123E+04  0.00000000000E+00 0. -1.
         22    1    3    3    0    0  0.65623635811E+01  0.51242473210E+02  0.61072258601E+02  0.79991727366E+02  0.00000000000E+00 0.  1.
         22    1    3    3    0    0 -0.50174760147E+01 -0.55780842486E+01 -0.52823993191E+02  0.53354140853E+02  0.00000000000E+00 0.  1.
</event>
<event>
 7    1  0.6278987E-006  0.5527768E+02  0.7818608E-02  0.1453832E+00
          2   -1    0    0  502    0  0.00000000000E+00  0.00000000000E+00  0.23286053538E+04  0.23286053538E+04  0.00000000000E+00 0. -1.
          1   -1    0    0  501    0 -0.00000000000E+00 -0.00000000000E+00 -0.58183711067E+03  0.58183711067E+03  0.00000000000E+00 0. -1.
         25    2    1    2    0    0  0.12425075082E+02  0.35146381376E+02  0.14786332729E+04  0.14843757547E+04  0.12500149914E+03 0.  0.
          2    1    1    2  501    0  0.42451859217E+02  0.16084345964E+01 -0.57689619701E+03  0.57845826949E+03  0.00000000000E+00 0. -1.
          1    1    1    2  502    0 -0.54876934299E+02 -0.36754815973E+02  0.84503116730E+03  0.84760844033E+03  0.00000000000E+00 0. -1.
         22    1    3    3    0    0 -0.11015756706E+02 -0.32687329318E+02  0.15471236672E+03  0.15851096117E+03  0.00000000000E+00 0. -1.
         22    1    3    3    0    0  0.23440831789E+02  0.67833710695E+02  0.13239209062E+04  0.13258647935E+04  0.00000000000E+00 0. -1.
</event>
<event>
 7    1  0.6278987E-006  0.6380138E+02  0.7818608E-02  0.1402114E+00
          2   -1    0    0  502    0  0.00000000000E+00  0.00000000000E+00  0.22142699228E+03  0.22142699228E+03  0.00000000000E+00 0. -1.
          1   -1    0    0  501    0 -0.00000000000E+00 -0.00000000000E+00 -0.89291692576E+02  0.89291692576E+02  0.00000000000E+00 0. -1.
         25    2    1    2    0    0 -0.21528166856E+02  0.11633117953E+02  0.71804321489E+02  0.14621928454E+03  0.12500170873E+03 0.  0.
          2    1    1    2  501    0  0.50309119783E+02 -0.57965360340E+02 -0.78869398700E+01  0.77156946241E+02  0.00000000000E+00 0. -1.
          1    1    1    2  502    0 -0.28780952928E+02  0.46332242387E+02  0.68217918082E+02  0.87342454073E+02  0.00000000000E+00 0. -1.
         22    1    3    3    0    0  0.55469304935E+01 -0.13991568376E+02  0.98960374762E+02  0.10009839258E+03  0.00000000000E+00 0. -1.
         22    1    3    3    0    0 -0.27075097349E+02  0.25624686329E+02 -0.27156053273E+02  0.46120891961E+02  0.00000000000E+00 0. -1.
</event>
<event>
 7    1  0.6278987E-006  0.1086064E+03  0.7818608E-02  0.1365372E+00
          2   -1    0    0  502    0  0.00000000000E+00  0.00000000000E+00  0.83634452974E+03  0.83634452974E+03  0.00000000000E+00 0. -1.
          1   -1    0    0  501    0 -0.00000000000E+00 -0.00000000000E+00 -0.19273118737E+03  0.19273118737E+03  0.00000000000E+00 0. -1.
         25    2    1    2    0    0 -0.11212942814E+03  0.91977713919E+02  0.29372355632E+03  0.35062494366E+03  0.12502565764E+03 0.  0.
          2    1    1    2  501    0  0.30850868045E+02 -0.30193379882E+02 -0.15625683653E+03  0.16210988622E+03  0.00000000000E+00 0. -1.
          1    1    1    2  502    0  0.81278560092E+02 -0.61784334036E+02  0.50614662259E+03  0.51634088722E+03  0.00000000000E+00 0. -1.
         22    1    3    3    0    0 -0.50778688452E+01  0.15025093727E+01  0.14921158539E+03  0.14930552401E+03  0.00000000000E+00 0. -1.
         22    1    3    3    0    0 -0.10705155929E+03  0.90475204546E+02  0.14451197093E+03  0.20131941965E+03  0.00000000000E+00 0. -1.
</event>
<event>
 7    1  0.6278987E-006  0.3075955E+02  0.7818608E-02  0.1604209E+00
          2   -1    0    0  502    0  0.00000000000E+00  0.00000000000E+00  0.11998709289E+04  0.11998709289E+04  0.00000000000E+00 0. -1.
          1   -1    0    0  501    0 -0.00000000000E+00 -0.00000000000E+00 -0.89130225629E+02  0.89130225629E+02  0.00000000000E+00 0. -1.
         25    2    1    2    0    0 -0.10284134216E+02  0.11466260058E+01  0.95077754188E+03  0.95901428447E+03  0.12499354185E+03 0.  0.
          2    1    1    2  501    0 -0.11805464384E+02 -0.28403886616E+02 -0.80916414533E+02  0.86565673942E+02  0.00000000000E+00 0. -1.
          1    1    1    2  502    0  0.22089598601E+02  0.27257260610E+02  0.24087957590E+03  0.24342119610E+03  0.00000000000E+00 0. -1.
         22    1    3    3    0    0 -0.28638975253E+02  0.44710199639E+02  0.20582018595E+03  0.21255856087E+03  0.00000000000E+00 0.  1.
         22    1    3    3    0    0  0.18354841037E+02 -0.43563573633E+02  0.74495735593E+03  0.74645572360E+03  0.00000000000E+00 0.  1.
</event>
<event>
 7    1  0.6278987E-006  0.7850433E+02  0.7818608E-02  0.1338556E+00
          2   -1    0    0  502    0  0.00000000000E+00  0.00000000000E+00  0.14432044791E+04  0.14432044791E+04  0.00000000000E+00 0. -1.
          1   -1    0    0  501    0 -0.00000000000E+00 -0.00000000000E+00 -0.48097870640E+03  0.48097870640E+03  0.00000000000E+00 0. -1.
         25    2    1    2    0    0  0.37979911213E+00 -0.14501960863E+02  0.13023015814E+03  0.18109450571E+03  0.12499949917E+03 0.  0.
          2    1    1    2  501    0  0.71337407996E+02  0.36523144914E+02 -0.45091732129E+03  0.45798405707E+03  0.00000000000E+00 0. -1.
          1    1    1    2  502    0 -0.71717207108E+02 -0.22021184052E+02  0.12829129358E+04  0.12851046227E+04  0.00000000000E+00 0. -1.
         22    1    3    3    0    0 -0.51883405440E+02 -0.34991772743E+02  0.98250873784E+02  0.11648839478E+03  0.00000000000E+00 0. -1.
         22    1    3    3    0    0  0.52263204552E+02  0.20489811881E+02  0.31979284353E+02  0.64606110924E+02  0.00000000000E+00 0. -1.
</event>
<event>
 7    1  0.6278987E-006  0.1593428E+03  0.7818608E-02  0.1375639E+00
          2   -1    0    0  502    0  0.00000000000E+00  0.00000000000E+00  0.59816730421E+03  0.59816730421E+03  0.00000000000E+00 0. -1.
          1   -1    0    0  501    0 -0.00000000000E+00 -0.00000000000E+00 -0.41019445151E+03  0.41019445151E+03  0.00000000000E+00 0. -1.
         25    2    1    2    0    0 -0.10937074818E+02 -0.18092302209E+03 -0.35554463382E+02  0.22302700069E+03  0.12499665453E+03 0.  0.
          2    1    1    2  501    0  0.11987815512E+02  0.15391667046E+03 -0.25928527523E+03  0.30176630547E+03  0.00000000000E+00 0. -1.
          1    1    1    2  502    0 -0.10507406939E+01  0.27006351630E+02  0.48281259130E+03  0.48356844956E+03  0.00000000000E+00 0. -1.
         22    1    3    3    0    0  0.11904865892E+02 -0.16678035490E+03  0.12817359012E+02  0.16769525128E+03  0.00000000000E+00 0.  1.
         22    1    3    3    0    0 -0.22841940711E+02 -0.14142667193E+02 -0.48371822394E+02  0.55331749408E+02  0.00000000000E+00 0.  1.
</event>
<event>
 7    1  0.6278987E-006  0.1230956E+03  0.7818608E-02  0.1326917E+00
          2   -1    0    0  502    0  0.00000000000E+00  0.00000000000E+00  0.16230456301E+03  0.16230456301E+03  0.00000000000E+00 0. -1.
          1   -1    0    0  501    0 -0.00000000000E+00 -0.00000000000E+00 -0.50933857615E+03  0.50933857615E+03  0.00000000000E+00 0. -1.
         25    2    1    2    0    0 -0.66594344101E+01 -0.13086265616E+03 -0.24136018855E+03  0.30174403423E+03  0.12500135492E+03 0.  0.
          2    1    1    2  501    0 -0.48769988399E+02  0.20698785788E+02 -0.20488416705E+03  0.21162342359E+03  0.00000000000E+00 0. -1.
          1    1    1    2  502    0  0.55429422810E+02  0.11016387037E+03  0.99210342473E+02  0.15827568134E+03  0.00000000000E+00 0. -1.
         22    1    3    3    0    0  0.10091055906E+02 -0.14541956133E+03 -0.23829108925E+03  0.27934086963E+03  0.00000000000E+00 0.  1.
         22    1    3    3    0    0 -0.16750490316E+02  0.14556905167E+02 -0.30690993000E+01  0.22403164606E+02  0.00000000000E+00 0.  1.
</event>
<event>
 7    1  0.6278987E-006  0.3177036E+02  0.7818608E-02  0.1638990E+00
          2   -1    0    0  502    0  0.00000000000E+00  0.00000000000E+00  0.98847921144E+02  0.98847921144E+02  0.00000000000E+00 0. -1.
          1   -1    0    0  501    0 -0.00000000000E+00 -0.00000000000E+00 -0.15085004533E+04  0.15085004533E+04  0.00000000000E+00 0. -1.
         25    2    1    2    0    0 -0.25395665080E+02  0.14956305627E+02 -0.95529187558E+02  0.16006169327E+03  0.12500115637E+03 0.  0.
          2    1    1    2  501    0  0.15848026847E+02  0.15654566056E+02 -0.13767490712E+04  0.13769292757E+04  0.00000000000E+00 0. -1.
          1    1    1    2  502    0  0.95476382335E+01 -0.30610871683E+02  0.62625726616E+02  0.70357405405E+02  0.00000000000E+00 0. -1.
         22    1    3    3    0    0  0.48265901325E+02 -0.14567755725E+00 -0.16581495680E+02  0.51034933641E+02  0.00000000000E+00 0. -1.
         22    1    3    3    0    0 -0.73661566406E+02  0.15101983185E+02 -0.78947691878E+02  0.10902675963E+03  0.00000000000E+00 0. -1.
</event>
<event>
 7    1  0.6278987E-006  0.2561215E+03  0.7818608E-02  0.1172376E+00
          2   -1    0    0  502    0  0.00000000000E+00  0.00000000000E+00  0.27901030083E+04  0.27901030083E+04  0.00000000000E+00 0. -1.
          1   -1    0    0  501    0 -0.00000000000E+00 -0.00000000000E+00 -0.59458580530E+03  0.59458580530E+03  0.00000000000E+00 0. -1.
         25    2    1    2    0    0 -0.27516057125E+03  0.23835852869E+03  0.83982253855E+03  0.92382613128E+03  0.12499878562E+03 0.  0.
          2    1    1    2  501    0  0.21333336037E+03 -0.13544560458E+03 -0.52167596301E+03  0.57965717871E+03  0.00000000000E+00 0. -1.
          1    1    1    2  502    0  0.61827210885E+02 -0.10291292411E+03  0.18773706275E+04  0.18812055036E+04  0.00000000000E+00 0. -1.
         22    1    3    3    0    0 -0.13932494643E+03  0.17515825304E+03  0.38935451333E+03  0.44909775256E+03  0.00000000000E+00 0.  1.
         22    1    3    3    0    0 -0.13583562483E+03  0.63200275648E+02  0.45046802523E+03  0.47472837873E+03  0.00000000000E+00 0.  1.
</event>
<event>
 7    1  0.6278987E-006  0.8752019E+02  0.7818608E-02  0.1362572E+00
          2   -1    0    0  502    0  0.00000000000E+00  0.00000000000E+00  0.26346296316E+04  0.26346296316E+04  0.00000000000E+00 0. -1.
          1   -1    0    0  501    0 -0.00000000000E+00 -0.00000000000E+00 -0.16105457922E+03  0.16105457922E+03  0.00000000000E+00 0. -1.
         25    2    1    2    0    0 -0.39828554780E+02  0.23087280181E+02  0.48363881375E+02  0.14174123212E+03  0.12502869902E+03 0.  0.
          2    1    1    2  501    0  0.94624765076E+02 -0.21014806456E+02 -0.93475569712E+02  0.13465938656E+03  0.00000000000E+00 0. -1.
          1    1    1    2  502    0 -0.54796210296E+02 -0.20724737249E+01  0.25186867407E+04  0.25192835921E+04  0.00000000000E+00 0. -1.
         22    1    3    3    0    0 -0.49476695249E+01 -0.42892044765E+01  0.84369041438E+02  0.84622762080E+02  0.00000000000E+00 0. -1.
         22    1    3    3    0    0 -0.34880885255E+02  0.27376484657E+02 -0.36005160063E+02  0.57118470038E+02  0.00000000000E+00 0. -1.
</event>
<event>
 7    1  0.6278987E-006  0.7138192E+02  0.7818608E-02  0.1458245E+00
          2   -1    0    0  502    0  0.00000000000E+00  0.00000000000E+00  0.70491104232E+03  0.70491104232E+03  0.00000000000E+00 0. -1.
          1   -1    0    0  501    0 -0.00000000000E+00 -0.00000000000E+00 -0.91906776568E+03  0.91906776568E+03  0.00000000000E+00 0. -1.
         25    2    1    2    0    0 -0.56860464609E+02  0.13074019552E+02 -0.28933404765E+03  0.32053677495E+03  0.12500236214E+03 0.  0.
          2    1    1    2  501    0  0.58733839937E+02 -0.44873480593E+02 -0.61153781743E+03  0.61598847016E+03  0.00000000000E+00 0. -1.
          1    1    1    2  502    0 -0.18733753277E+01  0.31799461041E+02  0.68671514173E+03  0.68745356289E+03  0.00000000000E+00 0. -1.
         22    1    3    3    0    0  0.27827662360E+02  0.37441906682E+02 -0.69577469163E+02  0.83769322448E+02  0.00000000000E+00 0.  1.
         22    1    3    3    0    0 -0.84688126970E+02 -0.24367887130E+02 -0.21975657849E+03  0.23676745250E+03  0.00000000000E+00 0.  1.
</event>
<event>
 7    1  0.6278987E-006  0.9139015E+02  0.7818608E-02  0.1364861E+00
          2   -1    0    0  502    0  0.00000000000E+00  0.00000000000E+00  0.26563651425E+03  0.26563651425E+03  0.00000000000E+00 0. -1.
          1   -1    0    0  501    0 -0.00000000000E+00 -0.00000000000E+00 -0.85549715852E+03  0.85549715852E+03  0.00000000000E+00 0. -1.
         25    2    1    2    0    0 -0.91544338949E+02 -0.87306418521E+02 -0.90037326843E+02  0.19933799220E+03  0.12500455273E+03 0.  0.
          2    1    1    2  501    0  0.99284083916E+01  0.50552303199E+02 -0.70032701559E+03  0.70221936560E+03  0.00000000000E+00 0. -1.
          1    1    1    2  502    0  0.81615930558E+02  0.36754115322E+02  0.20050369817E+03  0.21957631496E+03  0.00000000000E+00 0. -1.
         22    1    3    3    0    0 -0.11496630434E+03 -0.89505122197E+02 -0.52170152237E+02  0.15475833683E+03  0.00000000000E+00 0. -1.
         22    1    3    3    0    0  0.23421965393E+02  0.21987036769E+01 -0.37867174606E+02  0.44579655375E+02  0.00000000000E+00 0. -1.
</event>
<event>
 7    1  0.6278987E-006  0.9781283E+02  0.7818608E-02  0.1294691E+00
          2   -1    0    0  502    0  0.00000000000E+00  0.00000000000E+00  0.56204490151E+03  0.56204490151E+03  0.00000000000E+00 0. -1.
          1   -1    0    0  501    0 -0.00000000000E+00 -0.00000000000E+00 -0.10135108548E+03  0.10135108548E+03  0.00000000000E+00 0. -1.
         25    2    1    2    0    0 -0.47896743529E+02  0.40988841980E+02  0.27942186123E+03  0.31253155508E+03  0.12500085272E+03 0.  0.
          2    1    1    2  501    0 -0.41302877039E+02  0.79167185931E+02 -0.28010583483E+02  0.93583993113E+02  0.00000000000E+00 0. -1.
          1    1    1    2  502    0  0.89199620568E+02 -0.12015602791E+03  0.20928253829E+03  0.25728043879E+03  0.00000000000E+00 0. -1.
         22    1    3    3    0    0 -0.44724009497E+02  0.63797020263E+02  0.27881444364E+03  0.28949575265E+03  0.00000000000E+00 0.  1.
         22    1    3    3    0    0 -0.31727340325E+01 -0.22808178283E+02  0.60741759431E+00  0.23035802438E+02  0.00000000000E+00 0.  1.
</event>
<event>
 7    1  0.6278987E-006  0.1532810E+03  0.7818608E-02  0.1374033E+00
          2   -1    0    0  502    0  0.00000000000E+00  0.00000000000E+00  0.20823947349E+03  0.20823947349E+03  0.00000000000E+00 0. -1.
          1   -1    0    0  501    0 -0.00000000000E+00 -0.00000000000E+00 -0.13787163411E+04  0.13787163411E+04  0.00000000000E+00 0. -1.
         25    2    1    2    0    0  0.16211749326E+03 -0.65676862520E+01 -0.97218655931E+01  0.20504869734E+03  0.12500094994E+03 0.  0.
          2    1    1    2  501    0 -0.15166264309E+03 -0.19912070840E+02 -0.12648109471E+04  0.12740269933E+04  0.00000000000E+00 0. -1.
          1    1    1    2  502    0 -0.10454850166E+02  0.26479757092E+02  0.10405594508E+03  0.10788012390E+03  0.00000000000E+00 0. -1.
         22    1    3    3    0    0  0.60079562009E+02 -0.42355139383E+00  0.57129779316E+02  0.82906844420E+02  0.00000000000E+00 0. -1.
         22    1    3    3    0    0  0.10203793125E+03 -0.61441348582E+01 -0.66851644909E+02  0.12214185292E+03  0.00000000000E+00 0. -1.
</event>
<event>
 7    1  0.6278987E-006  0.3609859E+02  0.7818608E-02  0.1587091E+00
          2   -1    0    0  502    0  0.00000000000E+00  0.00000000000E+00  0.25187171399E+04  0.25187171399E+04  0.00000000000E+00 0. -1.
          1   -1    0    0  501    0 -0.00000000000E+00 -0.00000000000E+00 -0.18694139550E+04  0.18694139550E+04  0.00000000000E+00 0. -1.
         25    2    1    2    0    0  0.13969176060E+02  0.12637737802E+02  0.57633522041E+03  0.59003596433E+03  0.12500121047E+03 0.  0.
          2    1    1    2  501    0 -0.12890466881E+01 -0.36082465908E+02 -0.18622968283E+04  0.18626467950E+04  0.00000000000E+00 0. -1.
          1    1    1    2  502    0 -0.12680129372E+02  0.23444728106E+02  0.19352647928E+04  0.19354483355E+04  0.00000000000E+00 0. -1.
         22    1    3    3    0    0  0.27401202845E+02 -0.50603017566E+02  0.19707662182E+03  0.20530632277E+03  0.00000000000E+00 0. -1.
         22    1    3    3    0    0 -0.13432026785E+02  0.63240755368E+02  0.37925859860E+03  0.38472964156E+03  0.00000000000E+00 0. -1.
</event>
<event>
 7    1  0.6278987E-006  0.8040638E+02  0.7818608E-02  0.1364818E+00
          2   -1    0    0  502    0  0.00000000000E+00  0.00000000000E+00  0.80213895706E+03  0.80213895706E+03  0.00000000000E+00 0. -1.
          1   -1    0    0  501    0 -0.00000000000E+00 -0.00000000000E+00 -0.10798217948E+04  0.10798217948E+04  0.00000000000E+00 0. -1.
         25    2    1    2    0    0 -0.48139635022E+02 -0.45013658239E+02 -0.40063036379E+02  0.14688825541E+03  0.12500983484E+03 0.  0.
          2    1    1    2  501    0  0.46079561541E+02 -0.36165324504E+02 -0.98327011627E+03  0.98501338988E+03  0.00000000000E+00 0. -1.
          1    1    1    2  502    0  0.20600734812E+01  0.81178982743E+02  0.74565031494E+03  0.75005910654E+03  0.00000000000E+00 0. -1.
         22    1    3    3    0    0 -0.71972474840E+02 -0.21819163930E+02  0.20362998061E+02  0.77915112393E+02  0.00000000000E+00 0.  1.
         22    1    3    3    0    0  0.23832839818E+02 -0.23194494309E+02 -0.60426034440E+02  0.68973143021E+02  0.00000000000E+00 0.  1.
</event>
<event>
 7    1  0.6278987E-006  0.1058682E+03  0.7818608E-02  0.1339664E+00
          2   -1    0    0  502    0  0.00000000000E+00  0.00000000000E+00  0.11090680536E+04  0.11090680536E+04  0.00000000000E+00 0. -1.
          1   -1    0    0  501    0 -0.00000000000E+00 -0.00000000000E+00 -0.72042655985E+02  0.72042655985E+02  0.00000000000E+00 0. -1.
         25    2    1    2    0    0 -0.12848051244E+03  0.82778808630E+02  0.32271028760E+03  0.37832058314E+03  0.12499984268E+03 0.  0.
          2    1    1    2  501    0  0.78826675977E+02 -0.58896244897E+02  0.12931149752E+02  0.99245287759E+02  0.00000000000E+00 0. -1.
          1    1    1    2  502    0  0.49653836460E+02 -0.23882563733E+02  0.70138396025E+03  0.70354483867E+03  0.00000000000E+00 0. -1.
         22    1    3    3    0    0 -0.33446837842E+02 -0.19909640258E+02  0.17719125418E+02  0.42767419169E+02  0.00000000000E+00 0.  1.
         22    1    3    3    0    0 -0.95033674595E+02  0.10268844889E+03  0.30499116218E+03  0.33555316397E+03  0.00000000000E+00 0.  1.
</event>
<event>
 7    1  0.6278987E-006  0.4543278E+02  0.7818608E-02  0.1476267E+00
          2   -1    0    0  502    0  0.00000000000E+00  0.00000000000E+00  0.33433190681E+04  0.33433190681E+04  0.00000000000E+00 0. -1.
          1   -1    0    0  501    0 -0.00000000000E+00 -0.00000000000E+00 -0.58222163871E+03  0.58222163871E+03  0.00000000000E+00 0. -1.
         25    2    1    2    0    0  0.27388573112E+02 -0.25880249225E+02  0.97831330039E+03  0.98698615037E+03  0.12499930428E+03 0.  0.
          2    1    1    2  501    0  0.17153591220E+02  0.40481091748E+02 -0.57681588383E+03  0.57848900449E+03  0.00000000000E+00 0. -1.
          1    1    1    2  502    0 -0.44542164332E+02 -0.14600842523E+02  0.23596000129E+04  0.23600655520E+04  0.00000000000E+00 0. -1.
         22    1    3    3    0    0  0.65937437587E+02  0.14608416752E+02  0.69040592254E+03  0.69370129695E+03  0.00000000000E+00 0. -1.
         22    1    3    3    0    0 -0.38548864475E+02 -0.40488665977E+02  0.28790737785E+03  0.29328485342E+03  0.00000000000E+00 0. -1.
</event>
<event>
 7    1  0.6278987E-006  0.3279850E+02  0.7818608E-02  0.1608315E+00
          2   -1    0    0  502    0  0.00000000000E+00  0.00000000000E+00  0.13644776915E+03  0.13644776915E+03  0.00000000000E+00 0. -1.
          1   -1    0    0  501    0 -0.00000000000E+00 -0.00000000000E+00 -0.45202560752E+03  0.45202560752E+03  0.00000000000E+00 0. -1.
         25    2    1    2    0    0 -0.11921374169E+02 -0.54491447288E+02 -0.63173602418E+02  0.15075200315E+03  0.12499530160E+03 0.  0.
          2    1    1    2  501    0 -0.25459037469E+01  0.25683494190E+02 -0.34175757504E+03  0.34273074504E+03  0.00000000000E+00 0. -1.
          1    1    1    2  502    0  0.14467277916E+02  0.28807953098E+02  0.89353339086E+02  0.94990628474E+02  0.00000000000E+00 0. -1.
         22    1    3    3    0    0 -0.44781798665E+02  0.60016061527E+01 -0.68109507406E+02  0.81733308798E+02  0.00000000000E+00 0.  1.
         22    1    3    3    0    0  0.32860424496E+02 -0.60493053441E+02  0.49359049875E+01  0.69018694357E+02  0.00000000000E+00 0.  1.
</event>
<event>
 7    1  0.6278987E-006  0.6849678E+02  0.7818608E-02  0.1369347E+00
          2   -1    0    0  502    0  0.00000000000E+00  0.00000000000E+00  0.74856749391E+02  0.74856749391E+02  0.00000000000E+00 0. -1.
          1   -1    0    0  501    0 -0.00000000000E+00 -0.00000000000E+00 -0.85359631112E+03  0.85359631112E+03  0.00000000000E+00 0. -1.
         25    2    1    2    0    0 -0.51519389382E+02 -0.80271025182E+01 -0.43707050038E+03  0.45757367571E+03  0.12499745814E+03 0.  0.
          2    1    1    2  501    0  0.10530412091E+02  0.65377926753E+02 -0.38332228690E+03  0.38900017805E+03  0.00000000000E+00 0. -1.
          1    1    1    2  502    0  0.40988977291E+02 -0.57350824235E+02  0.41653225553E+02  0.81879206754E+02  0.00000000000E+00 0. -1.
         22    1    3    3    0    0 -0.50664140930E+02  0.38581289359E+02 -0.10924941253E+03  0.12645475556E+03  0.00000000000E+00 0. -1.
         22    1    3    3    0    0 -0.85524845196E+00 -0.46608391878E+02 -0.32782108785E+03  0.33111892015E+03  0.00000000000E+00 0. -1.
</event>
<event>
 7    1  0.6278987E-006  0.6260142E+02  0.7818608E-02  0.1408844E+00
          2   -1    0    0  502    0  0.00000000000E+00  0.00000000000E+00  0.17267201822E+04  0.17267201822E+04  0.00000000000E+00 0. -1.
          1   -1    0    0  501    0 -0.00000000000E+00 -0.00000000000E+00 -0.44254452839E+03  0.44254452839E+03  0.00000000000E+00 0. -1.
         25    2    1    2    0    0  0.66811259606E+02  0.60499966895E+02  0.40160978357E+03  0.43016175946E+03  0.12499892257E+03 0.  0.
          2    1    1    2  501    0 -0.62025589837E+02 -0.79905377605E+01 -0.42545151203E+03  0.43002326865E+03  0.00000000000E+00 0. -1.
          1    1    1    2  502    0 -0.47856697695E+01 -0.52509429135E+02  0.13080173823E+04  0.13090796825E+04  0.00000000000E+00 0. -1.
         22    1    3    3    0    0  0.22782147943E+02  0.30851477688E+02  0.17075467717E+02  0.41981085481E+02  0.00000000000E+00 0.  1.
         22    1    3    3    0    0  0.44029111664E+02  0.29648489207E+02  0.38453431585E+03  0.38818067398E+03  0.00000000000E+00 0.  1.
</event>
<event>
 7    1  0.6278987E-006  0.4886374E+02  0.7818608E-02  0.1509785E+00
          2   -1    0    0  502    0  0.00000000000E+00  0.00000000000E+00  0.19737379733E+03  0.19737379733E+03  0.00000000000E+00 0. -1.
          1   -1    0    0  501    0 -0.00000000000E+00 -0.00000000000E+00 -0.11351075935E+03  0.11351075935E+03  0.00000000000E+00 0. -1.
         25    2    1    2    0    0 -0.22343088800E+01  0.28177462818E+02  0.61911420845E+02  0.14232540884E+03  0.12499814568E+03 0.  0.
          2    1    1    2  501    0  0.32598600229E+02 -0.39470345635E+02 -0.60924482802E+02  0.79576186929E+02  0.00000000000E+00 0. -1.
          1    1    1    2  502    0 -0.30364291349E+02  0.11292882817E+02  0.82876099938E+02  0.88982960911E+02  0.00000000000E+00 0. -1.
         22    1    3    3    0    0  0.15060764663E+01 -0.26760283259E+02 -0.26806834688E+02  0.37907616813E+02  0.00000000000E+00 0.  1.
         22    1    3    3    0    0 -0.37403853464E+01  0.54937746077E+02  0.88718255533E+02  0.10441779203E+03  0.00000000000E+00 0.  1.
</event>
<event>
 7    1  0.6278987E-006  0.5069123E+02  0.7818608E-02  0.1537504E+00
          2   -1    0    0  502    0  0.00000000000E+00  0.00000000000E+00  0.77873933871E+02  0.77873933871E+02  0.00000000000E+00 0. -1.
          1   -1    0    0  501    0 -0.00000000000E+00 -0.00000000000E+00 -0.23410252564E+03  0.23410252564E+03  0.00000000000E+00 0. -1.
         25    2    1    2    0    0 -0.10052753808E+01  0.13169398017E+01 -0.78663312824E+02  0.14769977344E+03  0.12499824551E+03 0.  0.
          2    1    1    2  501    0  0.45056031005E+02 -0.26399429898E+02  0.18710495359E+02  0.55471239985E+02  0.00000000000E+00 0. -1.
          1    1    1    2  502    0 -0.44050755624E+02  0.25082490096E+02 -0.96275774309E+02  0.10880544609E+03  0.00000000000E+00 0. -1.
         22    1    3    3    0    0  0.24113488841E+02 -0.11542681426E+02  0.27200929467E+02  0.38139014177E+02  0.00000000000E+00 0.  1.
         22    1    3    3    0    0 -0.25118764222E+02  0.12859621227E+02 -0.10586424229E+03  0.10956075926E+03  0.00000000000E+00 0.  1.
</event>
<event>
 7    1  0.6278987E-006  0.1372830E+03  0.7818608E-02  0.1385791E+00
          2   -1    0    0  502    0  0.00000000000E+00  0.00000000000E+00  0.21276438353E+04  0.21276438353E+04  0.00000000000E+00 0. -1.
          1   -1    0    0  501    0 -0.00000000000E+00 -0.00000000000E+00 -0.16295401594E+03  0.16295401594E+03  0.00000000000E+00 0. -1.
         25    2    1    2    0    0  0.19778302603E+01 -0.12220507116E+03  0.48306716540E+03  0.51372843513E+03  0.12500011017E+03 0.  0.
          2    1    1    2  501    0  0.23148890414E+02  0.13644168533E+03 -0.11502985262E+03  0.17995574905E+03  0.00000000000E+00 0. -1.
          1    1    1    2  502    0 -0.25126720674E+02 -0.14236614170E+02  0.15966525065E+04  0.15969136670E+04  0.00000000000E+00 0. -1.
         22    1    3    3    0    0 -0.31029620708E+02  0.43219320140E+01  0.19331397888E+03  0.19583618381E+03  0.00000000000E+00 0.  1.
         22    1    3    3    0    0  0.33007450968E+02 -0.12652700318E+03  0.28975318652E+03  0.31789225132E+03  0.00000000000E+00 0.  1.
</event>
<event>
 7    1  0.6278987E-006  0.6106562E+02  0.7818608E-02  0.1517347E+00
          2   -1    0    0  502    0  0.00000000000E+00  0.00000000000E+00  0.11268135162E+04  0.11268135162E+04  0.00000000000E+00 0. -1.
          1   -1    0    0  501    0 -0.00000000000E+00 -0.00000000000E+00 -0.16758509970E+03  0.16758509970E+03  0.00000000000E+00 0. -1.
         25    2    1    2    0    0 -0.49961654476E+02  0.55451098198E+02 -0.38456129140E+02  0.15060754078E+03  0.12503106118E+03 0.  0.
          2    1    1    2  501    0  0.24633967750E+02  0.11536366879E-01 -0.70081859921E+02  0.74285258229E+02  0.00000000000E+00 0. -1.
          1    1    1    2  502    0  0.25327686727E+02 -0.55462634565E+02  0.10677664056E+04  0.10695058169E+04  0.00000000000E+00 0. -1.
         22    1    3    3    0    0 -0.85898740878E+01 -0.40225417105E+02 -0.14839928662E+02  0.43727492505E+02  0.00000000000E+00 0. -1.
         22    1    3    3    0    0 -0.41371780388E+02  0.95676515303E+02 -0.23616200479E+02  0.10688004827E+03  0.00000000000E+00 0. -1.
</event>
<event>
 7    1  0.6278987E-006  0.8320133E+02  0.7818608E-02  0.1485517E+00
          2   -1    0    0  502    0  0.00000000000E+00  0.00000000000E+00  0.16147737340E+04  0.16147737340E+04  0.00000000000E+00 0. -1.
          1   -1    0    0  501    0 -0.00000000000E+00 -0.00000000000E+00 -0.41154681180E+03  0.41154681180E+03  0.00000000000E+00 0. -1.
         25    2    1    2    0    0  0.89819047703E+02 -0.11530630437E+01  0.78563383190E+02  0.17281889463E+03  0.12500149711E+03 0.  0.
          2    1    1    2  501    0 -0.80747892102E+02 -0.19427532284E+02 -0.35960080279E+03  0.36906691596E+03  0.00000000000E+00 0. -1.
          1    1    1    2  502    0 -0.90711556014E+01  0.20580595328E+02  0.14842643418E+04  0.14844347352E+04  0.00000000000E+00 0. -1.
         22    1    3    3    0    0  0.48981927519E+02 -0.42029968980E+02  0.93056265288E+02  0.11324847030E+03  0.00000000000E+00 0.  1.
         22    1    3    3    0    0  0.40837120185E+02  0.40876905936E+02 -0.14492882098E+02  0.59570424334E+02  0.00000000000E+00 0.  1.
</event>
<event>
 7    1  0.6278987E-006  0.1013096E+03  0.7818608E-02  0.1280931E+00
          2   -1    0    0  502    0  0.00000000000E+00  0.00000000000E+00  0.12151809703E+04  0.12151809703E+04  0.00000000000E+00 0. -1.
          1   -1    0    0  501    0 -0.00000000000E+00 -0.00000000000E+00 -0.20339378630E+03  0.20339378630E+03  0.00000000000E+00 0. -1.
         25    2    1    2    0    0  0.60327556636E+01 -0.39657650158E+02  0.22199668923E+03  0.25791326298E+03  0.12501039091E+03 0.  0.
          2    1    1    2  501    0 -0.10333970364E+03  0.27105663477E+02 -0.16732890316E+03  0.19852650497E+03  0.00000000000E+00 0. -1.
          1    1    1    2  502    0  0.97306947973E+02  0.12551986682E+02  0.95711939797E+03  0.96213498869E+03  0.00000000000E+00 0. -1.
         22    1    3    3    0    0  0.11308818015E+02 -0.71678334757E+02  0.21181648866E+03  0.22390153619E+03  0.00000000000E+00 0. -1.
         22    1    3    3    0    0 -0.52760623518E+01  0.32020684599E+02  0.10180200572E+02  0.34011726798E+02  0.00000000000E+00 0. -1.
</event>
<event>
 7    1  0.6278987E-006  0.1244815E+03  0.7818608E-02  0.1289748E+00
          2   -1    0    0  502    0  0.00000000000E+00  0.00000000000E+00  0.13798807468E+03  0.13798807468E+03  0.00000000000E+00 0. -1.
          1   -1    0    0  501    0 -0.00000000000E+00 -0.00000000000E+00 -0.75109304515E+03  0.75109304515E+03  0.00000000000E+00 0. -1.
         25    2    1    2    0    0  0.25211347562E+02 -0.94501242752E+02 -0.30141117053E+03  0.34064767573E+03  0.12500419326E+03 0.  0.
          2    1    1    2  501    0  0.29260445886E+02  0.14381184331E+03 -0.40436204992E+03  0.43017053291E+03  0.00000000000E+00 0. -1.
          1    1    1    2  502    0 -0.54471793448E+02 -0.49310600558E+02  0.92668249980E+02  0.11826291119E+03  0.00000000000E+00 0. -1.
         22    1    3    3    0    0  0.58191566338E+02 -0.10716696839E+03 -0.25141538344E+03  0.27942926213E+03  0.00000000000E+00 0.  1.
         22    1    3    3    0    0 -0.32980218775E+02  0.12665725640E+02 -0.49995787094E+02  0.61218413599E+02  0.00000000000E+00 0.  1.
</event>
<event>
 7    1  0.6278987E-006  0.1273887E+03  0.7818608E-02  0.1274379E+00
          2   -1    0    0  502    0  0.00000000000E+00  0.00000000000E+00  0.32521158019E+04  0.32521158019E+04  0.00000000000E+00 0. -1.
          1   -1    0    0  501    0 -0.00000000000E+00 -0.00000000000E+00 -0.12740394339E+04  0.12740394339E+04  0.00000000000E+00 0. -1.
         25    2    1    2    0    0 -0.76206479123E+02  0.14056558881E+02  0.61222644003E+02  0.15931046237E+03  0.12500638773E+03 0.  0.
          2    1    1    2  501    0 -0.95929482218E+01  0.82510516303E+02 -0.12222574494E+04  0.12250768476E+04  0.00000000000E+00 0. -1.
          1    1    1    2  502    0  0.85799427345E+02 -0.96567075184E+02  0.31391111733E+04  0.31417679259E+04  0.00000000000E+00 0. -1.
         22    1    3    3    0    0 -0.10724156512E+03 -0.42664797884E+01  0.29523331886E+02  0.11131299684E+03  0.00000000000E+00 0.  1.
         22    1    3    3    0    0  0.31035085996E+02  0.18323038670E+02  0.31699312117E+02  0.47997465533E+02  0.00000000000E+00 0.  1.
</event>
<event>
 7    1  0.6278987E-006  0.1441333E+03  0.7818608E-02  0.1360315E+00
          2   -1    0    0  502    0  0.00000000000E+00  0.00000000000E+00  0.65422826501E+03  0.65422826501E+03  0.00000000000E+00 0. -1.
          1   -1    0    0  501    0 -0.00000000000E+00 -0.00000000000E+00 -0.21646515137E+04  0.21646515137E+04  0.00000000000E+00 0. -1.
         25    2    1    2    0    0 -0.44211717481E+02 -0.10126646353E+03  0.29330396648E+03  0.33743472459E+03  0.12500161603E+03 0.  0.
          2    1    1    2  501    0  0.56107791709E+02  0.13304596708E+03 -0.21392967818E+04  0.21441641808E+04  0.00000000000E+00 0. -1.
          1    1    1    2  502    0 -0.11896074228E+02 -0.31779503547E+02  0.33556956666E+03  0.33728087330E+03  0.00000000000E+00 0. -1.
         22    1    3    3    0    0 -0.56472342760E+02 -0.51825413966E+02  0.27134787497E+03  0.28196572182E+03  0.00000000000E+00 0. -1.
         22    1    3    3    0    0  0.12260625279E+02 -0.49441049566E+02  0.21956091508E+02  0.55469002774E+02  0.00000000000E+00 0. -1.
</event>
<event>
 7    1  0.6278987E-006  0.5268579E+02  0.7818608E-02  0.1458162E+00
          2   -1    0    0  502    0  0.00000000000E+00  0.00000000000E+00  0.17361504423E+04  0.17361504423E+04  0.00000000000E+00 0. -1.
          1   -1    0    0  501    0 -0.00000000000E+00 -0.00000000000E+00 -0.39580568082E+03  0.39580568082E+03  0.00000000000E+00 0. -1.
         25    2    1    2    0    0  0.53975639598E+02 -0.73295837236E+02  0.31717244617E+03  0.35287972678E+03  0.12506035158E+03 0.  0.
          2    1    1    2  501    0 -0.35133769347E+02  0.25109991187E+02 -0.37623887243E+03  0.37870910015E+03  0.00000000000E+00 0. -1.
          1    1    1    2  502    0 -0.18841870251E+02  0.48185846049E+02  0.13994111878E+04  0.14003672962E+04  0.00000000000E+00 0. -1.
         22    1    3    3    0    0  0.67782425531E+02 -0.22640743535E+02  0.69438019495E+02  0.99642857396E+02  0.00000000000E+00 0. -1.
         22    1    3    3    0    0 -0.13806785933E+02 -0.50655093701E+02  0.24773442667E+03  0.25323686938E+03  0.00000000000E+00 0. -1.
</event>
<event>
 7    1  0.6278987E-006  0.1202153E+03  0.7818608E-02  0.1356078E+00
          2   -1    0    0  502    0  0.00000000000E+00  0.00000000000E+00  0.20664682938E+04  0.20664682938E+04  0.00000000000E+00 0. -1.
          1   -1    0    0  501    0 -0.00000000000E+00 -0.00000000000E+00 -0.23072265262E+02  0.23072265262E+02  0.00000000000E+00 0. -1.
         25    2    1    2    0    0 -0.80169515920E+02  0.93767059371E+02  0.13371945070E+04  0.13486783910E+04  0.12499936052E+03 0.  0.
          2    1    1    2  501    0  0.10496232455E+03 -0.59663580044E+02  0.20515655008E+03  0.23804630306E+03  0.00000000000E+00 0. -1.
          1    1    1    2  502    0 -0.24792808630E+02 -0.34103479328E+02  0.50104497152E+03  0.50281586505E+03  0.00000000000E+00 0. -1.
         22    1    3    3    0    0 -0.45793635677E+02  0.10111764070E+03  0.57167837036E+03  0.58235555588E+03  0.00000000000E+00 0. -1.
         22    1    3    3    0    0 -0.34375880243E+02 -0.73505813297E+01  0.76551613663E+03  0.76632283512E+03  0.00000000000E+00 0. -1.
</event>
<event>
 7    1  0.6278987E-006  0.3987846E+02  0.7818608E-02  0.1538104E+00
          2   -1    0    0  502    0  0.00000000000E+00  0.00000000000E+00  0.89521382795E+03  0.89521382795E+03  0.00000000000E+00 0. -1.
          1   -1    0    0  501    0 -0.00000000000E+00 -0.00000000000E+00 -0.32766899252E+02  0.32766899252E+02  0.00000000000E+00 0. -1.
         25    2    1    2    0    0 -0.24878225542E+02  0.60935750119E+02  0.52962601575E+03  0.54814755793E+03  0.12501974627E+03 0.  0.
          2    1    1    2  501    0  0.27295018519E+02 -0.28144164592E+02 -0.57885387392E+01  0.39631038559E+02  0.00000000000E+00 0. -1.
          1    1    1    2  502    0 -0.24167929763E+01 -0.32791585527E+02  0.33860945168E+03  0.34020213071E+03  0.00000000000E+00 0. -1.
         22    1    3    3    0    0  0.39737743951E+02  0.26707013058E+02  0.36351636135E+03  0.36665583019E+03  0.00000000000E+00 0. -1.
         22    1    3    3    0    0 -0.64615969493E+02  0.34228737061E+02  0.16610965440E+03  0.18149172775E+03  0.00000000000E+00 0. -1.
</event>
<event>
 7    1  0.6278987E-006  0.9967599E+02  0.7818608E-02  0.1398149E+00
          2   -1    0    0  502    0  0.00000000000E+00  0.00000000000E+00  0.14966328955E+03  0.14966328955E+03  0.00000000000E+00 0. -1.
          1   -1    0    0  501    0 -0.00000000000E+00 -0.00000000000E+00 -0.12129304756E+04  0.12129304756E+04  0.00000000000E+00 0. -1.
         25    2    1    2    0    0  0.53050069522E+02 -0.38793708873E+02  0.18486058603E+02  0.14243457276E+03  0.12500644556E+03 0.  0.
          2    1    1    2  501    0 -0.87252055095E+02  0.50111811395E+02 -0.11439046524E+04  0.11483213699E+04  0.00000000000E+00 0. -1.
          1    1    1    2  502    0  0.34201985573E+02 -0.11318102522E+02  0.62151407726E+02  0.71837822518E+02  0.00000000000E+00 0. -1.
         22    1    3    3    0    0  0.92077831027E+02 -0.12070440610E+02  0.39432480823E+01  0.92949296440E+02  0.00000000000E+00 0. -1.
         22    1    3    3    0    0 -0.39027761505E+02 -0.26723268262E+02  0.14542810521E+02  0.49485276321E+02  0.00000000000E+00 0. -1.
</event>
<event>
 7    1  0.6278987E-006  0.1321932E+03  0.7818608E-02  0.1364801E+00
          2   -1    0    0  502    0  0.00000000000E+00  0.00000000000E+00  0.33885322553E+03  0.33885322553E+03  0.00000000000E+00 0. -1.
          1   -1    0    0  501    0 -0.00000000000E+00 -0.00000000000E+00 -0.97370241286E+03  0.97370241286E+03  0.00000000000E+00 0. -1.
         25    2    1    2    0    0  0.54061243687E+02 -0.86794692741E+02 -0.21889662938E+03  0.27202268579E+03  0.12499868189E+03 0.  0.
          2    1    1    2  501    0  0.31792846364E+02 -0.16094177450E+02 -0.71340226301E+03  0.71429167466E+03  0.00000000000E+00 0. -1.
          1    1    1    2  502    0 -0.85854090051E+02  0.10288887019E+03  0.29744970506E+03  0.32624127793E+03  0.00000000000E+00 0. -1.
         22    1    3    3    0    0  0.12872820736E+02  0.32664903743E+02 -0.49553184379E+02  0.60730746186E+02  0.00000000000E+00 0. -1.
         22    1    3    3    0    0  0.41188422951E+02 -0.11945959648E+03 -0.16934344500E+03  0.21129193960E+03  0.00000000000E+00 0. -1.
</event>
<event>
 7    1  0.6278987E-006  0.1135536E+03  0.7818608E-02  0.1380331E+00
          2   -1    0    0  502    0  0.00000000000E+00  0.00000000000E+00  0.17304301612E+03  0.17304301612E+03  0.00000000000E+00 0. -1.
          1   -1    0    0  501    0 -0.00000000000E+00 -0.00000000000E+00 -0.10541081067E+04  0.10541081067E+04  0.00000000000E+00 0. -1.
         25    2    1    2    0    0 -0.67256286851E+02  0.42418264297E+02  0.12731005009E+03  0.19533343753E+03  0.12499834279E+03 0.  0.
          2    1    1    2  501    0  0.88869383481E+02 -0.71827631630E+02 -0.97708434648E+03  0.98374325722E+03  0.00000000000E+00 0. -1.
          1    1    1    2  502    0 -0.21613096630E+02  0.29409367333E+02 -0.31290794165E+02  0.48074428050E+02  0.00000000000E+00 0. -1.
         22    1    3    3    0    0 -0.49652260053E+02  0.88391036715E+01  0.14498202158E+03  0.15350330050E+03  0.00000000000E+00 0. -1.
         22    1    3    3    0    0 -0.17604026798E+02  0.33579160625E+02 -0.17671971497E+02  0.41830137035E+02  0.00000000000E+00 0. -1.
</event>
<event>
 7    1  0.6278987E-006  0.9843121E+02  0.7818608E-02  0.1375690E+00
          2   -1    0    0  502    0  0.00000000000E+00  0.00000000000E+00  0.27392106079E+04  0.27392106079E+04  0.00000000000E+00 0. -1.
          1   -1    0    0  501    0 -0.00000000000E+00 -0.00000000000E+00 -0.13013086089E+04  0.13013086089E+04  0.00000000000E+00 0. -1.
         25    2    1    2    0    0  0.67929499428E+02  0.79518055785E+02  0.91370509593E+03  0.92812645749E+03  0.12499672268E+03 0.  0.
          2    1    1    2  501    0 -0.89321231354E+02 -0.41373447524E+02 -0.12919623387E+04  0.12957070383E+04  0.00000000000E+00 0. -1.
          1    1    1    2  502    0  0.21391731926E+02 -0.38144608260E+02  0.18161592418E+04  0.18166857210E+04  0.00000000000E+00 0. -1.
         22    1    3    3    0    0  0.96879215347E+02  0.87174564941E+02  0.79991093347E+03  0.81045819671E+03  0.00000000000E+00 0. -1.
         22    1    3    3    0    0 -0.28949715919E+02 -0.76565091565E+01  0.11379416246E+03  0.11766826077E+03  0.00000000000E+00 0. -1.
</event>
<event>
 7    1  0.6278987E-006  0.4992438E+02  0.7818608E-02  0.1472523E+00
          2   -1    0    0  502    0  0.00000000000E+00  0.00000000000E+00  0.23535250231E+03  0.23535250231E+03  0.00000000000E+00 0. -1.
          1   -1    0    0  501    0 -0.00000000000E+00 -0.00000000000E+00 -0.19103128934E+04  0.19103128934E+04  0.00000000000E+00 0. -1.
         25    2    1    2    0    0 -0.50495294534E+02  0.10778439903E+02 -0.13191204501E+03  0.18892303777E+03  0.12500070817E+03 0.  0.
          2    1    1    2  501    0  0.25313972118E+02 -0.43248946893E+02 -0.17474919301E+04  0.17482103175E+04  0.00000000000E+00 0. -1.
          1    1    1    2  502    0  0.25181322416E+02  0.32470506990E+02  0.20444358403E+03  0.20853204040E+03  0.00000000000E+00 0. -1.
         22    1    3    3    0    0  0.39326649532E+01  0.13540384151E+02 -0.13365549116E+03  0.13439716580E+03  0.00000000000E+00 0. -1.
         22    1    3    3    0    0 -0.54427959487E+02 -0.27619442487E+01  0.17434461474E+01  0.54525871973E+02  0.00000000000E+00 0. -1.
</event>
<event>
 7    1  0.6278987E-006  0.8891933E+02  0.7818608E-02  0.1341410E+00
          2   -1    0    0  502    0  0.00000000000E+00  0.00000000000E+00  0.13028124554E+03  0.13028124554E+03  0.00000000000E+00 0. -1.
          1   -1    0    0  501    0 -0.00000000000E+00 -0.00000000000E+00 -0.83815404766E+03  0.83815404766E+03  0.00000000000E+00 0. -1.
         25    2    1    2    0    0  0.19174189264E+02  0.12712031902E+03 -0.20000769643E+03  0.26861631875E+03  0.12499769210E+03 0.  0.
          2    1    1    2  501    0  0.27120959714E+02 -0.82040877217E+02 -0.58944715073E+03  0.59574675450E+03  0.00000000000E+00 0. -1.
          1    1    1    2  502    0 -0.46295148978E+02 -0.45079441801E+02  0.81582045042E+02  0.10407221995E+03  0.00000000000E+00 0. -1.
         22    1    3    3    0    0 -0.65803293672E+01  0.13753830032E+03 -0.19744455986E+03  0.24071651171E+03  0.00000000000E+00 0. -1.
         22    1    3    3    0    0  0.25754518631E+02 -0.10417981297E+02 -0.25631365647E+01  0.27899807048E+02  0.00000000000E+00 0. -1.
</event>
<event>
 7    1  0.6278987E-006  0.5464693E+02  0.7818608E-02  0.1554032E+00
          2   -1    0    0  502    0  0.00000000000E+00  0.00000000000E+00  0.24981357067E+04  0.24981357067E+04  0.00000000000E+00 0. -1.
          1   -1    0    0  501    0 -0.00000000000E+00 -0.00000000000E+00 -0.10626629451E+03  0.10626629451E+03  0.00000000000E+00 0. -1.
         25    2    1    2    0    0 -0.37191174464E+01 -0.43999403272E+02  0.40483419050E+03  0.42598811709E+03  0.12500149913E+03 0.  0.
          2    1    1    2  501    0  0.19819254263E+02 -0.87116345508E+01 -0.94095278778E+02  0.96553699590E+02  0.00000000000E+00 0. -1.
          1    1    1    2  502    0 -0.16100136817E+02  0.52711037822E+02  0.20811305004E+04  0.20818601845E+04  0.00000000000E+00 0. -1.
         22    1    3    3    0    0  0.19062087463E+02 -0.22958996792E+02  0.39081993335E+03  0.39195752196E+03  0.00000000000E+00 0.  1.
         22    1    3    3    0    0 -0.22781204909E+02 -0.21040406480E+02  0.14014257144E+02  0.34030595135E+02  0.00000000000E+00 0.  1.
</event>
<event>
 7    1  0.6278987E-006  0.5630356E+02  0.7818608E-02  0.1419949E+00
          2   -1    0    0  502    0  0.00000000000E+00  0.00000000000E+00  0.30467153610E+04  0.30467153610E+04  0.00000000000E+00 0. -1.
          1   -1    0    0  501    0 -0.00000000000E+00 -0.00000000000E+00 -0.14824593549E+03  0.14824593549E+03  0.00000000000E+00 0. -1.
         25    2    1    2    0    0 -0.63884177514E+02 -0.13980706970E+02  0.75395229970E+02  0.15995634710E+03  0.12499977589E+03 0.  0.
          2    1    1    2  501    0  0.44377879948E+02 -0.36146230155E+02 -0.97970866672E+02  0.11346469451E+03  0.00000000000E+00 0. -1.
          1    1    1    2  502    0  0.19506297566E+02  0.50126937125E+02  0.29210450622E+04  0.29215402549E+04  0.00000000000E+00 0. -1.
         22    1    3    3    0    0  0.28331424556E+02  0.16438672857E+02  0.49678961164E+02  0.59505451557E+02  0.00000000000E+00 0.  1.
         22    1    3    3    0    0 -0.92215602070E+02 -0.30419379827E+02  0.25716268805E+02  0.10045089554E+03  0.00000000000E+00 0.  1.
</event>
<event>
 7    1  0.6278987E-006  0.5554152E+02  0.7818608E-02  0.1497948E+00
          2   -1    0    0  502    0  0.00000000000E+00  0.00000000000E+00  0.80007521943E+03  0.80007521943E+03  0.00000000000E+00 0. -1.
          1   -1    0    0  501    0 -0.00000000000E+00 -0.00000000000E+00 -0.14425245124E+03  0.14425245124E+03  0.00000000000E+00 0. -1.
         25    2    1    2    0    0 -0.62616404830E+02 -0.38067066673E+01  0.60483888716E+02  0.15236874718E+03  0.12499051625E+03 0.  0.
          2    1    1    2  501    0  0.16007786796E+02 -0.26433782668E+02 -0.94737103351E+02  0.99649951608E+02  0.00000000000E+00 0. -1.
          1    1    1    2  502    0  0.46608618034E+02  0.30240489335E+02  0.69007598283E+03  0.69230897188E+03  0.00000000000E+00 0. -1.
         22    1    3    3    0    0  0.16783545259E+02 -0.41195784873E+02  0.44953741089E+02  0.63242540435E+02  0.00000000000E+00 0. -1.
         22    1    3    3    0    0 -0.79399950089E+02  0.37389078206E+02  0.15530147627E+02  0.89126206744E+02  0.00000000000E+00 0. -1.
</event>
<event>
 7    1  0.6278987E-006  0.2132534E+03  0.7818608E-02  0.1334181E+00
          2   -1    0    0  502    0  0.00000000000E+00  0.00000000000E+00  0.10485863396E+04  0.10485863396E+04  0.00000000000E+00 0. -1.
          1   -1    0    0  501    0 -0.00000000000E+00 -0.00000000000E+00 -0.13236215748E+04  0.13236215748E+04  0.00000000000E+00 0. -1.
         25    2    1    2    0    0  0.88243118298E+01 -0.23923400477E+03 -0.22058752808E+03  0.34870347359E+03  0.12499790970E+03 0.  0.
          2    1    1    2  501    0  0.76156474751E+01  0.27661282227E+02 -0.10273382322E+04  0.10277387741E+04  0.00000000000E+00 0. -1.
          1    1    1    2  502    0 -0.16439959305E+02  0.21157272255E+03  0.97289052506E+03  0.99576566668E+03  0.00000000000E+00 0. -1.
         22    1    3    3    0    0 -0.44624391351E+02 -0.19440034115E+03 -0.15099640482E+03  0.25016543168E+03  0.00000000000E+00 0.  1.
         22    1    3    3    0    0  0.53448703181E+02 -0.44833663625E+02 -0.69591123266E+02  0.98538041909E+02  0.00000000000E+00 0.  1.
</event>
<event>
 7    1  0.6278987E-006  0.1145893E+03  0.7818608E-02  0.1436626E+00
          2   -1    0    0  502    0  0.00000000000E+00  0.00000000000E+00  0.18944903225E+03  0.18944903225E+03  0.00000000000E+00 0. -1.
          1   -1    0    0  501    0 -0.00000000000E+00 -0.00000000000E+00 -0.92608519877E+03  0.92608519877E+03  0.00000000000E+00 0. -1.
         25    2    1    2    0    0 -0.73150263119E+02  0.74356213659E+02 -0.12692194711E+03  0.20643759073E+03  0.12500996243E+03 0.  0.
          2    1    1    2  501    0  0.95024180819E+02 -0.66378982887E+02 -0.75404389652E+03  0.76290101729E+03  0.00000000000E+00 0. -1.
          1    1    1    2  502    0 -0.21873917700E+02 -0.79772307723E+01  0.14432967711E+03  0.14619562299E+03  0.00000000000E+00 0. -1.
         22    1    3    3    0    0 -0.23514345444E+02 -0.70714219104E+01  0.19734775934E+02  0.31502235329E+02  0.00000000000E+00 0. -1.
         22    1    3    3    0    0 -0.49635917674E+02  0.81427635569E+02 -0.14665672304E+03  0.17493535541E+03  0.00000000000E+00 0. -1.
</event>
<event>
 7    1  0.6278987E-006  0.1539758E+03  0.7818608E-02  0.1378406E+00
          2   -1    0    0  502    0  0.00000000000E+00  0.00000000000E+00  0.40664622369E+03  0.40664622369E+03  0.00000000000E+00 0. -1.
          1   -1    0    0  501    0 -0.00000000000E+00 -0.00000000000E+00 -0.11415104055E+04  0.11415104055E+04  0.00000000000E+00 0. -1.
         25    2    1    2    0    0  0.11226530216E+03  0.10554463868E+03 -0.17516155473E+03  0.26467364306E+03  0.12500959265E+03 0.  0.
          2    1    1    2  501    0 -0.12929201698E+03 -0.84151214132E+02 -0.91460765811E+03  0.92752629115E+03  0.00000000000E+00 0. -1.
          1    1    1    2  502    0  0.17026714820E+02 -0.21393424547E+02  0.35490503104E+03  0.35595669496E+03  0.00000000000E+00 0. -1.
         22    1    3    3    0    0 -0.78073619628E+01  0.48170594684E+02 -0.55887580735E+01  0.49118176980E+02  0.00000000000E+00 0.  1.
         22    1    3    3    0    0  0.12007266412E+03  0.57374043995E+02 -0.16957279665E+03  0.21555546608E+03  0.00000000000E+00 0.  1.
</event>
<event>
 7    1  0.6278987E-006  0.1183035E+03  0.7818608E-02  0.1357712E+00
          2   -1    0    0  502    0  0.00000000000E+00  0.00000000000E+00  0.16607859720E+04  0.16607859720E+04  0.00000000000E+00 0. -1.
          1   -1    0    0  501    0 -0.00000000000E+00 -0.00000000000E+00 -0.10081306778E+04  0.10081306778E+04  0.00000000000E+00 0. -1.
         25    2    1    2    0    0  0.53517573532E+01  0.12552054846E+03 -0.41960483433E+03  0.45548425618E+03  0.12495455673E+03 0.  0.
          2    1    1    2  501    0  0.34812117846E+02 -0.11238460008E+03 -0.56424559165E+03  0.57638118427E+03  0.00000000000E+00 0. -1.
          1    1    1    2  502    0 -0.40163875200E+02 -0.13135948379E+02  0.16365057201E+04  0.16370512093E+04  0.00000000000E+00 0. -1.
         22    1    3    3    0    0 -0.41157341447E+02  0.22286988773E+02 -0.48123651345E+02  0.67130637136E+02  0.00000000000E+00 0. -1.
         22    1    3    3    0    0  0.46509098800E+02  0.10323355968E+03 -0.37148118298E+03  0.38835361905E+03  0.00000000000E+00 0. -1.
</event>
<event>
 7    1  0.6278987E-006  0.3823924E+02  0.7818608E-02  0.1599724E+00
          2   -1    0    0  502    0  0.00000000000E+00  0.00000000000E+00  0.14633450587E+04  0.14633450587E+04  0.00000000000E+00 0. -1.
          1   -1    0    0  501    0 -0.00000000000E+00 -0.00000000000E+00 -0.10732596531E+03  0.10732596531E+03  0.00000000000E+00 0. -1.
         25    2    1    2    0    0  0.10772561220E+02  0.13564190727E+02  0.42365030646E+03  0.44204537984E+03  0.12499800130E+03 0.  0.
          2    1    1    2  501    0 -0.33455211826E+02 -0.18915411351E+02 -0.94228062711E+02  0.10176429525E+03  0.00000000000E+00 0. -1.
          1    1    1    2  502    0  0.22682650606E+02  0.53512206243E+01  0.10265968496E+04  0.10268613489E+04  0.00000000000E+00 0. -1.
         22    1    3    3    0    0  0.42907207083E+02 -0.13637777208E+01  0.46699363500E+02  0.63432790106E+02  0.00000000000E+00 0.  1.
         22    1    3    3    0    0 -0.32134645863E+02  0.14927968448E+02  0.37695094296E+03  0.37861258973E+03  0.00000000000E+00 0.  1.
</event>
<event>
 7    1  0.6278987E-006  0.1212163E+03  0.7818608E-02  0.1393867E+00
          2   -1    0    0  502    0  0.00000000000E+00  0.00000000000E+00  0.17500781552E+04  0.17500781552E+04  0.00000000000E+00 0. -1.
          1   -1    0    0  501    0 -0.00000000000E+00 -0.00000000000E+00 -0.24615445306E+03  0.24615445306E+03  0.00000000000E+00 0. -1.
         25    2    1    2    0    0  0.10528267392E+03  0.21147437787E+02  0.40785243587E+03  0.43988703758E+03  0.12500136333E+03 0.  0.
          2    1    1    2  501    0 -0.11050486643E+03 -0.51351274444E+02 -0.21381546793E+03  0.24610025034E+03  0.00000000000E+00 0. -1.
          1    1    1    2  502    0  0.52221925101E+01  0.30203836657E+02  0.13098867342E+04  0.13102453204E+04  0.00000000000E+00 0. -1.
         22    1    3    3    0    0  0.78812345720E+02  0.56524508081E+02  0.36738711645E+03  0.37997328746E+03  0.00000000000E+00 0. -1.
         22    1    3    3    0    0  0.26470328199E+02 -0.35377070294E+02  0.40465319423E+02  0.59913750121E+02  0.00000000000E+00 0. -1.
</event>
<event>
 7    1  0.6278987E-006  0.1268553E+03  0.7818608E-02  0.1395496E+00
          2   -1    0    0  502    0  0.00000000000E+00  0.00000000000E+00  0.17880560213E+04  0.17880560213E+04  0.00000000000E+00 0. -1.
          1   -1    0    0  501    0 -0.00000000000E+00 -0.00000000000E+00 -0.23337231188E+03  0.23337231188E+03  0.00000000000E+00 0. -1.
         25    2    1    2    0    0  0.20929123337E+02 -0.98806773161E+02  0.23865569029E+03  0.28771987339E+03  0.12500152161E+03 0.  0.
          2    1    1    2  501    0  0.91008504216E+01 -0.27441313717E+02 -0.20506342539E+03  0.20709142814E+03  0.00000000000E+00 0. -1.
          1    1    1    2  502    0 -0.30029973759E+02  0.12624808688E+03  0.15210914445E+04  0.15266170316E+04  0.00000000000E+00 0. -1.
         22    1    3    3    0    0  0.69872182430E+02 -0.40534957113E+02  0.15391794028E+03  0.17382731939E+03  0.00000000000E+00 0.  1.
         22    1    3    3    0    0 -0.48943059093E+02 -0.58271816048E+02  0.84737750018E+02  0.11389255400E+03  0.00000000000E+00 0.  1.
</event>
<event>
 7    1  0.6278987E-006  0.4347007E+02  0.7818608E-02  0.1536116E+00
          2   -1    0    0  502    0  0.00000000000E+00  0.00000000000E+00  0.11721790316E+03  0.11721790316E+03  0.00000000000E+00 0. -1.
          1   -1    0    0  501    0 -0.00000000000E+00 -0.00000000000E+00 -0.74256533239E+03  0.74256533239E+03  0.00000000000E+00 0. -1.
         25    2    1    2    0    0  0.41354842116E+02  0.17384114812E+02 -0.65839790707E+01  0.13296628450E+03  0.12499701444E+03 0.  0.
          2    1    1    2  501    0 -0.41534389689E+02  0.13173427031E+02 -0.66770152840E+03  0.66912179439E+03  0.00000000000E+00 0. -1.
          1    1    1    2  502    0  0.17954757333E+00 -0.30557541843E+02  0.48938078238E+02  0.57695156663E+02  0.00000000000E+00 0. -1.
         22    1    3    3    0    0 -0.32454037983E+02  0.18885561578E+02  0.32298112360E+02  0.49528750030E+02  0.00000000000E+00 0.  1.
         22    1    3    3    0    0  0.73808880099E+02 -0.15014467657E+01 -0.38882091431E+02  0.83437534467E+02  0.00000000000E+00 0.  1.
</event>
<event>
 7    1  0.6278987E-006  0.1600556E+03  0.7818608E-02  0.1369378E+00
          2   -1    0    0  502    0  0.00000000000E+00  0.00000000000E+00  0.20687527350E+03  0.20687527350E+03  0.00000000000E+00 0. -1.
          1   -1    0    0  501    0 -0.00000000000E+00 -0.00000000000E+00 -0.19889219226E+03  0.19889219226E+03  0.00000000000E+00 0. -1.
         25    2    1    2    0    0  0.14579239424E+03  0.25465081681E+02  0.56116978313E+01  0.19380452164E+03  0.12499923541E+03 0.  0.
          2    1    1    2  501    0  0.16801410696E+02  0.22812898911E+02 -0.27796748121E+02  0.39690993490E+02  0.00000000000E+00 0. -1.
          1    1    1    2  502    0 -0.16259380494E+03 -0.48277980591E+02  0.30168131534E+02  0.17227195063E+03  0.00000000000E+00 0. -1.
         22    1    3    3    0    0  0.95687314577E+02  0.35432996651E+02 -0.53879264788E+02  0.11538862421E+03  0.00000000000E+00 0. -1.
         22    1    3    3    0    0  0.50105079664E+02 -0.99679149703E+01  0.59490962619E+02  0.78415897434E+02  0.00000000000E+00 0. -1.
</event>
<event>
 7    1  0.6278987E-006  0.5127904E+02  0.7818608E-02  0.1491907E+00
          2   -1    0    0  502    0  0.00000000000E+00  0.00000000000E+00  0.23266066471E+04  0.23266066471E+04  0.00000000000E+00 0. -1.
          1   -1    0    0  501    0 -0.00000000000E+00 -0.00000000000E+00 -0.15604586475E+04  0.15604586475E+04  0.00000000000E+00 0. -1.
         25    2    1    2    0    0 -0.13614023264E+02 -0.67352725558E+02  0.19494801229E+03  0.24156157445E+03  0.12500214192E+03 0.  0.
          2    1    1    2  501    0 -0.19885437332E+02  0.28681420415E+02 -0.15366433002E+04  0.15370395853E+04  0.00000000000E+00 0. -1.
          1    1    1    2  502    0  0.33499460596E+02  0.38671305143E+02  0.21078432875E+04  0.21084641350E+04  0.00000000000E+00 0. -1.
         22    1    3    3    0    0 -0.52440198454E+01 -0.10322214686E+03  0.12240946673E+03  0.16020733096E+03  0.00000000000E+00 0.  1.
         22    1    3    3    0    0 -0.83700034181E+01  0.35869421307E+02  0.72538545556E+02  0.81354243488E+02  0.00000000000E+00 0.  1.
</event>
<event>
 7    1  0.6278987E-006  0.1320848E+03  0.7818608E-02  0.1299789E+00
          2   -1    0    0  502    0  0.00000000000E+00  0.00000000000E+00  0.20062587701E+04  0.20062587701E+04  0.00000000000E+00 0. -1.
          1   -1    0    0  501    0 -0.00000000000E+00 -0.00000000000E+00 -0.18844553872E+03  0.18844553872E+03  0.00000000000E+00 0. -1.
         25    2    1    2    0    0  0.15253901399E+03 -0.11865660239E+03  0.38902367562E+02  0.23342251626E+03  0.12500054727E+03 0.  0.
          2    1    1    2  501    0 -0.45669209209E+02  0.43508272102E+02 -0.77700164749E+02  0.10007977824E+03  0.00000000000E+00 0. -1.
          1    1    1    2  502    0 -0.10686980478E+03  0.75148330287E+02  0.18566110286E+04  0.18612020143E+04  0.00000000000E+00 0. -1.
         22    1    3    3    0    0  0.16305686994E+03 -0.66483766425E+02  0.21344746143E+02  0.17737878177E+03  0.00000000000E+00 0.  1.
         22    1    3    3    0    0 -0.10517855955E+02 -0.52172835965E+02  0.17557621419E+02  0.56043734497E+02  0.00000000000E+00 0.  1.
</event>
<event>
 7    1  0.6278987E-006  0.4069754E+02  0.7818608E-02  0.1545861E+00
          2   -1    0    0  502    0  0.00000000000E+00  0.00000000000E+00  0.27339751114E+03  0.27339751114E+03  0.00000000000E+00 0. -1.
          1   -1    0    0  501    0 -0.00000000000E+00 -0.00000000000E+00 -0.12307927553E+04  0.12307927553E+04  0.00000000000E+00 0. -1.
         25    2    1    2    0    0  0.25021662933E+02 -0.34204525954E+02 -0.17614511616E+03  0.22011061113E+03  0.12500218386E+03 0.  0.
          2    1    1    2  501    0 -0.40166326664E+02  0.75732581012E+01 -0.10313252560E+04  0.10321349096E+04  0.00000000000E+00 0. -1.
          1    1    1    2  502    0  0.15144663730E+02  0.26631267853E+02  0.25007512796E+03  0.25194474571E+03  0.00000000000E+00 0. -1.
         22    1    3    3    0    0 -0.28795607166E+02  0.32261478410E+02 -0.83457806552E+02  0.93995720411E+02  0.00000000000E+00 0. -1.
         22    1    3    3    0    0  0.53817270100E+02 -0.66466004364E+02 -0.92687309610E+02  0.12611489071E+03  0.00000000000E+00 0. -1.
</event>
<event>
 7    1  0.6278987E-006  0.5679946E+02  0.7818608E-02  0.1469730E+00
          2   -1    0    0  502    0  0.00000000000E+00  0.00000000000E+00  0.19883050290E+03  0.19883050290E+03  0.00000000000E+00 0. -1.
          1   -1    0    0  501    0 -0.00000000000E+00 -0.00000000000E+00 -0.12487160180E+03  0.12487160180E+03  0.00000000000E+00 0. -1.
         25    2    1    2    0    0 -0.60133053958E+02 -0.97698930751E+01  0.98330290403E+02  0.17030702645E+03  0.12499680899E+03 0.  0.
          2    1    1    2  501    0  0.78704555565E+01  0.35995161609E+02 -0.70080382050E+02  0.79176105475E+02  0.00000000000E+00 0. -1.
          1    1    1    2  502    0  0.52262598401E+02 -0.26225268534E+02  0.45708992749E+02  0.74218972773E+02  0.00000000000E+00 0. -1.
         22    1    3    3    0    0 -0.88362788729E+02  0.25634406854E+02  0.52736252007E+02  0.10604818491E+03  0.00000000000E+00 0. -1.
         22    1    3    3    0    0  0.28229734771E+02 -0.35404299930E+02  0.45594038396E+02  0.64258841540E+02  0.00000000000E+00 0. -1.
</event>
<event>
 7    1  0.6278987E-006  0.1507576E+03  0.7818608E-02  0.1276334E+00
          2   -1    0    0  502    0  0.00000000000E+00  0.00000000000E+00  0.27863908486E+03  0.27863908486E+03  0.00000000000E+00 0. -1.
          1   -1    0    0  501    0 -0.00000000000E+00 -0.00000000000E+00 -0.90327868299E+03  0.90327868299E+03  0.00000000000E+00 0. -1.
         25    2    1    2    0    0  0.11065967084E+03  0.27955233550E+02 -0.86085152409E+02  0.18990329452E+03  0.12500219987E+03 0.  0.
          2    1    1    2  501    0  0.18270465371E+02  0.66420275077E+02 -0.73532337801E+03  0.73854311526E+03  0.00000000000E+00 0. -1.
          1    1    1    2  502    0 -0.12893013621E+03 -0.94375508626E+02  0.19676893228E+03  0.25347135807E+03  0.00000000000E+00 0. -1.
         22    1    3    3    0    0  0.12821171233E+03  0.18144416754E+01 -0.40437918176E+02  0.13444984419E+03  0.00000000000E+00 0. -1.
         22    1    3    3    0    0 -0.17552041493E+02  0.26140791874E+02 -0.45647234233E+02  0.55453450330E+02  0.00000000000E+00 0. -1.
</event>
<event>
 7    1  0.6278987E-006  0.1349731E+03  0.7818608E-02  0.1332266E+00
          2   -1    0    0  502    0  0.00000000000E+00  0.00000000000E+00  0.16884023409E+04  0.16884023409E+04  0.00000000000E+00 0. -1.
          1   -1    0    0  501    0 -0.00000000000E+00 -0.00000000000E+00 -0.29146356919E+03  0.29146356919E+03  0.00000000000E+00 0. -1.
         25    2    1    2    0    0  0.71492956447E+02  0.11135236177E+03 -0.11976966416E+03  0.21790018784E+03  0.12500051246E+03 0.  0.
          2    1    1    2  501    0 -0.32958458674E+02 -0.13664942603E+03 -0.81904133876E+02  0.16268869899E+03  0.00000000000E+00 0. -1.
          1    1    1    2  502    0 -0.38534497773E+02  0.25297064253E+02  0.15986125697E+04  0.15992770232E+04  0.00000000000E+00 0. -1.
         22    1    3    3    0    0  0.49621503073E+01  0.28596482533E+02 -0.10710084941E+03  0.11096383957E+03  0.00000000000E+00 0. -1.
         22    1    3    3    0    0  0.66530806139E+02  0.82755879241E+02 -0.12668814749E+02  0.10693634827E+03  0.00000000000E+00 0. -1.
</event>
<event>
 7    1  0.6278987E-006  0.5601217E+02  0.7818608E-02  0.1502524E+00
          2   -1    0    0  502    0  0.00000000000E+00  0.00000000000E+00  0.11550922074E+04  0.11550922074E+04  0.00000000000E+00 0. -1.
          1   -1    0    0  501    0 -0.00000000000E+00 -0.00000000000E+00 -0.61869587079E+03  0.61869587079E+03  0.00000000000E+00 0. -1.
         25    2    1    2    0    0  0.45696739752E+02 -0.48455236678E+01  0.80209727016E+03  0.81308098477E+03  0.12501594244E+03 0.  0.
          2    1    1    2  501    0  0.76868900602E+01 -0.28682882363E+02 -0.60998090664E+03  0.61070328514E+03  0.00000000000E+00 0. -1.
          1    1    1    2  502    0 -0.53383629812E+02  0.33528406031E+02  0.34427997307E+03  0.35000380827E+03  0.00000000000E+00 0. -1.
         22    1    3    3    0    0  0.25835983552E+02 -0.64360672798E+02  0.47286237871E+03  0.47792114774E+03  0.00000000000E+00 0.  1.
         22    1    3    3    0    0  0.19860756200E+02  0.59515149130E+02  0.32923489145E+03  0.33515983703E+03  0.00000000000E+00 0.  1.
</event>
<event>
 7    1  0.6278987E-006  0.7617486E+02  0.7818608E-02  0.1511295E+00
          2   -1    0    0  502    0  0.00000000000E+00  0.00000000000E+00  0.71722236361E+03  0.71722236361E+03  0.00000000000E+00 0. -1.
          1   -1    0    0  501    0 -0.00000000000E+00 -0.00000000000E+00 -0.12931644264E+03  0.12931644264E+03  0.00000000000E+00 0. -1.
         25    2    1    2    0    0 -0.62923257393E+02  0.36352929950E+02  0.80930273141E+02  0.16568814420E+03  0.12498792014E+03 0.  0.
          2    1    1    2  501    0  0.53986454527E+02 -0.54879891987E+02 -0.69676153274E+02  0.10383210559E+03  0.00000000000E+00 0. -1.
          1    1    1    2  502    0  0.89368028658E+01  0.18526962036E+02  0.57665180111E+03  0.57701855645E+03  0.00000000000E+00 0. -1.
         22    1    3    3    0    0 -0.13422759393E+01  0.66800339107E+02  0.11096747840E+02  0.67729054490E+02  0.00000000000E+00 0. -1.
         22    1    3    3    0    0 -0.61580981453E+02 -0.30447409157E+02  0.69833525301E+02  0.97959089711E+02  0.00000000000E+00 0. -1.
</event>
<event>
 7    1  0.6278987E-006  0.1262529E+03  0.7818608E-02  0.1259775E+00
          2   -1    0    0  502    0  0.00000000000E+00  0.00000000000E+00  0.19087154174E+04  0.19087154174E+04  0.00000000000E+00 0. -1.
          1   -1    0    0  501    0 -0.00000000000E+00 -0.00000000000E+00 -0.12341337548E+04  0.12341337548E+04  0.00000000000E+00 0. -1.
         25    2    1    2    0    0 -0.56353462155E+02  0.70443577297E+02 -0.22137336009E+02  0.15574179375E+03  0.12500973721E+03 0.  0.
          2    1    1    2  501    0 -0.71446153803E+02 -0.65001897883E+02 -0.11409301994E+04  0.11450115805E+04  0.00000000000E+00 0. -1.
          1    1    1    2  502    0  0.12779961596E+03 -0.54416794144E+01  0.18376491980E+04  0.18420957979E+04  0.00000000000E+00 0. -1.
         22    1    3    3    0    0  0.21649989072E+02  0.38279439502E+02 -0.50278570781E+02  0.66797995443E+02  0.00000000000E+00 0. -1.
         22    1    3    3    0    0 -0.78003451228E+02  0.32164137795E+02  0.28141234772E+02  0.88943798311E+02  0.00000000000E+00 0. -1.
</event>
<event>
 7    1  0.6278987E-006  0.1358480E+03  0.7818608E-02  0.1237797E+00
          2   -1    0    0  502    0  0.00000000000E+00  0.00000000000E+00  0.66114213866E+03  0.66114213866E+03  0.00000000000E+00 0. -1.
          1   -1    0    0  501    0 -0.00000000000E+00 -0.00000000000E+00 -0.17930249374E+04  0.17930249374E+04  0.00000000000E+00 0. -1.
         25    2    1    2    0    0  0.27585610747E+02  0.64926520013E+02 -0.54300507328E+02  0.15345733724E+03  0.12499676130E+03 0.  0.
          2    1    1    2  501    0 -0.92793206864E+02  0.62462896781E+02 -0.16788873357E+04  0.16826095443E+04  0.00000000000E+00 0. -1.
          1    1    1    2  502    0  0.65207596116E+02 -0.12738941679E+03  0.60130504431E+03  0.61810019448E+03  0.00000000000E+00 0. -1.
         22    1    3    3    0    0  0.23453251467E+02 -0.26434275676E+02 -0.50868291033E+02  0.61938751743E+02  0.00000000000E+00 0.  1.
         22    1    3    3    0    0  0.41323592800E+01  0.91360795689E+02 -0.34322162953E+01  0.91518585494E+02  0.00000000000E+00 0.  1.
</event>
<event>
 7    1  0.6278987E-006  0.6923503E+02  0.7818608E-02  0.1458604E+00
          2   -1    0    0  502    0  0.00000000000E+00  0.00000000000E+00  0.83260782052E+03  0.83260782052E+03  0.00000000000E+00 0. -1.
          1   -1    0    0  501    0 -0.00000000000E+00 -0.00000000000E+00 -0.60788079285E+02  0.60788079285E+02  0.00000000000E+00 0. -1.
         25    2    1    2    0    0 -0.44008592532E+02  0.28496062915E+02  0.86745982669E+02  0.16093545671E+03  0.12500629544E+03 0.  0.
          2    1    1    2  501    0  0.76140463997E+02 -0.22129925299E+02  0.44255592111E+02  0.90805623639E+02  0.00000000000E+00 0. -1.
          1    1    1    2  502    0 -0.32131871464E+02 -0.63661376158E+01  0.64081816645E+03  0.64165481945E+03  0.00000000000E+00 0. -1.
         22    1    3    3    0    0  0.35069997650E+02  0.38257532891E+02  0.15806190179E+02  0.54252918871E+02  0.00000000000E+00 0. -1.
         22    1    3    3    0    0 -0.79078590182E+02 -0.97614699756E+01  0.70939792490E+02  0.10668253784E+03  0.00000000000E+00 0. -1.
</event>
<event>
 7    1  0.6278987E-006  0.1778826E+03  0.7818608E-02  0.1349128E+00
          2   -1    0    0  502    0  0.00000000000E+00  0.00000000000E+00  0.14609014273E+04  0.14609014273E+04  0.00000000000E+00 0. -1.
          1   -1    0    0  501    0 -0.00000000000E+00 -0.00000000000E+00 -0.51451074119E+03  0.51451074119E+03  0.00000000000E+00 0. -1.
         25    2    1    2    0    0 -0.34943799219E+02  0.18258591251E+03  0.15529157081E+03  0.27257922314E+03  0.12500110548E+03 0.  0.
          2    1    1    2  501    0  0.51752150064E+01 -0.17733662082E+03 -0.43841301532E+03  0.47294929108E+03  0.00000000000E+00 0. -1.
          1    1    1    2  502    0  0.29768584212E+02 -0.52492916913E+01  0.12295121306E+04  0.12298836543E+04  0.00000000000E+00 0. -1.
         22    1    3    3    0    0 -0.11457837669E+02  0.62344917966E+01 -0.19312023543E+02  0.23304617254E+02  0.00000000000E+00 0.  1.
         22    1    3    3    0    0 -0.23485961550E+02  0.17635142071E+03  0.17460359435E+03  0.24927460588E+03  0.00000000000E+00 0.  1.
</event>
<event>
 7    1  0.6278987E-006  0.1676060E+03  0.7818608E-02  0.1239132E+00
          2   -1    0    0  502    0  0.00000000000E+00  0.00000000000E+00  0.23501882031E+04  0.23501882031E+04  0.00000000000E+00 0. -1.
          1   -1    0    0  501    0 -0.00000000000E+00 -0.00000000000E+00 -0.35434971546E+03  0.35434971546E+03  0.00000000000E+00 0. -1.
         25    2    1    2    0    0  0.46529379643E+02 -0.23998112475E+03  0.10185994102E+04  0.10549529386E+04  0.12500008243E+03 0.  0.
          2    1    1    2  501    0  0.39354712397E+01  0.16613910692E+03 -0.31399277200E+03  0.35525927384E+03  0.00000000000E+00 0. -1.
          1    1    1    2  502    0 -0.50464850883E+02  0.73842017836E+02  0.12912318494E+04  0.12943257062E+04  0.00000000000E+00 0. -1.
         22    1    3    3    0    0  0.66350840172E+02 -0.24326206107E+03  0.89959299888E+03  0.93426250485E+03  0.00000000000E+00 0.  1.
         22    1    3    3    0    0 -0.19821460529E+02  0.32809363134E+01  0.11900641137E+03  0.12069043370E+03  0.00000000000E+00 0.  1.
</event>
<event>
 7    1  0.6278987E-006  0.1486630E+03  0.7818608E-02  0.1208024E+00
          2   -1    0    0  502    0  0.00000000000E+00  0.00000000000E+00  0.60273706051E+03  0.60273706051E+03  0.00000000000E+00 0. -1.
          1   -1    0    0  501    0 -0.00000000000E+00 -0.00000000000E+00 -0.44208369119E+03  0.44208369119E+03  0.00000000000E+00 0. -1.
         25    2    1    2    0    0 -0.18037959237E+03 -0.18556482644E+03  0.74175642956E+02  0.29681434745E+03  0.12500251474E+03 0.  0.
          2    1    1    2  501    0  0.12937965777E+03  0.55704365924E+02 -0.30308229127E+03  0.33421691685E+03  0.00000000000E+00 0. -1.
          1    1    1    2  502    0  0.50999934592E+02  0.12986046052E+03  0.38956001764E+03  0.41378948740E+03  0.00000000000E+00 0. -1.
         22    1    3    3    0    0 -0.17356747687E+02 -0.10302782997E+03  0.32199882756E+02  0.10932896637E+03  0.00000000000E+00 0. -1.
         22    1    3    3    0    0 -0.16302284468E+03 -0.82536996474E+02  0.41975760200E+02  0.18748538108E+03  0.00000000000E+00 0. -1.
</event>
<event>
 7    1  0.6278987E-006  0.1801359E+03  0.7818608E-02  0.1275709E+00
          2   -1    0    0  502    0  0.00000000000E+00  0.00000000000E+00  0.18416919878E+04  0.18416919878E+04  0.00000000000E+00 0. -1.
          1   -1    0    0  501    0 -0.00000000000E+00 -0.00000000000E+00 -0.17551891955E+03  0.17551891955E+03  0.00000000000E+00 0. -1.
         25    2    1    2    0    0  0.56979435359E+02  0.18766136772E+03  0.24100148962E+03  0.33491793955E+03  0.12499945297E+03 0.  0.
          2    1    1    2  501    0 -0.99269464705E+02 -0.14797062097E+03 -0.65984276791E+02  0.19000962101E+03  0.00000000000E+00 0. -1.
          1    1    1    2  502    0  0.42290029346E+02 -0.39690746754E+02  0.14911558554E+04  0.14922833468E+04  0.00000000000E+00 0. -1.
         22    1    3    3    0    0  0.96744776219E+02  0.12736896876E+03  0.17495260367E+03  0.23704602814E+03  0.00000000000E+00 0. -1.
         22    1    3    3    0    0 -0.39765340860E+02  0.60292398962E+02  0.66048885955E+02  0.97871911406E+02  0.00000000000E+00 0. -1.
</event>
<event>
 7    1  0.6278987E-006  0.7940288E+02  0.7818608E-02  0.1344311E+00
          2   -1    0    0  502    0  0.00000000000E+00  0.00000000000E+00  0.37227369428E+04  0.37227369428E+04  0.00000000000E+00 0. -1.
          1   -1    0    0  501    0 -0.00000000000E+00 -0.00000000000E+00 -0.78209563099E+01  0.78209563099E+01  0.00000000000E+00 0. -1.
         25    2    1    2    0    0  0.38681780648E+02  0.34037645519E+02  0.14825461427E+04  0.14886979431E+04  0.12499463672E+03 0.  0.
          2    1    1    2  501    0  0.25205130516E+02 -0.81189306924E+02  0.46498434556E+03  0.47269170056E+03  0.00000000000E+00 0. -1.
          1    1    1    2  502    0 -0.63886911164E+02  0.47151661405E+02  0.17673854983E+04  0.17691682555E+04  0.00000000000E+00 0. -1.
         22    1    3    3    0    0 -0.16331494579E+02 -0.38289331808E+01  0.28147804540E+02  0.32767016112E+02  0.00000000000E+00 0.  1.
         22    1    3    3    0    0  0.55013275228E+02  0.37866578700E+02  0.14543983381E+04  0.14559309270E+04  0.00000000000E+00 0.  1.
</event>
<event>
 7    1  0.6278987E-006  0.6655643E+02  0.7818608E-02  0.1478243E+00
          2   -1    0    0  502    0  0.00000000000E+00  0.00000000000E+00  0.44404401256E+03  0.44404401256E+03  0.00000000000E+00 0. -1.
          1   -1    0    0  501    0 -0.00000000000E+00 -0.00000000000E+00 -0.74758806265E+02  0.74758806265E+02  0.00000000000E+00 0. -1.
         25    2    1    2    0    0  0.42867119334E+02 -0.15888817384E+02  0.29924131694E+02  0.13641949378E+03  0.12499912074E+03 0.  0.
          2    1    1    2  501    0  0.25152822330E+02  0.15593089655E+02 -0.61617943564E+01  0.30228738409E+02  0.00000000000E+00 0. -1.
          1    1    1    2  502    0 -0.68019941664E+02  0.29572772893E+00  0.34552286896E+03  0.35215458664E+03  0.00000000000E+00 0. -1.
         22    1    3    3    0    0  0.49076710496E+02 -0.65752362618E+02  0.25767373705E+02  0.85999152616E+02  0.00000000000E+00 0. -1.
         22    1    3    3    0    0 -0.62095911613E+01  0.49863545234E+02  0.41567579881E+01  0.50420341160E+02  0.00000000000E+00 0. -1.
</event>
<event>
 7    1  0.1032520E-005  0.7869722E+02  0.7818608E-02  0.1376665E+00
          2   -1    0    0  502    0  0.00000000000E+00  0.00000000000E+00  0.25253883101E+04  0.25253883101E+04  0.00000000000E+00 0. -1.
          1   -1    0    0  501    0 -0.00000000000E+00 -0.00000000000E+00 -0.14783584855E+04  0.14783584855E+04  0.00000000000E+00 0. -1.
         25    2    1    2    0    0 -0.10096772174E+03  0.45316063058E+02 -0.17469026105E+03  0.24163983707E+03  0.12500038860E+03 0.  0.
          2    1    1    2  501    0  0.51827462619E+02  0.16077658249E+02 -0.12689930538E+04  0.12701527261E+04  0.00000000000E+00 0. -1.
          1    1    1    2  502    0  0.49140259124E+02 -0.61393721306E+02  0.24907131394E+04  0.24919542325E+04  0.00000000000E+00 0. -1.
         22    1    3    3    0    0 -0.23527762007E+02 -0.40354433483E+02 -0.26297838128E+02  0.53606083396E+02  0.00000000000E+00 0. -1.
         22    1    3    3    0    0 -0.77439959735E+02  0.85670496541E+02 -0.14839242292E+03  0.18803375368E+03  0.00000000000E+00 0. -1.
</event>
<event>
 7    1  0.6278987E-006  0.6733064E+02  0.7818608E-02  0.1421204E+00
          2   -1    0    0  502    0  0.00000000000E+00  0.00000000000E+00  0.10872202135E+03  0.10872202135E+03  0.00000000000E+00 0. -1.
          1   -1    0    0  501    0 -0.00000000000E+00 -0.00000000000E+00 -0.13324590954E+04  0.13324590954E+04  0.00000000000E+00 0. -1.
         25    2    1    2    0    0  0.98174845994E+02 -0.48915201577E+02 -0.22601852190E+03  0.28059691191E+03  0.12497702749E+03 0.  0.
          2    1    1    2  501    0 -0.39731459615E+02  0.20147352107E+02 -0.10655843707E+04  0.10665151456E+04  0.00000000000E+00 0. -1.
          1    1    1    2  502    0 -0.58443386380E+02  0.28767849469E+02  0.67865818574E+02  0.94069059235E+02  0.00000000000E+00 0. -1.
         22    1    3    3    0    0  0.75050479479E+02  0.14091676869E+02 -0.47626071837E+02  0.89996625191E+02  0.00000000000E+00 0. -1.
         22    1    3    3    0    0  0.23124366515E+02 -0.63006878446E+02 -0.17839245007E+03  0.19060028672E+03  0.00000000000E+00 0. -1.
</event>
<event>
 7    1  0.6278987E-006  0.9800521E+02  0.7818608E-02  0.1362514E+00
          2   -1    0    0  502    0  0.00000000000E+00  0.00000000000E+00  0.14539797532E+04  0.14539797532E+04  0.00000000000E+00 0. -1.
          1   -1    0    0  501    0 -0.00000000000E+00 -0.00000000000E+00 -0.28765409540E+03  0.28765409540E+03  0.00000000000E+00 0. -1.
         25    2    1    2    0    0 -0.14536594590E+02  0.70476042887E+02 -0.10678082459E+03  0.17945465179E+03  0.12499456927E+03 0.  0.
          2    1    1    2  501    0 -0.47622876957E+01 -0.11550717430E+03 -0.12092070317E+03  0.16729137203E+03  0.00000000000E+00 0. -1.
          1    1    1    2  502    0  0.19298882286E+02  0.45031131417E+02  0.13940271856E+04  0.13948878248E+04  0.00000000000E+00 0. -1.
         22    1    3    3    0    0  0.52709798553E+02  0.13031813697E+02 -0.53379424014E+02  0.76141407524E+02  0.00000000000E+00 0. -1.
         22    1    3    3    0    0 -0.67246393143E+02  0.57444229191E+02 -0.53401400572E+02  0.10331324427E+03  0.00000000000E+00 0. -1.
</event>
<event>
 7    1  0.6278987E-006  0.3951960E+02  0.7818608E-02  0.1549222E+00
          2   -1    0    0  502    0  0.00000000000E+00  0.00000000000E+00  0.17302582700E+03  0.17302582700E+03  0.00000000000E+00 0. -1.
          1   -1    0    0  501    0 -0.00000000000E+00 -0.00000000000E+00 -0.61101909391E+03  0.61101909391E+03  0.00000000000E+00 0. -1.
         25    2    1    2    0    0 -0.46687375997E+01 -0.62511271463E+02  0.19066114735E+02  0.14113304902E+03  0.12500225848E+03 0.  0.
          2    1    1    2  501    0 -0.12960027488E+02  0.37165423473E+02 -0.54669405342E+03  0.54810913061E+03  0.00000000000E+00 0. -1.
          1    1    1    2  502    0  0.17628765087E+02  0.25345847990E+02  0.89634671777E+02  0.94802741276E+02  0.00000000000E+00 0. -1.
         22    1    3    3    0    0  0.31746078565E+01  0.33586510451E+02 -0.17511937147E+02  0.38010521726E+02  0.00000000000E+00 0.  1.
         22    1    3    3    0    0 -0.78433454562E+01 -0.96097781913E+02  0.36578051882E+02  0.10312252730E+03  0.00000000000E+00 0.  1.
</event>
<event>
 7    1  0.6278987E-006  0.7233735E+02  0.7818608E-02  0.1425545E+00
          2   -1    0    0  502    0  0.00000000000E+00  0.00000000000E+00  0.23107123776E+04  0.23107123776E+04  0.00000000000E+00 0. -1.
          1   -1    0    0  501    0 -0.00000000000E+00 -0.00000000000E+00 -0.24428461728E+03  0.24428461728E+03  0.00000000000E+00 0. -1.
         25    2    1    2    0    0 -0.21500916352E+02 -0.24622320008E+02  0.10967122368E+04  0.11042961885E+04  0.12499517378E+03 0.  0.
          2    1    1    2  501    0  0.42362208835E+02  0.58879758941E+02 -0.23468181503E+03  0.24563578130E+03  0.00000000000E+00 0. -1.
          1    1    1    2  502    0 -0.20861292483E+02 -0.34257438933E+02  0.12043973385E+04  0.12050650251E+04  0.00000000000E+00 0. -1.
         22    1    3    3    0    0  0.22740922948E+02 -0.49378019075E+02  0.23976978010E+03  0.24585541644E+03  0.00000000000E+00 0.  1.
         22    1    3    3    0    0 -0.44241839299E+02  0.24755699067E+02  0.85694245670E+03  0.85844077203E+03  0.00000000000E+00 0.  1.
</event>
<event>
 7    1  0.6278987E-006  0.1294902E+03  0.7818608E-02  0.1285610E+00
          2   -1    0    0  502    0  0.00000000000E+00  0.00000000000E+00  0.10752003908E+03  0.10752003908E+03  0.00000000000E+00 0. -1.
          1   -1    0    0  501    0 -0.00000000000E+00 -0.00000000000E+00 -0.72539477496E+03  0.72539477496E+03  0.00000000000E+00 0. -1.
         25    2    1    2    0    0  0.98035700580E+02 -0.67983474224E+02 -0.10150720097E+03  0.20039194549E+03  0.12498187313E+03 0.  0.
          2    1    1    2  501    0 -0.13393989236E+03  0.39233781051E+01 -0.53921498056E+03  0.55561504922E+03  0.00000000000E+00 0. -1.
          1    1    1    2  502    0  0.35904191780E+02  0.64060096119E+02  0.22847445648E+02  0.76907819334E+02  0.00000000000E+00 0. -1.
         22    1    3    3    0    0  0.49927855131E+02 -0.94406232408E+02 -0.31322865214E+02  0.11129442628E+03  0.00000000000E+00 0.  1.
         22    1    3    3    0    0  0.48107845448E+02  0.26422758184E+02 -0.70184335757E+02  0.89097519210E+02  0.00000000000E+00 0.  1.
</event>
<event>
 7    1  0.6278987E-006  0.7890162E+02  0.7818608E-02  0.1364826E+00
          2   -1    0    0  502    0  0.00000000000E+00  0.00000000000E+00  0.24588445771E+04  0.24588445771E+04  0.00000000000E+00 0. -1.
          1   -1    0    0  501    0 -0.00000000000E+00 -0.00000000000E+00 -0.14095694657E+03  0.14095694657E+03  0.00000000000E+00 0. -1.
         25    2    1    2    0    0  0.66726808250E+02  0.74037769909E+02  0.10119330019E+04  0.10244838946E+04  0.12499916638E+03 0.  0.
          2    1    1    2  501    0 -0.59567797842E+02  0.38187237901E+01 -0.12694944659E+03  0.14028209858E+03  0.00000000000E+00 0. -1.
          1    1    1    2  502    0 -0.71590104082E+01 -0.77856493699E+02  0.14329040752E+04  0.14350355305E+04  0.00000000000E+00 0. -1.
         22    1    3    3    0    0 -0.32655373440E+02  0.43221876570E+02  0.27999357655E+03  0.28518574112E+03  0.00000000000E+00 0. -1.
         22    1    3    3    0    0  0.99382181690E+02  0.30815893339E+02  0.73193942535E+03  0.73929815346E+03  0.00000000000E+00 0. -1.
</event>
<event>
 7    1  0.6278987E-006  0.5309648E+02  0.7818608E-02  0.1495913E+00
          2   -1    0    0  502    0  0.00000000000E+00  0.00000000000E+00  0.21824511547E+03  0.21824511547E+03  0.00000000000E+00 0. -1.
          1   -1    0    0  501    0 -0.00000000000E+00 -0.00000000000E+00 -0.22619239823E+04  0.22619239823E+04  0.00000000000E+00 0. -1.
         25    2    1    2    0    0  0.55122520901E+02 -0.11143591591E+02 -0.39992671339E+02  0.14278571985E+03  0.12500270432E+03 0.  0.
          2    1    1    2  501    0 -0.36804045794E+02  0.38331281055E+02 -0.21685958042E+04  0.21692467787E+04  0.00000000000E+00 0. -1.
          1    1    1    2  502    0 -0.18318475107E+02 -0.27187689464E+02  0.16490960866E+03  0.16813659927E+03  0.00000000000E+00 0. -1.
         22    1    3    3    0    0 -0.26246934045E+02  0.22443838680E+02  0.16412405014E+02  0.38236036403E+02  0.00000000000E+00 0.  1.
         22    1    3    3    0    0  0.81369454945E+02 -0.33587430271E+02 -0.56405076353E+02  0.10454968345E+03  0.00000000000E+00 0.  1.
</event>
<event>
 7    1  0.6278987E-006  0.7508314E+02  0.7818608E-02  0.1404834E+00
          2   -1    0    0  502    0  0.00000000000E+00  0.00000000000E+00  0.12451635491E+04  0.12451635491E+04  0.00000000000E+00 0. -1.
          1   -1    0    0  501    0 -0.00000000000E+00 -0.00000000000E+00 -0.59587912127E+03  0.59587912127E+03  0.00000000000E+00 0. -1.
         25    2    1    2    0    0 -0.80473244601E+02  0.64085673657E+01  0.38320249088E+03  0.41107945748E+03  0.12500063404E+03 0.  0.
          2    1    1    2  501    0  0.59079758379E+02 -0.46413213100E+02 -0.57890473154E+03  0.58375961867E+03  0.00000000000E+00 0. -1.
          1    1    1    2  502    0  0.21393486222E+02  0.40004645735E+02  0.84498666849E+03  0.84620359421E+03  0.00000000000E+00 0. -1.
         22    1    3    3    0    0 -0.52602017883E+02 -0.13546734665E+02  0.37059707840E+03  0.37455664568E+03  0.00000000000E+00 0.  1.
         22    1    3    3    0    0 -0.27871226718E+02  0.19955302031E+02  0.12605412485E+02  0.36522811801E+02  0.00000000000E+00 0.  1.
</event>
<event>
 7    1  0.6278987E-006  0.5656782E+02  0.7818608E-02  0.1479274E+00
          2   -1    0    0  502    0  0.00000000000E+00  0.00000000000E+00  0.48473115652E+04  0.48473115652E+04  0.00000000000E+00 0. -1.
          1   -1    0    0  501    0 -0.00000000000E+00 -0.00000000000E+00 -0.30100262260E+01  0.30100262260E+01  0.00000000000E+00 0. -1.
         25    2    1    2    0    0 -0.43936251818E+02  0.75852757122E+01  0.33353410970E+04  0.33379801546E+04  0.12499339575E+03 0.  0.
          2    1    1    2  501    0  0.43335024325E+02 -0.42146771272E+02  0.68699291900E+03  0.68964740659E+03  0.00000000000E+00 0. -1.
          1    1    1    2  502    0  0.60122749258E+00  0.34561495560E+02  0.82196752304E+03  0.82269403023E+03  0.00000000000E+00 0. -1.
         22    1    3    3    0    0 -0.81261284840E+02  0.29918597543E+02  0.18866303905E+04  0.18886166232E+04  0.00000000000E+00 0.  1.
         22    1    3    3    0    0  0.37325033022E+02 -0.22333321831E+02  0.14487107065E+04  0.14493635315E+04  0.00000000000E+00 0.  1.
</event>
<event>
 7    1  0.6278987E-006  0.8722695E+02  0.7818608E-02  0.1353437E+00
          2   -1    0    0  502    0  0.00000000000E+00  0.00000000000E+00  0.12408295294E+04  0.12408295294E+04  0.00000000000E+00 0. -1.
          1   -1    0    0  501    0 -0.00000000000E+00 -0.00000000000E+00 -0.14418131514E+04  0.14418131514E+04  0.00000000000E+00 0. -1.
         25    2    1    2    0    0  0.27554321351E+02 -0.14627203601E+02  0.78102910755E+02  0.15065696602E+03  0.12499704409E+03 0.  0.
          2    1    1    2  501    0  0.57620085582E+02 -0.14526540059E+02 -0.14031075357E+04  0.14043652842E+04  0.00000000000E+00 0. -1.
          1    1    1    2  502    0 -0.85174406932E+02  0.29153743660E+02  0.11240210029E+04  0.11276204306E+04  0.00000000000E+00 0. -1.
         22    1    3    3    0    0  0.14545351505E+02  0.26192888981E+02 -0.24991055217E+02  0.39015221701E+02  0.00000000000E+00 0.  1.
         22    1    3    3    0    0  0.13008969846E+02 -0.40820092581E+02  0.10309396597E+03  0.11164174432E+03  0.00000000000E+00 0.  1.
</event>
<event>
 7    1  0.6278987E-006  0.4543256E+02  0.7818608E-02  0.1491211E+00
          2   -1    0    0  502    0  0.00000000000E+00  0.00000000000E+00  0.28526335405E+03  0.28526335405E+03  0.00000000000E+00 0. -1.
          1   -1    0    0  501    0 -0.00000000000E+00 -0.00000000000E+00 -0.10049413648E+03  0.10049413648E+03  0.00000000000E+00 0. -1.
         25    2    1    2    0    0  0.19737567895E+02  0.10028490624E+02  0.44959442128E+01  0.12702378723E+03  0.12499874718E+03 0.  0.
          2    1    1    2  501    0 -0.52183114741E+02  0.12644866954E+02 -0.17936684192E+02  0.56610023531E+02  0.00000000000E+00 0. -1.
          1    1    1    2  502    0  0.32445546846E+02 -0.22673357578E+02  0.19820995755E+03  0.20212367977E+03  0.00000000000E+00 0. -1.
         22    1    3    3    0    0 -0.12333221931E+02  0.36974965241E+02 -0.46729892428E+02  0.60851781108E+02  0.00000000000E+00 0. -1.
         22    1    3    3    0    0  0.32070789826E+02 -0.26946474617E+02  0.51225836640E+02  0.66172006119E+02  0.00000000000E+00 0. -1.
</event>
<event>
 7    1  0.6278987E-006  0.7226010E+02  0.7818608E-02  0.1389677E+00
          2   -1    0    0  502    0  0.00000000000E+00  0.00000000000E+00  0.24702773800E+04  0.24702773800E+04  0.00000000000E+00 0. -1.
          1   -1    0    0  501    0 -0.00000000000E+00 -0.00000000000E+00 -0.57941157991E+02  0.57941157991E+02  0.00000000000E+00 0. -1.
         25    2    1    2    0    0 -0.89324143042E+02 -0.86066678973E+02  0.29061168233E+03  0.33980633993E+03  0.12500769173E+03 0.  0.
          2    1    1    2  501    0  0.40335239072E+02  0.34649551662E+02 -0.11170534928E+02  0.54335106441E+02  0.00000000000E+00 0. -1.
          1    1    1    2  502    0  0.48988903970E+02  0.51417127311E+02  0.21328950746E+04  0.21340770916E+04  0.00000000000E+00 0. -1.
         22    1    3    3    0    0 -0.65445738686E+02 -0.12371036804E+02  0.23549399904E+03  0.24473171198E+03  0.00000000000E+00 0.  1.
         22    1    3    3    0    0 -0.23878404356E+02 -0.73695642169E+02  0.55117683291E+02  0.95074627954E+02  0.00000000000E+00 0.  1.
</event>
<event>
 7    1  0.6278987E-006  0.2193793E+03  0.7818608E-02  0.1279513E+00
          2   -1    0    0  502    0  0.00000000000E+00  0.00000000000E+00  0.16597107553E+04  0.16597107553E+04  0.00000000000E+00 0. -1.
          1   -1    0    0  501    0 -0.00000000000E+00 -0.00000000000E+00 -0.21645245442E+03  0.21645245442E+03  0.00000000000E+00 0. -1.
         25    2    1    2    0    0 -0.18864514657E+03 -0.11527203535E+03  0.35460157872E+03  0.43616706896E+03  0.12499919583E+03 0.  0.
          2    1    1    2  501    0  0.20722242191E+03  0.73273058570E+02 -0.10630429777E+03  0.24415297864E+03  0.00000000000E+00 0. -1.
          1    1    1    2  502    0 -0.18577275340E+02  0.41998976779E+02  0.11949610199E+04  0.11958431621E+04  0.00000000000E+00 0. -1.
         22    1    3    3    0    0 -0.21413740263E+02  0.94432019679E+01 -0.15072953430E+01  0.23451956735E+02  0.00000000000E+00 0.  1.
         22    1    3    3    0    0 -0.16723140631E+03 -0.12471523732E+03  0.35610887406E+03  0.41271511223E+03  0.00000000000E+00 0.  1.
</event>
<event>
 7    1  0.6278987E-006  0.1156549E+03  0.7818608E-02  0.1253969E+00
          2   -1    0    0  502    0  0.00000000000E+00  0.00000000000E+00  0.25293125443E+04  0.25293125443E+04  0.00000000000E+00 0. -1.
          1   -1    0    0  501    0 -0.00000000000E+00 -0.00000000000E+00 -0.14613742815E+03  0.14613742815E+03  0.00000000000E+00 0. -1.
         25    2    1    2    0    0 -0.62351686375E+02  0.14085466428E+03  0.26784389769E+03  0.33330642546E+03  0.12500020191E+03 0.  0.
          2    1    1    2  501    0  0.10648671184E+03 -0.33611740912E+02 -0.84015284691E+02  0.13974167949E+03  0.00000000000E+00 0. -1.
          1    1    1    2  502    0 -0.44135025460E+02 -0.10724292337E+03  0.21993465031E+04  0.22024018675E+04  0.00000000000E+00 0. -1.
         22    1    3    3    0    0 -0.81887654756E+02  0.40076486290E+02  0.90907169419E+02  0.12874714058E+03  0.00000000000E+00 0.  1.
         22    1    3    3    0    0  0.19535968381E+02  0.10077817799E+03  0.17693672827E+03  0.20455928488E+03  0.00000000000E+00 0.  1.
</event>
<event>
 7    1  0.6278987E-006  0.5563553E+02  0.7818608E-02  0.1438051E+00
          2   -1    0    0  502    0  0.00000000000E+00  0.00000000000E+00  0.85076768448E+02  0.85076768448E+02  0.00000000000E+00 0. -1.
          1   -1    0    0  501    0 -0.00000000000E+00 -0.00000000000E+00 -0.16511425561E+04  0.16511425561E+04  0.00000000000E+00 0. -1.
         25    2    1    2    0    0 -0.17594097356E+02  0.69791918897E+02 -0.57875042324E+03  0.59645512761E+03  0.12500481051E+03 0.  0.
          2    1    1    2  501    0  0.45771003498E+02 -0.31619892153E+02 -0.10553525792E+04  0.10568178030E+04  0.00000000000E+00 0. -1.
          1    1    1    2  502    0 -0.28176906142E+02 -0.38172026744E+02  0.68037214798E+02  0.82946393912E+02  0.00000000000E+00 0. -1.
         22    1    3    3    0    0 -0.44443907957E+01  0.86390950602E+02 -0.56412514712E+03  0.57071913457E+03  0.00000000000E+00 0.  1.
         22    1    3    3    0    0 -0.13149706560E+02 -0.16599031705E+02 -0.14625276122E+02  0.25735993041E+02  0.00000000000E+00 0.  1.
</event>
<event>
 7    1  0.6278987E-006  0.1018481E+03  0.7818608E-02  0.1368289E+00
          2   -1    0    0  502    0  0.00000000000E+00  0.00000000000E+00  0.10799298283E+04  0.10799298283E+04  0.00000000000E+00 0. -1.
          1   -1    0    0  501    0 -0.00000000000E+00 -0.00000000000E+00 -0.93939648390E+03  0.93939648390E+03  0.00000000000E+00 0. -1.
         25    2    1    2    0    0 -0.63727431610E+02 -0.51149439303E+02 -0.14503679838E+02  0.15004002214E+03  0.12499680329E+03 0.  0.
          2    1    1    2  501    0  0.10008799432E+03  0.24758566430E+02 -0.85352205552E+03  0.85972698717E+03  0.00000000000E+00 0. -1.
          1    1    1    2  502    0 -0.36360562710E+02  0.26390872873E+02  0.10085590797E+04  0.10095593029E+04  0.00000000000E+00 0. -1.
         22    1    3    3    0    0 -0.24471318484E+02 -0.90121547461E+02 -0.24026448698E+01  0.93415798704E+02  0.00000000000E+00 0.  1.
         22    1    3    3    0    0 -0.39256113126E+02  0.38972108158E+02 -0.12101034968E+02  0.56624223432E+02  0.00000000000E+00 0.  1.
</event>
<event>
 7    1  0.6278987E-006  0.1567666E+03  0.7818608E-02  0.1260117E+00
          2   -1    0    0  502    0  0.00000000000E+00  0.00000000000E+00  0.34119038496E+03  0.34119038496E+03  0.00000000000E+00 0. -1.
          1   -1    0    0  501    0 -0.00000000000E+00 -0.00000000000E+00 -0.13599085404E+04  0.13599085404E+04  0.00000000000E+00 0. -1.
         25    2    1    2    0    0  0.19355256360E+03  0.21693277683E+02 -0.10093120224E+02  0.23164605446E+03  0.12499932119E+03 0.  0.
          2    1    1    2  501    0 -0.47638991898E+02 -0.61166223898E+02 -0.12128762492E+04  0.12153516266E+04  0.00000000000E+00 0. -1.
          1    1    1    2  502    0 -0.14591357170E+03  0.39472946215E+02  0.20425121402E+03  0.25410124423E+03  0.00000000000E+00 0. -1.
         22    1    3    3    0    0  0.31050299076E+02 -0.54796358024E+01 -0.52750137568E+02  0.61455060773E+02  0.00000000000E+00 0.  1.
         22    1    3    3    0    0  0.16250226453E+03  0.27172913485E+02  0.42657017343E+02  0.17019099369E+03  0.00000000000E+00 0.  1.
</event>
<event>
 7    1  0.6278987E-006  0.6080040E+02  0.7818608E-02  0.1475275E+00
          2   -1    0    0  502    0  0.00000000000E+00  0.00000000000E+00  0.16590636850E+02  0.16590636850E+02  0.00000000000E+00 0. -1.
          1   -1    0    0  501    0 -0.00000000000E+00 -0.00000000000E+00 -0.12568633504E+04  0.12568633504E+04  0.00000000000E+00 0. -1.
         25    2    1    2    0    0 -0.26818283472E+02 -0.75040222391E+02 -0.99183242418E+03  0.10028488027E+04  0.12499563243E+03 0.  0.
          2    1    1    2  501    0  0.36244507979E+01  0.51446156799E+02 -0.22295529148E+03  0.22884253471E+03  0.00000000000E+00 0. -1.
          1    1    1    2  502    0  0.23193832674E+02  0.23594065592E+02 -0.25484997930E+02  0.41762649877E+02  0.00000000000E+00 0. -1.
         22    1    3    3    0    0 -0.52604925511E+01  0.35127754821E+02 -0.27376244990E+03  0.27605707909E+03  0.00000000000E+00 0.  1.
         22    1    3    3    0    0 -0.21557790921E+02 -0.11016797721E+03 -0.71806997427E+03  0.72679172361E+03  0.00000000000E+00 0.  1.
</event>
<event>
 7    1  0.6278987E-006  0.4296506E+02  0.7818608E-02  0.1529636E+00
          2   -1    0    0  502    0  0.00000000000E+00  0.00000000000E+00  0.10707410411E+04  0.10707410411E+04  0.00000000000E+00 0. -1.
          1   -1    0    0  501    0 -0.00000000000E+00 -0.00000000000E+00 -0.26070601021E+03  0.26070601021E+03  0.00000000000E+00 0. -1.
         25    2    1    2    0    0  0.81553011863E+00  0.14922343679E+02 -0.82128955227E+02  0.15030993110E+03  0.12499827467E+03 0.  0.
          2    1    1    2  501    0 -0.17066423307E+02 -0.42792820961E+02 -0.14055577856E+03  0.14791353966E+03  0.00000000000E+00 0. -1.
          1    1    1    2  502    0  0.16250893189E+02  0.27870477282E+02  0.10327197646E+04  0.10332235805E+04  0.00000000000E+00 0. -1.
         22    1    3    3    0    0 -0.49107756028E+02  0.45224577674E+02 -0.51833816137E+02  0.84519693701E+02  0.00000000000E+00 0.  1.
         22    1    3    3    0    0  0.49923286147E+02 -0.30302233995E+02 -0.30295139089E+02  0.65790237400E+02  0.00000000000E+00 0.  1.
</event>
<event>
 7    1  0.6278987E-006  0.1369527E+03  0.7818608E-02  0.1329576E+00
          2   -1    0    0  502    0  0.00000000000E+00  0.00000000000E+00  0.10363981134E+04  0.10363981134E+04  0.00000000000E+00 0. -1.
          1   -1    0    0  501    0 -0.00000000000E+00 -0.00000000000E+00 -0.13655359650E+04  0.13655359650E+04  0.00000000000E+00 0. -1.
         25    2    1    2    0    0 -0.92512912667E+02 -0.47016862781E+02 -0.42010376865E+03  0.45042331158E+03  0.12499903515E+03 0.  0.
          2    1    1    2  501    0  0.13274012194E+03  0.70373458721E+02 -0.92367002855E+03  0.93580910730E+03  0.00000000000E+00 0. -1.
          1    1    1    2  502    0 -0.40227209270E+02 -0.23356595940E+02  0.10146359456E+04  0.10157016595E+04  0.00000000000E+00 0. -1.
         22    1    3    3    0    0 -0.31703252323E+02  0.35616160728E+01 -0.11003239695E+02  0.33746890238E+02  0.00000000000E+00 0.  1.
         22    1    3    3    0    0 -0.60809660344E+02 -0.50578478853E+02 -0.40910052895E+03  0.41667642134E+03  0.00000000000E+00 0.  1.
</event>
<event>
 7    1  0.6278987E-006  0.8106523E+02  0.7818608E-02  0.1398315E+00
          2   -1    0    0  502    0  0.00000000000E+00  0.00000000000E+00  0.60237028395E+02  0.60237028395E+02  0.00000000000E+00 0. -1.
          1   -1    0    0  501    0 -0.00000000000E+00 -0.00000000000E+00 -0.61793852823E+03  0.61793852823E+03  0.00000000000E+00 0. -1.
         25    2    1    2    0    0 -0.44060400847E+02  0.64576868806E+01 -0.16757091097E+03  0.21374747337E+03  0.12499980610E+03 0.  0.
          2    1    1    2  501    0  0.86777026498E+02 -0.17961949161E+02 -0.40740876811E+03  0.41693499286E+03  0.00000000000E+00 0. -1.
          1    1    1    2  502    0 -0.42716625651E+02  0.11504262280E+02  0.17278179239E+02  0.47493090397E+02  0.00000000000E+00 0. -1.
         22    1    3    3    0    0 -0.40139597637E+02  0.48379038198E+02 -0.29577061287E+02  0.69473168848E+02  0.00000000000E+00 0.  1.
         22    1    3    3    0    0 -0.39208032102E+01 -0.41921351317E+02 -0.13799384968E+03  0.14427430452E+03  0.00000000000E+00 0.  1.
</event>
<event>
 7    1  0.6278987E-006  0.1354176E+03  0.7818608E-02  0.1258355E+00
          2   -1    0    0  502    0  0.00000000000E+00  0.00000000000E+00  0.83680564290E+03  0.83680564290E+03  0.00000000000E+00 0. -1.
          1   -1    0    0  501    0 -0.00000000000E+00 -0.00000000000E+00 -0.24400465995E+03  0.24400465995E+03  0.00000000000E+00 0. -1.
         25    2    1    2    0    0 -0.99769992664E+01  0.53068421057E+02  0.24031236637E+03  0.27620275318E+03  0.12498851790E+03 0.  0.
          2    1    1    2  501    0 -0.83040115519E+01 -0.14254133542E+03 -0.19938048635E+03  0.24523369925E+03  0.00000000000E+00 0. -1.
          1    1    1    2  502    0  0.18281010818E+02  0.89472914366E+02  0.55186910293E+03  0.55937385041E+03  0.00000000000E+00 0. -1.
         22    1    3    3    0    0 -0.40498716531E+02  0.15506187100E+02  0.21911486697E+03  0.22336497668E+03  0.00000000000E+00 0. -1.
         22    1    3    3    0    0  0.30521717265E+02  0.37562233957E+02  0.21197499397E+02  0.52837776499E+02  0.00000000000E+00 0. -1.
</event>
<event>
 7    1  0.6278987E-006  0.4008643E+02  0.7818608E-02  0.1592686E+00
          2   -1    0    0  502    0  0.00000000000E+00  0.00000000000E+00  0.18824652173E+04  0.18824652173E+04  0.00000000000E+00 0. -1.
          1   -1    0    0  501    0 -0.00000000000E+00 -0.00000000000E+00 -0.33063576684E+03  0.33063576684E+03  0.00000000000E+00 0. -1.
         25    2    1    2    0    0  0.16611634787E+02 -0.60116598204E+01 -0.13069112006E+02  0.12691800044E+03  0.12500116273E+03 0.  0.
          2    1    1    2  501    0  0.23188408418E+02  0.65832905991E+00 -0.25990469445E+03  0.26093789659E+03  0.00000000000E+00 0. -1.
          1    1    1    2  502    0 -0.39800043205E+02  0.53533307605E+01  0.18248032569E+04  0.18252450871E+04  0.00000000000E+00 0. -1.
         22    1    3    3    0    0  0.61697106396E+02 -0.11460053750E+02 -0.39715473612E+02  0.74264288954E+02  0.00000000000E+00 0.  1.
         22    1    3    3    0    0 -0.45085471609E+02  0.54483939292E+01  0.26646361606E+02  0.52653711488E+02  0.00000000000E+00 0.  1.
</event>
<event>
 7    1  0.6278987E-006  0.4560889E+02  0.7818608E-02  0.1567881E+00
          2   -1    0    0  502    0  0.00000000000E+00  0.00000000000E+00  0.29932948159E+04  0.29932948159E+04  0.00000000000E+00 0. -1.
          1   -1    0    0  501    0 -0.00000000000E+00 -0.00000000000E+00 -0.43430817877E+03  0.43430817877E+03  0.00000000000E+00 0. -1.
         25    2    1    2    0    0  0.36830604770E+02  0.27102480451E+01 -0.26318551202E+03  0.29369451066E+03  0.12500405180E+03 0.  0.
          2    1    1    2  501    0  0.37963075652E+01 -0.23457009275E+02 -0.15478676219E+03  0.15660007978E+03  0.00000000000E+00 0. -1.
          1    1    1    2  502    0 -0.40626912335E+02  0.20746761230E+02  0.29769589113E+04  0.29773084042E+04  0.00000000000E+00 0. -1.
         22    1    3    3    0    0 -0.16013348591E+02 -0.24469101517E+02 -0.61546383528E+01  0.29883839034E+02  0.00000000000E+00 0. -1.
         22    1    3    3    0    0  0.52843953361E+02  0.27179349562E+02 -0.25703087366E+03  0.26381067163E+03  0.00000000000E+00 0. -1.
</event>
<event>
 7    1  0.6278987E-006  0.1101923E+03  0.7818608E-02  0.1378230E+00
          2   -1    0    0  502    0  0.00000000000E+00  0.00000000000E+00  0.50307714476E+03  0.50307714476E+03  0.00000000000E+00 0. -1.
          1   -1    0    0  501    0 -0.00000000000E+00 -0.00000000000E+00 -0.86087605692E+02  0.86087605692E+02  0.00000000000E+00 0. -1.
         25    2    1    2    0    0  0.25135932070E+01  0.85185388804E+02  0.16985261152E+03  0.22746107729E+03  0.12500305367E+03 0.  0.
          2    1    1    2  501    0 -0.14565868315E+02  0.35379861753E+02 -0.36743107564E+02  0.53046725544E+02  0.00000000000E+00 0. -1.
          1    1    1    2  502    0  0.12052275108E+02 -0.12056525056E+03  0.28388003511E+03  0.30865694761E+03  0.00000000000E+00 0. -1.
         22    1    3    3    0    0 -0.40024483834E+02 -0.67422198402E+01  0.16805027549E+02  0.43929782443E+02  0.00000000000E+00 0.  1.
         22    1    3    3    0    0  0.42538077041E+02  0.91927608645E+02  0.15304758397E+03  0.18353129485E+03  0.00000000000E+00 0.  1.
</event>
<event>
 7    1  0.6278987E-006  0.5302124E+02  0.7818608E-02  0.1463093E+00
          2   -1    0    0  502    0  0.00000000000E+00  0.00000000000E+00  0.16543477788E+03  0.16543477788E+03  0.00000000000E+00 0. -1.
          1   -1    0    0  501    0 -0.00000000000E+00 -0.00000000000E+00 -0.23499413592E+03  0.23499413592E+03  0.00000000000E+00 0. -1.
         25    2    1    2    0    0 -0.75276756921E+01 -0.30328115075E+02 -0.23627105725E+02  0.13099558087E+03  0.12500056647E+03 0.  0.
          2    1    1    2  501    0  0.48826138874E+02  0.27390359828E+02 -0.14856544522E+03  0.15876370858E+03  0.00000000000E+00 0. -1.
          1    1    1    2  502    0 -0.41298463182E+02  0.29377552470E+01  0.10263319291E+03  0.11066962435E+03  0.00000000000E+00 0. -1.
         22    1    3    3    0    0  0.45472650902E+02 -0.48689925643E+02  0.71692261278E+01  0.67006482093E+02  0.00000000000E+00 0.  1.
         22    1    3    3    0    0 -0.53000326595E+02  0.18361810569E+02 -0.30796331853E+02  0.63989098775E+02  0.00000000000E+00 0.  1.
</event>
<event>
 7    1  0.6278987E-006  0.1260467E+03  0.7818608E-02  0.1306715E+00
          2   -1    0    0  502    0  0.00000000000E+00  0.00000000000E+00  0.78382472656E+03  0.78382472656E+03  0.00000000000E+00 0. -1.
          1   -1    0    0  501    0 -0.00000000000E+00 -0.00000000000E+00 -0.77846505866E+03  0.77846505866E+03  0.00000000000E+00 0. -1.
         25    2    1    2    0    0  0.86568540311E+02 -0.12708047764E+03  0.27525957836E+03  0.33917005001E+03  0.12499970950E+03 0.  0.
          2    1    1    2  501    0 -0.61482345153E+02  0.82249335664E+01 -0.73744644847E+03  0.74005066898E+03  0.00000000000E+00 0. -1.
          1    1    1    2  502    0 -0.25086195158E+02  0.11885554407E+03  0.46754653800E+03  0.48306906623E+03  0.00000000000E+00 0. -1.
         22    1    3    3    0    0  0.87795178476E+02 -0.56774290897E+02  0.23718532231E+03  0.25920684904E+03  0.00000000000E+00 0.  1.
         22    1    3    3    0    0 -0.12266381645E+01 -0.70306186744E+02  0.38074256054E+02  0.79963200972E+02  0.00000000000E+00 0.  1.
</event>
<event>
 7    1  0.6278987E-006  0.4712745E+02  0.7818608E-02  0.1523606E+00
          2   -1    0    0  502    0  0.00000000000E+00  0.00000000000E+00  0.12626873824E+04  0.12626873824E+04  0.00000000000E+00 0. -1.
          1   -1    0    0  501    0 -0.00000000000E+00 -0.00000000000E+00 -0.30364109529E+02  0.30364109529E+02  0.00000000000E+00 0. -1.
         25    2    1    2    0    0  0.17634907512E+02  0.31955920550E+01  0.66100204111E+03  0.67295593431E+03  0.12499915756E+03 0.  0.
          2    1    1    2  501    0 -0.45534192709E+02 -0.15794074892E+02  0.24174485913E+00  0.48196202630E+02  0.00000000000E+00 0. -1.
          1    1    1    2  502    0  0.27899285197E+02  0.12598482837E+02  0.57107948694E+03  0.57189935503E+03  0.00000000000E+00 0. -1.
         22    1    3    3    0    0  0.47571210086E+02 -0.44135313873E+02  0.25582678531E+03  0.26392856996E+03  0.00000000000E+00 0. -1.
         22    1    3    3    0    0 -0.29936302574E+02  0.47330905927E+02  0.40517525580E+03  0.40902736434E+03  0.00000000000E+00 0. -1.
</event>
<event>
 7    1  0.6278987E-006  0.4528143E+02  0.7818608E-02  0.1499698E+00
          2   -1    0    0  502    0  0.00000000000E+00  0.00000000000E+00  0.13265764923E+04  0.13265764923E+04  0.00000000000E+00 0. -1.
          1   -1    0    0  501    0 -0.00000000000E+00 -0.00000000000E+00 -0.71742816431E+02  0.71742816431E+02  0.00000000000E+00 0. -1.
         25    2    1    2    0    0  0.26293007021E+02  0.92812291715E+01  0.19038978571E+02  0.12948167222E+03  0.12500222919E+03 0.  0.
          2    1    1    2  501    0 -0.42380889238E+01 -0.48828524548E+02  0.21202421556E+02  0.53401581316E+02  0.00000000000E+00 0. -1.
          1    1    1    2  502    0 -0.22054918097E+02  0.39547295376E+02  0.12145922758E+04  0.12154360552E+04  0.00000000000E+00 0. -1.
         22    1    3    3    0    0  0.13522023918E+02  0.49581243751E+02  0.54056415410E+02  0.74587136356E+02  0.00000000000E+00 0. -1.
         22    1    3    3    0    0  0.12770983103E+02 -0.40300014580E+02 -0.35017436839E+02  0.54894535860E+02  0.00000000000E+00 0. -1.
</event>
<event>
 7    1  0.6278987E-006  0.8454218E+02  0.7818608E-02  0.1442136E+00
          2   -1    0    0  502    0  0.00000000000E+00  0.00000000000E+00  0.23065419909E+04  0.23065419909E+04  0.00000000000E+00 0. -1.
          1   -1    0    0  501    0 -0.00000000000E+00 -0.00000000000E+00 -0.26998625218E+03  0.26998625218E+03  0.00000000000E+00 0. -1.
         25    2    1    2    0    0 -0.62548163744E+02  0.58231487955E+02  0.46029634342E+02  0.15826256065E+03  0.12500052756E+03 0.  0.
          2    1    1    2  501    0  0.37963682154E+02 -0.75915559238E+02 -0.20533977108E+03  0.22219098741E+03  0.00000000000E+00 0. -1.
          1    1    1    2  502    0  0.24584481590E+02  0.17684071282E+02  0.21958658755E+04  0.21960746951E+04  0.00000000000E+00 0. -1.
         22    1    3    3    0    0 -0.96496004738E+02  0.47446484659E+02  0.56048698325E+02  0.12126048169E+03  0.00000000000E+00 0.  1.
         22    1    3    3    0    0  0.33947840994E+02  0.10785003297E+02 -0.10019063983E+02  0.37002078960E+02  0.00000000000E+00 0.  1.
</event>
<event>
 7    1  0.6278987E-006  0.1099318E+03  0.7818608E-02  0.1368243E+00
          2   -1    0    0  502    0  0.00000000000E+00  0.00000000000E+00  0.12347977400E+04  0.12347977400E+04  0.00000000000E+00 0. -1.
          1   -1    0    0  501    0 -0.00000000000E+00 -0.00000000000E+00 -0.13351831283E+03  0.13351831283E+03  0.00000000000E+00 0. -1.
         25    2    1    2    0    0 -0.76050562783E+02 -0.34467603945E+02  0.92437313803E+01  0.15060637404E+03  0.12500051804E+03 0.  0.
          2    1    1    2  501    0 -0.51894666229E+01 -0.41315686238E+02 -0.52941418933E+02  0.67355106204E+02  0.00000000000E+00 0. -1.
          1    1    1    2  502    0  0.81240029406E+02  0.75783290183E+02  0.11449771147E+04  0.11503545726E+04  0.00000000000E+00 0. -1.
         22    1    3    3    0    0 -0.25610191137E+02 -0.28442056236E+02 -0.56055157796E+02  0.67874981904E+02  0.00000000000E+00 0.  1.
         22    1    3    3    0    0 -0.50440371646E+02 -0.60255477089E+01  0.65298889176E+02  0.82731392135E+02  0.00000000000E+00 0.  1.
</event>
<event>
 7    1  0.6278987E-006  0.7998731E+02  0.7818608E-02  0.1417150E+00
          2   -1    0    0  502    0  0.00000000000E+00  0.00000000000E+00  0.11330089089E+03  0.11330089089E+03  0.00000000000E+00 0. -1.
          1   -1    0    0  501    0 -0.00000000000E+00 -0.00000000000E+00 -0.16711929014E+04  0.16711929014E+04  0.00000000000E+00 0. -1.
         25    2    1    2    0    0  0.48222320274E+02  0.97933272165E+02 -0.89641193048E+02  0.18861924772E+03  0.12500143659E+03 0.  0.
          2    1    1    2  501    0 -0.12960844718E+01 -0.38666133100E+02 -0.15093387736E+04  0.15098345217E+04  0.00000000000E+00 0. -1.
          1    1    1    2  502    0 -0.46926235803E+02 -0.59267139065E+02  0.41087956139E+02  0.86040022776E+02  0.00000000000E+00 0. -1.
         22    1    3    3    0    0 -0.10239949650E+02 -0.80894077643E+01 -0.63408019055E+02  0.64736944377E+02  0.00000000000E+00 0.  1.
         22    1    3    3    0    0  0.58462269924E+02  0.10602267993E+03 -0.26233173993E+02  0.12388230334E+03  0.00000000000E+00 0.  1.
</event>
<event>
 7    1  0.6278987E-006  0.6346801E+02  0.7818608E-02  0.1432951E+00
          2   -1    0    0  502    0  0.00000000000E+00  0.00000000000E+00  0.14593090019E+03  0.14593090019E+03  0.00000000000E+00 0. -1.
          1   -1    0    0  501    0 -0.00000000000E+00 -0.00000000000E+00 -0.14279074914E+04  0.14279074914E+04  0.00000000000E+00 0. -1.
         25    2    1    2    0    0 -0.61079612848E+01 -0.92845872821E+02 -0.18283257071E+03  0.24022791482E+03  0.12499615536E+03 0.  0.
          2    1    1    2  501    0 -0.21029436254E+02  0.59212601395E+02 -0.12115524743E+04  0.12131808469E+04  0.00000000000E+00 0. -1.
          1    1    1    2  502    0  0.27137397539E+02  0.33633271426E+02  0.11240845373E+03  0.12042962992E+03  0.00000000000E+00 0. -1.
         22    1    3    3    0    0  0.39832303471E+02 -0.15917321273E+02 -0.12842896900E+03  0.13540300438E+03  0.00000000000E+00 0.  1.
         22    1    3    3    0    0 -0.45940264756E+02 -0.76928551548E+02 -0.54403601709E+02  0.10482491044E+03  0.00000000000E+00 0.  1.
</event>
<event>
 7    1  0.6278987E-006  0.8356516E+02  0.7818608E-02  0.1388815E+00
          2   -1    0    0  502    0  0.00000000000E+00  0.00000000000E+00  0.51793756064E+02  0.51793756064E+02  0.00000000000E+00 0. -1.
          1   -1    0    0  501    0 -0.00000000000E+00 -0.00000000000E+00 -0.11183968232E+04  0.11183968232E+04  0.00000000000E+00 0. -1.
         25    2    1    2    0    0  0.71654450470E+02  0.50160854190E+02 -0.37186059911E+03  0.40194067505E+03  0.12500211807E+03 0.  0.
          2    1    1    2  501    0 -0.37511886953E+02  0.27140921500E+02 -0.68107345494E+03  0.68264545871E+03  0.00000000000E+00 0. -1.
          1    1    1    2  502    0 -0.34142563517E+02 -0.77301775690E+02 -0.13669013074E+02  0.85604445485E+02  0.00000000000E+00 0. -1.
         22    1    3    3    0    0  0.83675607453E+02  0.31257222621E+02 -0.12266939085E+03  0.15174452445E+03  0.00000000000E+00 0.  1.
         22    1    3    3    0    0 -0.12021156983E+02  0.18903631570E+02 -0.24919120825E+03  0.25019615059E+03  0.00000000000E+00 0.  1.
</event>
<event>
 7    1  0.6278987E-006  0.1969977E+03  0.7818608E-02  0.1224714E+00
          2   -1    0    0  502    0  0.00000000000E+00  0.00000000000E+00  0.12731007177E+04  0.12731007177E+04  0.00000000000E+00 0. -1.
          1   -1    0    0  501    0 -0.00000000000E+00 -0.00000000000E+00 -0.19831269489E+03  0.19831269489E+03  0.00000000000E+00 0. -1.
         25    2    1    2    0    0  0.71902456780E+02 -0.19226177230E+03  0.55464323601E+03  0.60447368360E+03  0.12499905016E+03 0.  0.
          2    1    1    2  501    0  0.16221967327E+02  0.19727682942E+03 -0.11282892225E+03  0.22784131616E+03  0.00000000000E+00 0. -1.
          1    1    1    2  502    0 -0.88124424106E+02 -0.50150571228E+01  0.63297370910E+03  0.63909841287E+03  0.00000000000E+00 0. -1.
         22    1    3    3    0    0  0.93983008972E+02 -0.95554064347E+02  0.38851493833E+03  0.41098326303E+03  0.00000000000E+00 0. -1.
         22    1    3    3    0    0 -0.22080552192E+02 -0.96707707952E+02  0.16612829768E+03  0.19349042057E+03  0.00000000000E+00 0. -1.
</event>
<event>
 7    1  0.6278987E-006  0.8623587E+02  0.7818608E-02  0.1392441E+00
          2   -1    0    0  502    0  0.00000000000E+00  0.00000000000E+00  0.19841619759E+02  0.19841619759E+02  0.00000000000E+00 0. -1.
          1   -1    0    0  501    0 -0.00000000000E+00 -0.00000000000E+00 -0.28451526686E+04  0.28451526686E+04  0.00000000000E+00 0. -1.
         25    2    1    2    0    0 -0.65306208276E+01  0.11111487576E+03 -0.11049342702E+04  0.11175391320E+04  0.12499922174E+03 0.  0.
          2    1    1    2  501    0 -0.23617152738E+02 -0.79645555559E+02 -0.16949810404E+04  0.16970155897E+04  0.00000000000E+00 0. -1.
          1    1    1    2  502    0  0.30147773565E+02 -0.31469320198E+02 -0.25395738260E+02  0.50439566676E+02  0.00000000000E+00 0. -1.
         22    1    3    3    0    0 -0.34332581921E+02 -0.13516659845E+02 -0.34296328597E+03  0.34494237460E+03  0.00000000000E+00 0.  1.
         22    1    3    3    0    0  0.27801961093E+02  0.12463153560E+03 -0.76197098422E+03  0.77259675737E+03  0.00000000000E+00 0.  1.
</event>
<event>
 7    1  0.6278987E-006  0.5619276E+02  0.7818608E-02  0.1435693E+00
          2   -1    0    0  502    0  0.00000000000E+00  0.00000000000E+00  0.66891782117E+03  0.66891782117E+03  0.00000000000E+00 0. -1.
          1   -1    0    0  501    0 -0.00000000000E+00 -0.00000000000E+00 -0.15012638793E+04  0.15012638793E+04  0.00000000000E+00 0. -1.
         25    2    1    2    0    0  0.42528694948E+02  0.42963615226E+02  0.39269834632E+02  0.14429002921E+03  0.12499172169E+03 0.  0.
          2    1    1    2  501    0  0.14002709938E+02 -0.45717081746E+02 -0.14469703392E+04  0.14477600941E+04  0.00000000000E+00 0. -1.
          1    1    1    2  502    0 -0.56531404886E+02  0.27534665208E+01  0.57535444652E+03  0.57813157710E+03  0.00000000000E+00 0. -1.
         22    1    3    3    0    0 -0.32450380850E+02  0.49574043706E+02 -0.30341826558E+00  0.59251203273E+02  0.00000000000E+00 0. -1.
         22    1    3    3    0    0  0.74979075798E+02 -0.66104284807E+01  0.39573252898E+02  0.85038825939E+02  0.00000000000E+00 0. -1.
</event>
<event>
 7    1  0.6278987E-006  0.1243692E+03  0.7818608E-02  0.1370646E+00
          2   -1    0    0  502    0  0.00000000000E+00  0.00000000000E+00  0.29164344580E+04  0.29164344580E+04  0.00000000000E+00 0. -1.
          1   -1    0    0  501    0 -0.00000000000E+00 -0.00000000000E+00 -0.78734947400E+02  0.78734947400E+02  0.00000000000E+00 0. -1.
         25    2    1    2    0    0  0.50735489631E+01  0.11737096656E+03  0.17602339457E+04  0.17685730769E+04  0.12500200014E+03 0.  0.
          2    1    1    2  501    0 -0.41152866490E+02 -0.11773318628E+03 -0.21910514712E+02  0.12662832316E+03  0.00000000000E+00 0. -1.
          1    1    1    2  502    0  0.36079317527E+02  0.36221971741E+00  0.10993760796E+04  0.10999680053E+04  0.00000000000E+00 0. -1.
         22    1    3    3    0    0 -0.36500588880E+02  0.31323929319E+02  0.21179279938E+03  0.21718579928E+03  0.00000000000E+00 0. -1.
         22    1    3    3    0    0  0.41574137843E+02  0.86047037241E+02  0.15484411463E+04  0.15513872776E+04  0.00000000000E+00 0. -1.
</event>
<event>
 7    1  0.6278987E-006  0.1409715E+03  0.7818608E-02  0.1265982E+00
          2   -1    0    0  502    0  0.00000000000E+00  0.00000000000E+00  0.40026741238E+03  0.40026741238E+03  0.00000000000E+00 0. -1.
          1   -1    0    0  501    0 -0.00000000000E+00 -0.00000000000E+00 -0.17795230793E+04  0.17795230793E+04  0.00000000000E+00 0. -1.
         25    2    1    2    0    0  0.18937264308E+03  0.16540596288E+02 -0.80870580903E+03  0.84009871318E+03  0.12500069222E+03 0.  0.
          2    1    1    2  501    0 -0.11739418534E+03 -0.54575777708E+02 -0.94635548774E+03  0.95516941923E+03  0.00000000000E+00 0. -1.
          1    1    1    2  502    0 -0.71978457736E+02  0.38035181420E+02  0.37580562981E+03  0.38452235930E+03  0.00000000000E+00 0. -1.
         22    1    3    3    0    0  0.45011733559E+02 -0.49664202804E+02 -0.28882265346E+03  0.29649808490E+03  0.00000000000E+00 0. -1.
         22    1    3    3    0    0  0.14436090952E+03  0.66204799092E+02 -0.51988315557E+03  0.54360062828E+03  0.00000000000E+00 0. -1.
</event>
<event>
 7    1  0.6278987E-006  0.1710394E+03  0.7818608E-02  0.1281647E+00
          2   -1    0    0  502    0  0.00000000000E+00  0.00000000000E+00  0.13080693331E+04  0.13080693331E+04  0.00000000000E+00 0. -1.
          1   -1    0    0  501    0 -0.00000000000E+00 -0.00000000000E+00 -0.54081689573E+02  0.54081689573E+02  0.00000000000E+00 0. -1.
         25    2    1    2    0    0 -0.92103475257E+02 -0.13250834593E+03  0.39466837155E+03  0.44433175996E+03  0.12500431000E+03 0.  0.
          2    1    1    2  501    0  0.51785016623E+02  0.17381307287E+03  0.26746236373E+03  0.32315443407E+03  0.00000000000E+00 0. -1.
          1    1    1    2  502    0  0.40318458634E+02 -0.41304726940E+02  0.59185690827E+03  0.59466482865E+03  0.00000000000E+00 0. -1.
         22    1    3    3    0    0 -0.59813026040E+02 -0.15406869132E+03  0.31667598883E+03  0.35720924069E+03  0.00000000000E+00 0. -1.
         22    1    3    3    0    0 -0.32290449217E+02  0.21560345388E+02  0.77992382714E+02  0.87122519278E+02  0.00000000000E+00 0. -1.
</event>
<event>
 7    1  0.6278987E-006  0.4415793E+02  0.7818608E-02  0.1485090E+00
          2   -1    0    0  502    0  0.00000000000E+00  0.00000000000E+00  0.16761259462E+04  0.16761259462E+04  0.00000000000E+00 0. -1.
          1   -1    0    0  501    0 -0.00000000000E+00 -0.00000000000E+00 -0.52634813085E+02  0.52634813085E+02  0.00000000000E+00 0. -1.
         25    2    1    2    0    0  0.25141878071E+02  0.16809480742E+02  0.24469582816E+03  0.27643438336E+03  0.12500098923E+03 0.  0.
          2    1    1    2  501    0  0.62981213524E+01 -0.45412306864E+02 -0.22023873694E+02  0.50862510357E+02  0.00000000000E+00 0. -1.
          1    1    1    2  502    0 -0.31439999424E+02  0.28602826123E+02  0.14008191786E+04  0.14014638655E+04  0.00000000000E+00 0. -1.
         22    1    3    3    0    0 -0.11316357197E+02  0.64050465820E+02  0.93585748825E+02  0.11396848027E+03  0.00000000000E+00 0. -1.
         22    1    3    3    0    0  0.36458235269E+02 -0.47240985078E+02  0.15111007933E+03  0.16246590309E+03  0.00000000000E+00 0. -1.
</event>
<event>
 7    1  0.6278987E-006  0.9673714E+02  0.7818608E-02  0.1459210E+00
          2   -1    0    0  502    0  0.00000000000E+00  0.00000000000E+00  0.67117654744E+03  0.67117654744E+03  0.00000000000E+00 0. -1.
          1   -1    0    0  501    0 -0.00000000000E+00 -0.00000000000E+00 -0.73307097593E+03  0.73307097593E+03  0.00000000000E+00 0. -1.
         25    2    1    2    0    0 -0.81278441203E+02 -0.14425390254E+02 -0.20161900883E+03  0.25117688328E+03  0.12500130033E+03 0.  0.
          2    1    1    2  501    0 -0.15671789844E+02  0.17297063189E+02 -0.50276228070E+03  0.50330378926E+03  0.00000000000E+00 0. -1.
          1    1    1    2  502    0  0.96950231047E+02 -0.28716729355E+01  0.64248686105E+03  0.64976685082E+03  0.00000000000E+00 0. -1.
         22    1    3    3    0    0 -0.42251068245E+02  0.24285098188E+02 -0.18845379544E+03  0.19465290077E+03  0.00000000000E+00 0. -1.
         22    1    3    3    0    0 -0.39027372958E+02 -0.38710488442E+02 -0.13165213395E+02  0.56523982513E+02  0.00000000000E+00 0. -1.
</event>
<event>
 7    1  0.6278987E-006  0.1604309E+03  0.7818608E-02  0.1262122E+00
          2   -1    0    0  502    0  0.00000000000E+00  0.00000000000E+00  0.25057002908E+04  0.25057002908E+04  0.00000000000E+00 0. -1.
          1   -1    0    0  501    0 -0.00000000000E+00 -0.00000000000E+00 -0.69759975436E+02  0.69759975436E+02  0.00000000000E+00 0. -1.
         25    2    1    2    0    0  0.11261498832E+03  0.70638322985E+02  0.64375331122E+03  0.66911527891E+03  0.12500008999E+03 0.  0.
          2    1    1    2  501    0 -0.16664804730E+03 -0.19664008067E+02  0.68804560241E+02  0.18136237866E+03  0.00000000000E+00 0. -1.
          1    1    1    2  502    0  0.54033058989E+02 -0.50974314917E+02  0.17233824439E+04  0.17249826087E+04  0.00000000000E+00 0. -1.
         22    1    3    3    0    0  0.73539944507E+01 -0.28050592790E+02  0.47503005936E+02  0.55654762269E+02  0.00000000000E+00 0. -1.
         22    1    3    3    0    0  0.10526099386E+03  0.98688915775E+02  0.59625030529E+03  0.61346051664E+03  0.00000000000E+00 0. -1.
</event>
<event>
 7    1  0.6278987E-006  0.8052026E+02  0.7818608E-02  0.1332484E+00
          2   -1    0    0  502    0  0.00000000000E+00  0.00000000000E+00  0.64264018592E+03  0.64264018592E+03  0.00000000000E+00 0. -1.
          1   -1    0    0  501    0 -0.00000000000E+00 -0.00000000000E+00 -0.53763115697E+03  0.53763115697E+03  0.00000000000E+00 0. -1.
         25    2    1    2    0    0 -0.51921495059E+02  0.74191294616E+02 -0.28518106146E+03  0.32427491754E+03  0.12500317790E+03 0.  0.
          2    1    1    2  501    0  0.77079852693E+02  0.25343646416E+01 -0.22380226092E+03  0.23671750820E+03  0.00000000000E+00 0. -1.
          1    1    1    2  502    0 -0.25158357634E+02 -0.76725659258E+02  0.61399235133E+03  0.61927891716E+03  0.00000000000E+00 0. -1.
         22    1    3    3    0    0  0.25616361663E+02  0.54561879671E+02 -0.19318676340E+03  0.20237174272E+03  0.00000000000E+00 0.  1.
         22    1    3    3    0    0 -0.77537856722E+02  0.19629414945E+02 -0.91994298055E+02  0.12190317482E+03  0.00000000000E+00 0.  1.
</event>
<event>
 7    1  0.8731779E-006  0.7331379E+02  0.7818608E-02  0.1368171E+00
          2   -1    0    0  502    0  0.00000000000E+00  0.00000000000E+00  0.95060692013E+03  0.95060692013E+03  0.00000000000E+00 0. -1.
          1   -1    0    0  501    0 -0.00000000000E+00 -0.00000000000E+00 -0.32523829927E+04  0.32523829927E+04  0.00000000000E+00 0. -1.
         25    2    1    2    0    0  0.11331558857E+03 -0.34153223785E+02 -0.12596456325E+04  0.12713532945E+04  0.12500085827E+03 0.  0.
          2    1    1    2  501    0 -0.68906387535E+02 -0.97908407142E+01 -0.19852401760E+04  0.19864597925E+04  0.00000000000E+00 0. -1.
          1    1    1    2  502    0 -0.44409201040E+02  0.43944064499E+02  0.94310973599E+03  0.94517682581E+03  0.00000000000E+00 0. -1.
         22    1    3    3    0    0  0.65330736843E+02 -0.12923292582E+02 -0.20803927761E+03  0.21843868177E+03  0.00000000000E+00 0.  1.
         22    1    3    3    0    0  0.47984851731E+02 -0.21229931203E+02 -0.10516063549E+04  0.10529146127E+04  0.00000000000E+00 0.  1.
</event>
<event>
 7    1  0.6278987E-006  0.6579794E+02  0.7818608E-02  0.1487687E+00
          2   -1    0    0  502    0  0.00000000000E+00  0.00000000000E+00  0.14383658527E+04  0.14383658527E+04  0.00000000000E+00 0. -1.
          1   -1    0    0  501    0 -0.00000000000E+00 -0.00000000000E+00 -0.11172165610E+03  0.11172165610E+03  0.00000000000E+00 0. -1.
         25    2    1    2    0    0 -0.28777736564E+02  0.28591337618E+02  0.10702405497E+03  0.16948261964E+03  0.12499834922E+03 0.  0.
          2    1    1    2  501    0  0.50812932051E+02 -0.45885055972E+02 -0.65753636757E+02  0.94925935191E+02  0.00000000000E+00 0. -1.
          1    1    1    2  502    0 -0.22035195487E+02  0.17293718354E+02  0.12853737784E+04  0.12856789539E+04  0.00000000000E+00 0. -1.
         22    1    3    3    0    0  0.12672026273E+01  0.34433603771E+02 -0.19306498302E+02  0.39497085308E+02  0.00000000000E+00 0.  1.
         22    1    3    3    0    0 -0.30044939191E+02 -0.58422661536E+01  0.12633055327E+03  0.12998553433E+03  0.00000000000E+00 0.  1.
</event>
<event>
 7    1  0.6278987E-006  0.1026275E+03  0.7818608E-02  0.1386063E+00
          2   -1    0    0  502    0  0.00000000000E+00  0.00000000000E+00  0.12237686386E+04  0.12237686386E+04  0.00000000000E+00 0. -1.
          1   -1    0    0  501    0 -0.00000000000E+00 -0.00000000000E+00 -0.21180704239E+03  0.21180704239E+03  0.00000000000E+00 0. -1.
         25    2    1    2    0    0 -0.77736677162E+02  0.92356472040E+01 -0.11330181468E+03  0.18598573932E+03  0.12500042346E+03 0.  0.
          2    1    1    2  501    0 -0.15124601065E+02  0.35455879920E+02 -0.53715615534E+02  0.66115356238E+02  0.00000000000E+00 0. -1.
          1    1    1    2  502    0  0.92861278227E+02 -0.44691527124E+02  0.11789790265E+04  0.11834745855E+04  0.00000000000E+00 0. -1.
         22    1    3    3    0    0 -0.10651759853E+03  0.86702556229E+01 -0.11519898809E+03  0.15713681614E+03  0.00000000000E+00 0.  1.
         22    1    3    3    0    0  0.28780921364E+02  0.56539158107E+00  0.18971734067E+01  0.28848923189E+02  0.00000000000E+00 0.  1.
</event>
<event>
 7    1  0.6278987E-006  0.5393580E+02  0.7818608E-02  0.1454987E+00
          2   -1    0    0  502    0  0.00000000000E+00  0.00000000000E+00  0.35599155240E+02  0.35599155240E+02  0.00000000000E+00 0. -1.
          1   -1    0    0  501    0 -0.00000000000E+00 -0.00000000000E+00 -0.17902019256E+04  0.17902019256E+04  0.00000000000E+00 0. -1.
         25    2    1    2    0    0  0.31233748074E+02  0.76309137883E+02 -0.32030654252E+03  0.35358013602E+03  0.12499599938E+03 0.  0.
          2    1    1    2  501    0 -0.35366035668E+02 -0.24761220718E+02 -0.14170502538E+04  0.14177077613E+04  0.00000000000E+00 0. -1.
          1    1    1    2  502    0  0.41322875939E+01 -0.51547917166E+02 -0.17245974077E+02  0.54513183605E+02  0.00000000000E+00 0. -1.
         22    1    3    3    0    0  0.62118055720E+02  0.28078052392E+02 -0.26620699353E+03  0.27479663985E+03  0.00000000000E+00 0. -1.
         22    1    3    3    0    0 -0.30884307646E+02  0.48231085491E+02 -0.54099548994E+02  0.78783496163E+02  0.00000000000E+00 0. -1.
</event>
<event>
 7    1  0.6278987E-006  0.1439968E+03  0.7818608E-02  0.1277464E+00
          2   -1    0    0  502    0  0.00000000000E+00  0.00000000000E+00  0.87582077332E+02  0.87582077332E+02  0.00000000000E+00 0. -1.
          1   -1    0    0  501    0 -0.00000000000E+00 -0.00000000000E+00 -0.14005504343E+04  0.14005504343E+04  0.00000000000E+00 0. -1.
         25    2    1    2    0    0  0.33283107676E+02  0.17112794551E+03 -0.27180962981E+03  0.34626331313E+03  0.12500107269E+03 0.  0.
          2    1    1    2  501    0  0.30150761215E+02 -0.13847105960E+03 -0.10589072494E+04  0.10683481949E+04  0.00000000000E+00 0. -1.
          1    1    1    2  502    0 -0.63433868891E+02 -0.32656885903E+02  0.17748522279E+02  0.73521003547E+02  0.00000000000E+00 0. -1.
         22    1    3    3    0    0  0.72468031568E+02  0.14260088981E+03 -0.16953707583E+03  0.23308678525E+03  0.00000000000E+00 0. -1.
         22    1    3    3    0    0 -0.39184923892E+02  0.28527055692E+02 -0.10227255397E+03  0.11317652788E+03  0.00000000000E+00 0. -1.
</event>
<event>
 7    1  0.6278987E-006  0.6730462E+02  0.7818608E-02  0.1494211E+00
          2   -1    0    0  502    0  0.00000000000E+00  0.00000000000E+00  0.12893912872E+03  0.12893912872E+03  0.00000000000E+00 0. -1.
          1   -1    0    0  501    0 -0.00000000000E+00 -0.00000000000E+00 -0.56096289514E+03  0.56096289514E+03  0.00000000000E+00 0. -1.
         25    2    1    2    0    0  0.57520350434E+02  0.24392570199E+02 -0.11931822359E+03  0.18375276600E+03  0.12499860934E+03 0.  0.
          2    1    1    2  501    0 -0.99099337043E+01  0.24219919730E+02 -0.39697594631E+03  0.39783754630E+03  0.00000000000E+00 0. -1.
          1    1    1    2  502    0 -0.47610416729E+02 -0.48612489929E+02  0.84270403480E+02  0.10831171156E+03  0.00000000000E+00 0. -1.
         22    1    3    3    0    0  0.26488507253E+02  0.30518767475E+02  0.16979345794E+02  0.43833028281E+02  0.00000000000E+00 0.  1.
         22    1    3    3    0    0  0.31031843181E+02 -0.61261972754E+01 -0.13629756938E+03  0.13991973772E+03  0.00000000000E+00 0.  1.
</event>
<event>
 7    1  0.6278987E-006  0.9471709E+02  0.7818608E-02  0.1392042E+00
          2   -1    0    0  502    0  0.00000000000E+00  0.00000000000E+00  0.53392291702E+03  0.53392291702E+03  0.00000000000E+00 0. -1.
          1   -1    0    0  501    0 -0.00000000000E+00 -0.00000000000E+00 -0.29469175060E+03  0.29469175060E+03  0.00000000000E+00 0. -1.
         25    2    1    2    0    0 -0.10410741614E+03  0.18128839095E+02  0.26734153328E+03  0.31346973054E+03  0.12499907057E+03 0.  0.
          2    1    1    2  501    0  0.92492588850E+02  0.19943446383E+02 -0.26165254609E+03  0.27823492757E+03  0.00000000000E+00 0. -1.
          1    1    1    2  502    0  0.11614827286E+02 -0.38072285478E+02  0.23354217922E+03  0.23691000952E+03  0.00000000000E+00 0. -1.
         22    1    3    3    0    0 -0.84303748161E+02  0.52423608841E+02  0.97770276860E+02  0.13933550788E+03  0.00000000000E+00 0.  1.
         22    1    3    3    0    0 -0.19803667975E+02 -0.34294769747E+02  0.16957125642E+03  0.17413422266E+03  0.00000000000E+00 0.  1.
</event>
<event>
 7    1  0.6278987E-006  0.1282192E+03  0.7818608E-02  0.1311875E+00
          2   -1    0    0  502    0  0.00000000000E+00  0.00000000000E+00  0.86303148366E+03  0.86303148366E+03  0.00000000000E+00 0. -1.
          1   -1    0    0  501    0 -0.00000000000E+00 -0.00000000000E+00 -0.20868446875E+03  0.20868446875E+03  0.00000000000E+00 0. -1.
         25    2    1    2    0    0 -0.49839276839E+02 -0.71401208815E+02  0.18251226740E+03  0.23773545367E+03  0.12500132816E+03 0.  0.
          2    1    1    2  501    0 -0.53393186651E+02 -0.23127724611E+02 -0.16863616017E+03  0.17839248455E+03  0.00000000000E+00 0. -1.
          1    1    1    2  502    0  0.10323246349E+03  0.94528933426E+02  0.64047090768E+03  0.65558801420E+03  0.00000000000E+00 0. -1.
         22    1    3    3    0    0 -0.44794716741E+00  0.23512337534E+02  0.99700036137E+02  0.10243596965E+03  0.00000000000E+00 0.  1.
         22    1    3    3    0    0 -0.49391329672E+02 -0.94913546349E+02  0.82812231266E+02  0.13529948401E+03  0.00000000000E+00 0.  1.
</event>
<event>
 7    1  0.6278987E-006  0.4797733E+02  0.7818608E-02  0.1510061E+00
          2   -1    0    0  502    0  0.00000000000E+00  0.00000000000E+00  0.36214533344E+02  0.36214533344E+02  0.00000000000E+00 0. -1.
          1   -1    0    0  501    0 -0.00000000000E+00 -0.00000000000E+00 -0.94400815036E+03  0.94400815036E+03  0.00000000000E+00 0. -1.
         25    2    1    2    0    0  0.68068014530E+02 -0.17729812385E+02 -0.62203895001E+03  0.63836147497E+03  0.12500126620E+03 0.  0.
          2    1    1    2  501    0 -0.43994272154E+02 -0.47432897557E+01 -0.30194049130E+03  0.30516561908E+03  0.00000000000E+00 0. -1.
          1    1    1    2  502    0 -0.24073742376E+02  0.22473102141E+02  0.16185824296E+02  0.36695589653E+02  0.00000000000E+00 0. -1.
         22    1    3    3    0    0  0.11912695248E+02 -0.95095210771E+00 -0.52402520676E+03  0.52416145789E+03  0.00000000000E+00 0.  1.
         22    1    3    3    0    0  0.56155319282E+02 -0.16778860277E+02 -0.98013743252E+02  0.11420001708E+03  0.00000000000E+00 0.  1.
</event>
<event>
 7    1  0.6278987E-006  0.6701973E+02  0.7818608E-02  0.1465986E+00
          2   -1    0    0  502    0  0.00000000000E+00  0.00000000000E+00  0.13083348351E+03  0.13083348351E+03  0.00000000000E+00 0. -1.
          1   -1    0    0  501    0 -0.00000000000E+00 -0.00000000000E+00 -0.24086834988E+03  0.24086834988E+03  0.00000000000E+00 0. -1.
         25    2    1    2    0    0  0.58006644777E+02  0.57753541481E+02 -0.48745439772E+02  0.15716688743E+03  0.12500028086E+03 0.  0.
          2    1    1    2  501    0 -0.26019965951E+02 -0.60172883782E+02 -0.12615438719E+03  0.14217153012E+03  0.00000000000E+00 0. -1.
          1    1    1    2  502    0 -0.31986678825E+02  0.24193423007E+01  0.64864960592E+02  0.72363415840E+02  0.00000000000E+00 0. -1.
         22    1    3    3    0    0  0.95688949984E+02  0.32714796038E+02 -0.18659119552E+02  0.10283382601E+03  0.00000000000E+00 0. -1.
         22    1    3    3    0    0 -0.37682305208E+02  0.25038745443E+02 -0.30086320220E+02  0.54333061422E+02  0.00000000000E+00 0. -1.
</event>
<event>
 7    1  0.6278987E-006  0.2943489E+02  0.7818608E-02  0.1619291E+00
          2   -1    0    0  502    0  0.00000000000E+00  0.00000000000E+00  0.34468249630E+03  0.34468249630E+03  0.00000000000E+00 0. -1.
          1   -1    0    0  501    0 -0.00000000000E+00 -0.00000000000E+00 -0.86739141220E+03  0.86739141220E+03  0.00000000000E+00 0. -1.
         25    2    1    2    0    0  0.23422415551E+00  0.76696550502E+01 -0.53239789152E+03  0.54692902221E+03  0.12499984786E+03 0.  0.
          2    1    1    2  501    0 -0.22709918382E+02 -0.22544552575E+02 -0.32640606193E+03  0.32797090497E+03  0.00000000000E+00 0. -1.
          1    1    1    2  502    0  0.22475694226E+02  0.14874897525E+02  0.33609503756E+03  0.33717398132E+03  0.00000000000E+00 0. -1.
         22    1    3    3    0    0  0.33792815959E+02  0.50160341491E+02 -0.38853852817E+03  0.39321775411E+03  0.00000000000E+00 0. -1.
         22    1    3    3    0    0 -0.33558591803E+02 -0.42490686441E+02 -0.14385936335E+03  0.15371126810E+03  0.00000000000E+00 0. -1.
</event>
<event>
 7    1  0.6278987E-006  0.5437025E+02  0.7818608E-02  0.1435784E+00
          2   -1    0    0  502    0  0.00000000000E+00  0.00000000000E+00  0.97030756049E+03  0.97030756049E+03  0.00000000000E+00 0. -1.
          1   -1    0    0  501    0 -0.00000000000E+00 -0.00000000000E+00 -0.48465983907E+02  0.48465983907E+02  0.00000000000E+00 0. -1.
         25    2    1    2    0    0 -0.96231903616E+01 -0.37216105097E+02  0.84626220123E+02  0.15577288170E+03  0.12500379702E+03 0.  0.
          2    1    1    2  501    0  0.62443784925E+02  0.24327765596E+02  0.82316903848E+02  0.10614678099E+03  0.00000000000E+00 0. -1.
          1    1    1    2  502    0 -0.52820594563E+02  0.12888339501E+02  0.75489845262E+03  0.75685388171E+03  0.00000000000E+00 0. -1.
         22    1    3    3    0    0 -0.54698168459E+02 -0.21843220752E+02  0.26700051462E+00  0.58898957673E+02  0.00000000000E+00 0.  1.
         22    1    3    3    0    0  0.45074978098E+02 -0.15372884345E+02  0.84359219608E+02  0.96873924028E+02  0.00000000000E+00 0.  1.
</event>
<event>
 7    1  0.6278987E-006  0.2130950E+03  0.7818608E-02  0.1160920E+00
          2   -1    0    0  502    0  0.00000000000E+00  0.00000000000E+00  0.10490977248E+04  0.10490977248E+04  0.00000000000E+00 0. -1.
          1   -1    0    0  501    0 -0.00000000000E+00 -0.00000000000E+00 -0.10639080004E+04  0.10639080004E+04  0.00000000000E+00 0. -1.
         25    2    1    2    0    0 -0.15127708606E+03 -0.14462508052E+03 -0.14929705961E+03  0.28584971549E+03  0.12497710653E+03 0.  0.
          2    1    1    2  501    0  0.14806281093E+03 -0.71965811975E+02 -0.82615357073E+03  0.84239622299E+03  0.00000000000E+00 0. -1.
          1    1    1    2  502    0  0.32142751225E+01  0.21659089250E+03  0.96064035474E+03  0.98475978667E+03  0.00000000000E+00 0. -1.
         22    1    3    3    0    0 -0.16823902154E+03 -0.14948109508E+03 -0.14490301135E+03  0.26766742210E+03  0.00000000000E+00 0. -1.
         22    1    3    3    0    0  0.16961935485E+02  0.48560145606E+01 -0.43940482590E+01  0.18182293389E+02  0.00000000000E+00 0. -1.
</event>
<event>
 7    1  0.6278987E-006  0.3259155E+02  0.7818608E-02  0.1595319E+00
          2   -1    0    0  502    0  0.00000000000E+00  0.00000000000E+00  0.17369209947E+03  0.17369209947E+03  0.00000000000E+00 0. -1.
          1   -1    0    0  501    0 -0.00000000000E+00 -0.00000000000E+00 -0.40108945666E+03  0.40108945666E+03  0.00000000000E+00 0. -1.
         25    2    1    2    0    0 -0.10160224900E+02 -0.90513891152E+01 -0.12171827733E+03  0.17498683613E+03  0.12497958220E+03 0.  0.
          2    1    1    2  501    0 -0.21483092850E+02  0.18082836876E+02 -0.25010039823E+03  0.25167185274E+03  0.00000000000E+00 0. -1.
          1    1    1    2  502    0  0.31643317750E+02 -0.90314477609E+01  0.14442131837E+03  0.14812286726E+03  0.00000000000E+00 0. -1.
         22    1    3    3    0    0  0.47455374170E+02  0.21777434574E+02 -0.85752179009E+02  0.10039773602E+03  0.00000000000E+00 0. -1.
         22    1    3    3    0    0 -0.57615599069E+02 -0.30828823689E+02 -0.35966098322E+02  0.74589100106E+02  0.00000000000E+00 0. -1.
</event>
<event>
 7    1  0.6278987E-006  0.7132676E+02  0.7818608E-02  0.1469639E+00
          2   -1    0    0  502    0  0.00000000000E+00  0.00000000000E+00  0.17561138456E+04  0.17561138456E+04  0.00000000000E+00 0. -1.
          1   -1    0    0  501    0 -0.00000000000E+00 -0.00000000000E+00 -0.42226740207E+02  0.42226740207E+02  0.00000000000E+00 0. -1.
         25    2    1    2    0    0 -0.97140480221E+02  0.24156121190E+01  0.10013884868E+04  0.10138298636E+04  0.12501992911E+03 0.  0.
          2    1    1    2  501    0  0.69938822992E+02  0.86341732681E+01 -0.93228418322E+00  0.70475932511E+02  0.00000000000E+00 0. -1.
          1    1    1    2  502    0  0.27201657229E+02 -0.11049785387E+02  0.71343090281E+03  0.71403478977E+03  0.00000000000E+00 0. -1.
         22    1    3    3    0    0 -0.10330027444E+03  0.35387857954E+02  0.90910999607E+03  0.91564416240E+03  0.00000000000E+00 0.  1.
         22    1    3    3    0    0  0.61597942211E+01 -0.32972245835E+02  0.92278490722E+02  0.98185701150E+02  0.00000000000E+00 0.  1.
</event>
<event>
 7    1  0.6278987E-006  0.6696208E+02  0.7818608E-02  0.1490178E+00
          2   -1    0    0  502    0  0.00000000000E+00  0.00000000000E+00  0.12479120932E+02  0.12479120932E+02  0.00000000000E+00 0. -1.
          1   -1    0    0  501    0 -0.00000000000E+00 -0.00000000000E+00 -0.28824468988E+04  0.28824468988E+04  0.00000000000E+00 0. -1.
         25    2    1    2    0    0 -0.71103203071E+02 -0.54381410865E+02 -0.13699302759E+04  0.13785310044E+04  0.12500306353E+03 0.  0.
          2    1    1    2  501    0  0.53879615920E+02  0.33523715067E+02 -0.14831489284E+04  0.14845058424E+04  0.00000000000E+00 0. -1.
          1    1    1    2  502    0  0.17223587151E+02  0.20857695798E+02 -0.16888573506E+02  0.31889172824E+02  0.00000000000E+00 0. -1.
         22    1    3    3    0    0 -0.25389347061E+02 -0.84021347528E+02 -0.10774777982E+04  0.10810469978E+04  0.00000000000E+00 0. -1.
         22    1    3    3    0    0 -0.45713856010E+02  0.29639936663E+02 -0.29245247774E+03  0.29748400665E+03  0.00000000000E+00 0. -1.
</event>
<event>
 7    1  0.6278987E-006  0.8125415E+02  0.7818608E-02  0.1416560E+00
          2   -1    0    0  502    0  0.00000000000E+00  0.00000000000E+00  0.87300719238E+03  0.87300719238E+03  0.00000000000E+00 0. -1.
          1   -1    0    0  501    0 -0.00000000000E+00 -0.00000000000E+00 -0.45931685766E+03  0.45931685766E+03  0.00000000000E+00 0. -1.
         25    2    1    2    0    0  0.80169131373E+02  0.69844655928E+02 -0.10103692540E+03  0.19271812390E+03  0.12500579746E+03 0.  0.
          2    1    1    2  501    0 -0.71964416201E+02 -0.32476304378E+02 -0.30699930461E+03  0.31698921208E+03  0.00000000000E+00 0. -1.
          1    1    1    2  502    0 -0.82047151716E+01 -0.37368351550E+02  0.82172656474E+03  0.82261671406E+03  0.00000000000E+00 0. -1.
         22    1    3    3    0    0 -0.15752327087E+02 -0.18518272884E+02 -0.44216662385E+02  0.50459642009E+02  0.00000000000E+00 0. -1.
         22    1    3    3    0    0  0.95921458459E+02  0.88362928813E+02 -0.56820263017E+02  0.14225848189E+03  0.00000000000E+00 0. -1.
</event>
<event>
 7    1  0.6278987E-006  0.1980036E+03  0.7818608E-02  0.1199026E+00
          2   -1    0    0  502    0  0.00000000000E+00  0.00000000000E+00  0.25245184369E+03  0.25245184369E+03  0.00000000000E+00 0. -1.
          1   -1    0    0  501    0 -0.00000000000E+00 -0.00000000000E+00 -0.35276514469E+03  0.35276514469E+03  0.00000000000E+00 0. -1.
         25    2    1    2    0    0  0.47201626895E+02 -0.30748755579E+02 -0.58972604068E+02  0.14924086885E+03  0.12498635667E+03 0.  0.
          2    1    1    2  501    0 -0.12368152706E+03  0.21338565170E+03 -0.68856386421E+02  0.25606983118E+03  0.00000000000E+00 0. -1.
          1    1    1    2  502    0  0.76479900164E+02 -0.18263689612E+03  0.27515689493E+02  0.19990628835E+03  0.00000000000E+00 0. -1.
         22    1    3    3    0    0  0.82497292982E+02  0.87495481046E+01 -0.45351325660E+02  0.94546817400E+02  0.00000000000E+00 0.  1.
         22    1    3    3    0    0 -0.35295666087E+02 -0.39498303683E+02 -0.13621278408E+02  0.54694051448E+02  0.00000000000E+00 0.  1.
</event>
<event>
 7    1  0.6278987E-006  0.3670532E+02  0.7818608E-02  0.1541828E+00
          2   -1    0    0  502    0  0.00000000000E+00  0.00000000000E+00  0.90732857969E+03  0.90732857969E+03  0.00000000000E+00 0. -1.
          1   -1    0    0  501    0 -0.00000000000E+00 -0.00000000000E+00 -0.85955051979E+02  0.85955051979E+02  0.00000000000E+00 0. -1.
         25    2    1    2    0    0 -0.68108360844E+01  0.65653362950E+02  0.18717339460E+03  0.23455367997E+03  0.12499919034E+03 0.  0.
          2    1    1    2  501    0 -0.94631945314E+01 -0.34816822971E+02 -0.56561303831E+02  0.67089077379E+02  0.00000000000E+00 0. -1.
          1    1    1    2  502    0  0.16274030616E+02 -0.30836539979E+02  0.69076143694E+03  0.69164087433E+03  0.00000000000E+00 0. -1.
         22    1    3    3    0    0 -0.62121789363E+02  0.43960321529E+02  0.71050505063E+02  0.10411436429E+03  0.00000000000E+00 0. -1.
         22    1    3    3    0    0  0.55310953278E+02  0.21693041421E+02  0.11612288954E+03  0.13043931567E+03  0.00000000000E+00 0. -1.
</event>
<event>
 7    1  0.6278988E-006  0.7909218E+02  0.7818608E-02  0.1370038E+00
          2   -1    0    0  502    0  0.00000000000E+00  0.00000000000E+00  0.15375611028E+04  0.15375611028E+04  0.00000000000E+00 0. -1.
          1   -1    0    0  501    0 -0.00000000000E+00 -0.00000000000E+00 -0.57150889470E+03  0.57150889470E+03  0.00000000000E+00 0. -1.
         25    2    1    2    0    0 -0.50335585353E+02 -0.11121996565E+03 -0.21894680750E+03  0.28011839244E+03  0.12500022943E+03 0.  0.
          2    1    1    2  501    0 -0.66977041684E+01  0.56627645409E+02 -0.31840768064E+03  0.32347333825E+03  0.00000000000E+00 0. -1.
          1    1    1    2  502    0  0.57033289522E+02  0.54592320242E+02  0.15034066963E+04  0.15054782669E+04  0.00000000000E+00 0. -1.
         22    1    3    3    0    0 -0.21493559726E+02 -0.73253531190E+02 -0.24900071164E+02  0.80299853583E+02  0.00000000000E+00 0. -1.
         22    1    3    3    0    0 -0.28842025627E+02 -0.37966434461E+02 -0.19404673634E+03  0.19981853886E+03  0.00000000000E+00 0. -1.
</event>
<event>
 7    1  0.6278987E-006  0.1808893E+03  0.7818608E-02  0.1235531E+00
          2   -1    0    0  502    0  0.00000000000E+00  0.00000000000E+00  0.32444455251E+03  0.32444455251E+03  0.00000000000E+00 0. -1.
          1   -1    0    0  501    0 -0.00000000000E+00 -0.00000000000E+00 -0.61861707257E+03  0.61861707257E+03  0.00000000000E+00 0. -1.
         25    2    1    2    0    0  0.69680408613E+02 -0.13405320525E+03 -0.39832968042E+03  0.44397941343E+03  0.12500225625E+03 0.  0.
          2    1    1    2  501    0  0.81115325615E+02  0.28484384915E+02 -0.15733866061E+03  0.17929447943E+03  0.00000000000E+00 0. -1.
          1    1    1    2  502    0 -0.15079573423E+03  0.10556882033E+03  0.26149582097E+03  0.31978773221E+03  0.00000000000E+00 0. -1.
         22    1    3    3    0    0  0.65753601442E+02 -0.24640541771E+02 -0.75576447131E+02  0.10316245326E+03  0.00000000000E+00 0. -1.
         22    1    3    3    0    0  0.39268071716E+01 -0.10941266348E+03 -0.32275323329E+03  0.34081696017E+03  0.00000000000E+00 0. -1.
</event>
<event>
 7    1  0.6278987E-006  0.2028067E+03  0.7818608E-02  0.1224274E+00
          2   -1    0    0  502    0  0.00000000000E+00  0.00000000000E+00  0.16117382849E+04  0.16117382849E+04  0.00000000000E+00 0. -1.
          1   -1    0    0  501    0 -0.00000000000E+00 -0.00000000000E+00 -0.39888259436E+03  0.39888259436E+03  0.00000000000E+00 0. -1.
         25    2    1    2    0    0 -0.16326493744E+03  0.13000974161E+03 -0.12277131770E+03  0.27250034376E+03  0.12500267272E+03 0.  0.
          2    1    1    2  501    0  0.19949245108E+03 -0.51866308539E+02 -0.14688671202E+03  0.25310681178E+03  0.00000000000E+00 0. -1.
          1    1    1    2  502    0 -0.36227513644E+02 -0.78143433073E+02  0.14825137202E+04  0.14850137237E+04  0.00000000000E+00 0. -1.
         22    1    3    3    0    0 -0.64249111269E+02  0.11085034873E+03 -0.22127084348E+02  0.13002059827E+03  0.00000000000E+00 0.  1.
         22    1    3    3    0    0 -0.99015826167E+02  0.19159392882E+02 -0.10064423335E+03  0.14247974549E+03  0.00000000000E+00 0.  1.
</event>
<event>
 7    1  0.6278987E-006  0.6723146E+02  0.7818608E-02  0.1412935E+00
          2   -1    0    0  502    0  0.00000000000E+00  0.00000000000E+00  0.22934993594E+03  0.22934993594E+03  0.00000000000E+00 0. -1.
          1   -1    0    0  501    0 -0.00000000000E+00 -0.00000000000E+00 -0.31753248971E+03  0.31753248971E+03  0.00000000000E+00 0. -1.
         25    2    1    2    0    0 -0.10403181222E+03 -0.42886422220E+02 -0.73679869569E+02  0.18361923452E+03  0.12500174776E+03 0.  0.
          2    1    1    2  501    0  0.44764922989E+02  0.16050738834E+02 -0.17961057545E+03  0.18579957847E+03  0.00000000000E+00 0. -1.
          1    1    1    2  502    0  0.59266889227E+02  0.26835683386E+02  0.16510789125E+03  0.17746361265E+03  0.00000000000E+00 0. -1.
         22    1    3    3    0    0 -0.23822741093E+02  0.24329928702E+02  0.23044678843E+02  0.41116002320E+02  0.00000000000E+00 0.  1.
         22    1    3    3    0    0 -0.80209071123E+02 -0.67216350922E+02 -0.96724548412E+02  0.14250323220E+03  0.00000000000E+00 0.  1.
</event>
<event>
 7    1  0.6278987E-006  0.4570545E+02  0.7818608E-02  0.1494209E+00
          2   -1    0    0  502    0  0.00000000000E+00  0.00000000000E+00  0.94733253375E+03  0.94733253375E+03  0.00000000000E+00 0. -1.
          1   -1    0    0  501    0 -0.00000000000E+00 -0.00000000000E+00 -0.18381454932E+03  0.18381454932E+03  0.00000000000E+00 0. -1.
         25    2    1    2    0    0  0.14988699247E+02 -0.12031513478E+02  0.55483286896E+02  0.13810505642E+03  0.12500077225E+03 0.  0.
          2    1    1    2  501    0  0.10757505397E+01  0.47059615156E+02 -0.13816595097E+03  0.14596436080E+03  0.00000000000E+00 0. -1.
          1    1    1    2  502    0 -0.16064449787E+02 -0.35028101679E+02  0.84620064850E+03  0.84707766585E+03  0.00000000000E+00 0. -1.
         22    1    3    3    0    0 -0.27723635272E+02  0.45329126361E+02  0.12223789120E+02  0.54522937098E+02  0.00000000000E+00 0.  1.
         22    1    3    3    0    0  0.42712334520E+02 -0.57360639839E+02  0.43259497776E+02  0.83582119324E+02  0.00000000000E+00 0.  1.
</event>
<event>
 7    1  0.6278987E-006  0.9482444E+02  0.7818608E-02  0.1410817E+00
          2   -1    0    0  502    0  0.00000000000E+00  0.00000000000E+00  0.14025177229E+04  0.14025177229E+04  0.00000000000E+00 0. -1.
          1   -1    0    0  501    0 -0.00000000000E+00 -0.00000000000E+00 -0.24699104860E+03  0.24699104860E+03  0.00000000000E+00 0. -1.
         25    2    1    2    0    0 -0.14622938348E+02 -0.59879258818E+02  0.19981357699E+02  0.14078685315E+03  0.12498930914E+03 0.  0.
          2    1    1    2  501    0 -0.43786184081E+01 -0.33996976891E+02 -0.18326248597E+03  0.18644062192E+03  0.00000000000E+00 0. -1.
          1    1    1    2  502    0  0.19001556756E+02  0.93876235710E+02  0.13188078026E+04  0.13222812964E+04  0.00000000000E+00 0. -1.
         22    1    3    3    0    0 -0.99881736718E+00 -0.18488288767E+02 -0.52803122670E+02  0.55955198341E+02  0.00000000000E+00 0.  1.
         22    1    3    3    0    0 -0.13624120981E+02 -0.41390970052E+02  0.72784480369E+02  0.84831654804E+02  0.00000000000E+00 0.  1.
</event>
<event>
 7    1  0.6278987E-006  0.6443349E+02  0.7818608E-02  0.1446132E+00
          2   -1    0    0  502    0  0.00000000000E+00  0.00000000000E+00  0.82914880959E+02  0.82914880959E+02  0.00000000000E+00 0. -1.
          1   -1    0    0  501    0 -0.00000000000E+00 -0.00000000000E+00 -0.11130191243E+04  0.11130191243E+04  0.00000000000E+00 0. -1.
         25    2    1    2    0    0  0.55562254274E+01 -0.98953704802E+02 -0.24894620205E+03  0.29567408896E+03  0.12500499203E+03 0.  0.
          2    1    1    2  501    0 -0.11449752762E+02  0.36834479305E+02 -0.82378749248E+03  0.82469006813E+03  0.00000000000E+00 0. -1.
          1    1    1    2  502    0  0.58935273349E+01  0.62119225496E+02  0.42629451203E+02  0.75569848158E+02  0.00000000000E+00 0. -1.
         22    1    3    3    0    0 -0.19213501260E+02 -0.10826723730E+03 -0.24548395144E+03  0.26898573144E+03  0.00000000000E+00 0.  1.
         22    1    3    3    0    0  0.24769726688E+02  0.93135324984E+01 -0.34622506084E+01  0.26688357519E+02  0.00000000000E+00 0.  1.
</event>
<event>
 7    1  0.6278987E-006  0.1134132E+03  0.7818608E-02  0.1428925E+00
          2   -1    0    0  502    0  0.00000000000E+00  0.00000000000E+00  0.14306474015E+04  0.14306474015E+04  0.00000000000E+00 0. -1.
          1   -1    0    0  501    0 -0.00000000000E+00 -0.00000000000E+00 -0.52908893371E+03  0.52908893371E+03  0.00000000000E+00 0. -1.
         25    2    1    2    0    0  0.17743979207E+02 -0.87782900585E+02  0.52960993644E+02  0.16263595370E+03  0.12499960062E+03 0.  0.
          2    1    1    2  501    0  0.48552947954E+01 -0.24455670183E+02 -0.47144414133E+03  0.47210298886E+03  0.00000000000E+00 0. -1.
          1    1    1    2  502    0 -0.22599274003E+02  0.11223857077E+03  0.13200416155E+04  0.13249973926E+04  0.00000000000E+00 0. -1.
         22    1    3    3    0    0  0.19721735304E+02 -0.71974730050E+00  0.71008543259E+02  0.73699919235E+02  0.00000000000E+00 0. -1.
         22    1    3    3    0    0 -0.19777560967E+01 -0.87063153285E+02 -0.18047549615E+02  0.88936034464E+02  0.00000000000E+00 0. -1.
</event>
<event>
 7    1  0.6278987E-006  0.4463067E+02  0.7818608E-02  0.1526966E+00
          2   -1    0    0  502    0  0.00000000000E+00  0.00000000000E+00  0.67069527082E+03  0.67069527082E+03  0.00000000000E+00 0. -1.
          1   -1    0    0  501    0 -0.00000000000E+00 -0.00000000000E+00 -0.11959659410E+04  0.11959659410E+04  0.00000000000E+00 0. -1.
         25    2    1    2    0    0  0.16821003140E+02  0.21722198050E+02  0.82276748903E+02  0.15215933194E+03  0.12501279476E+03 0.  0.
          2    1    1    2  501    0 -0.21323983624E+02  0.23335974978E+02 -0.11598827481E+04  0.11603134358E+04  0.00000000000E+00 0. -1.
          1    1    1    2  502    0  0.45029804841E+01 -0.45058173028E+02  0.55233532904E+03  0.55418844403E+03  0.00000000000E+00 0. -1.
         22    1    3    3    0    0 -0.89339660134E+01  0.69639601424E+02  0.63334320157E+02  0.94555412034E+02  0.00000000000E+00 0.  1.
         22    1    3    3    0    0  0.25754969153E+02 -0.47917403374E+02  0.18942428746E+02  0.57603919910E+02  0.00000000000E+00 0.  1.
</event>
<event>
 7    1  0.6278987E-006  0.9461016E+02  0.7818608E-02  0.1361449E+00
          2   -1    0    0  502    0  0.00000000000E+00  0.00000000000E+00  0.75644736392E+03  0.75644736392E+03  0.00000000000E+00 0. -1.
          1   -1    0    0  501    0 -0.00000000000E+00 -0.00000000000E+00 -0.13659705876E+03  0.13659705876E+03  0.00000000000E+00 0. -1.
         25    2    1    2    0    0  0.85040107607E+02 -0.56723590945E+02  0.12431863935E+02  0.16195304003E+03  0.12499940105E+03 0.  0.
          2    1    1    2  501    0 -0.42752279462E+02 -0.28181988408E+02 -0.47197521943E+02  0.69638982958E+02  0.00000000000E+00 0. -1.
          1    1    1    2  502    0 -0.42287828144E+02  0.84905579353E+02  0.65461596317E+03  0.66145239969E+03  0.00000000000E+00 0. -1.
         22    1    3    3    0    0  0.81767990710E+02 -0.25980966040E+02 -0.44886263259E+02  0.96828671015E+02  0.00000000000E+00 0. -1.
         22    1    3    3    0    0  0.32721168964E+01 -0.30742624905E+02  0.57318127193E+02  0.65124369018E+02  0.00000000000E+00 0. -1.
</event>
<event>
 7    1  0.6278987E-006  0.1111436E+03  0.7818608E-02  0.1436976E+00
          2   -1    0    0  502    0  0.00000000000E+00  0.00000000000E+00  0.71760630247E+02  0.71760630247E+02  0.00000000000E+00 0. -1.
          1   -1    0    0  501    0 -0.00000000000E+00 -0.00000000000E+00 -0.13148937218E+04  0.13148937218E+04  0.00000000000E+00 0. -1.
         25    2    1    2    0    0 -0.99326804905E+02 -0.11472530100E+02 -0.65554038140E+03  0.67480165843E+03  0.12500661363E+03 0.  0.
          2    1    1    2  501    0 -0.74537644545E+01 -0.22752083727E+02 -0.59869467226E+03  0.59917320243E+03  0.00000000000E+00 0. -1.
          1    1    1    2  502    0  0.10678056936E+03  0.34224613828E+02  0.11101962056E+02  0.11267949124E+03  0.00000000000E+00 0. -1.
         22    1    3    3    0    0  0.23194428687E+02 -0.89299118735E+01 -0.24780139337E+03  0.24904468556E+03  0.00000000000E+00 0.  1.
         22    1    3    3    0    0 -0.12252123359E+03 -0.25426182267E+01 -0.40773898803E+03  0.42575697287E+03  0.00000000000E+00 0.  1.
</event>
<event>
 7    1  0.6278987E-006  0.6190649E+02  0.7818608E-02  0.1524580E+00
          2   -1    0    0  502    0  0.00000000000E+00  0.00000000000E+00  0.13338370084E+04  0.13338370084E+04  0.00000000000E+00 0. -1.
          1   -1    0    0  501    0 -0.00000000000E+00 -0.00000000000E+00 -0.64239404190E+02  0.64239404190E+02  0.00000000000E+00 0. -1.
         25    2    1    2    0    0  0.34763795081E+02  0.20491017682E+02  0.37824732037E+03  0.40040427786E+03  0.12499658839E+03 0.  0.
          2    1    1    2  501    0 -0.57155059954E+02 -0.26382786377E+02 -0.34329640046E+02  0.71702695076E+02  0.00000000000E+00 0. -1.
          1    1    1    2  502    0  0.22391264873E+02  0.58917686949E+01  0.92567992389E+03  0.92596943966E+03  0.00000000000E+00 0. -1.
         22    1    3    3    0    0  0.20262775219E+02 -0.45139426815E+02  0.25749809022E+03  0.26220872293E+03  0.00000000000E+00 0.  1.
         22    1    3    3    0    0  0.14501019862E+02  0.65630444497E+02  0.12074923015E+03  0.13819555493E+03  0.00000000000E+00 0.  1.
</event>
<event>
 7    1  0.6278987E-006  0.9290000E+02  0.7818608E-02  0.1315596E+00
          2   -1    0    0  502    0  0.00000000000E+00  0.00000000000E+00  0.27886680384E+04  0.27886680384E+04  0.00000000000E+00 0. -1.
          1   -1    0    0  501    0 -0.00000000000E+00 -0.00000000000E+00 -0.39999854724E+02  0.39999854724E+02  0.00000000000E+00 0. -1.
         25    2    1    2    0    0 -0.17433181103E+02 -0.37606021030E+02  0.47747620825E+03  0.49530573418E+03  0.12500444892E+03 0.  0.
          2    1    1    2  501    0 -0.77576312399E+02  0.35578872976E+01  0.20378611291E+02  0.80287175847E+02  0.00000000000E+00 0. -1.
          1    1    1    2  502    0  0.95009493501E+02  0.34048133732E+02  0.22508133642E+04  0.22530749831E+04  0.00000000000E+00 0. -1.
         22    1    3    3    0    0  0.37185650271E+02  0.23923894035E+02  0.23847504137E+03  0.24253962696E+03  0.00000000000E+00 0. -1.
         22    1    3    3    0    0 -0.54618831374E+02 -0.61529915064E+02  0.23900116688E+03  0.25276610722E+03  0.00000000000E+00 0. -1.
</event>
<event>
 7    1  0.6278987E-006  0.1871070E+03  0.7818608E-02  0.1298978E+00
          2   -1    0    0  502    0  0.00000000000E+00  0.00000000000E+00  0.63502729657E+03  0.63502729657E+03  0.00000000000E+00 0. -1.
          1   -1    0    0  501    0 -0.00000000000E+00 -0.00000000000E+00 -0.38266880363E+03  0.38266880363E+03  0.00000000000E+00 0. -1.
         25    2    1    2    0    0  0.15391067176E+03 -0.11996028629E+03 -0.11709921996E+01  0.23174425517E+03  0.12500025364E+03 0.  0.
          2    1    1    2  501    0 -0.36953156752E+02 -0.25438009901E+02 -0.24737981601E+03  0.25141479970E+03  0.00000000000E+00 0. -1.
          1    1    1    2  502    0 -0.11695751501E+03  0.14539829619E+03  0.50090930115E+03  0.53453704533E+03  0.00000000000E+00 0. -1.
         22    1    3    3    0    0  0.48822494733E+02 -0.11158137692E+03 -0.23354131089E+02  0.12401393110E+03  0.00000000000E+00 0. -1.
         22    1    3    3    0    0  0.10508817703E+03 -0.83789093754E+01  0.22183138890E+02  0.10773032407E+03  0.00000000000E+00 0. -1.
</event>
<event>
 7    1  0.6278987E-006  0.7980318E+02  0.7818608E-02  0.1408193E+00
          2   -1    0    0  502    0  0.00000000000E+00  0.00000000000E+00  0.25885770297E+04  0.25885770297E+04  0.00000000000E+00 0. -1.
          1   -1    0    0  501    0 -0.00000000000E+00 -0.00000000000E+00 -0.10616266082E+03  0.10616266082E+03  0.00000000000E+00 0. -1.
         25    2    1    2    0    0 -0.41460259259E+02  0.17350430549E+02  0.11226535611E+03  0.17389357361E+03  0.12496189108E+03 0.  0.
          2    1    1    2  501    0 -0.39092879800E+02 -0.14143509779E+02 -0.68897123749E+02  0.80468041984E+02  0.00000000000E+00 0. -1.
          1    1    1    2  502    0  0.80553139060E+02 -0.32069207697E+01  0.24390461366E+04  0.24403780750E+04  0.00000000000E+00 0. -1.
         22    1    3    3    0    0 -0.30584820327E+02  0.66639677306E+02  0.96131330411E+02  0.12090289704E+03  0.00000000000E+00 0. -1.
         22    1    3    3    0    0 -0.10875438932E+02 -0.49289246757E+02  0.16134025696E+02  0.52990676567E+02  0.00000000000E+00 0. -1.
</event>
<event>
 7    1  0.6278987E-006  0.5739134E+02  0.7818608E-02  0.1414081E+00
          2   -1    0    0  502    0  0.00000000000E+00  0.00000000000E+00  0.16279805497E+03  0.16279805497E+03  0.00000000000E+00 0. -1.
          1   -1    0    0  501    0 -0.00000000000E+00 -0.00000000000E+00 -0.54079983053E+03  0.54079983053E+03  0.00000000000E+00 0. -1.
         25    2    1    2    0    0 -0.96849501836E+02  0.87873119229E+01 -0.14139886344E+03  0.21231362624E+03  0.12500557768E+03 0.  0.
          2    1    1    2  501    0  0.50234659924E+02  0.22918869974E+02 -0.35546631465E+03  0.35972919886E+03  0.00000000000E+00 0. -1.
          1    1    1    2  502    0  0.46614841912E+02 -0.31706181897E+02  0.11886340253E+03  0.13155506040E+03  0.00000000000E+00 0. -1.
         22    1    3    3    0    0 -0.54642312344E+02  0.54920479750E+02 -0.27184816850E+02  0.82103932071E+02  0.00000000000E+00 0.  1.
         22    1    3    3    0    0 -0.42207189492E+02 -0.46133167827E+02 -0.11421404659E+03  0.13020969417E+03  0.00000000000E+00 0.  1.
</event>
<event>
 7    1  0.6278987E-006  0.5611820E+02  0.7818608E-02  0.1451391E+00
          2   -1    0    0  502    0  0.00000000000E+00  0.00000000000E+00  0.35617966905E+03  0.35617966905E+03  0.00000000000E+00 0. -1.
          1   -1    0    0  501    0 -0.00000000000E+00 -0.00000000000E+00 -0.11685950308E+03  0.11685950308E+03  0.00000000000E+00 0. -1.
         25    2    1    2    0    0 -0.11699263619E+02 -0.40137105159E+01 -0.32279112066E+02  0.12968963730E+03  0.12499791320E+03 0.  0.
          2    1    1    2  501    0  0.57091611351E+02 -0.28983067483E+02 -0.19960269676E+01  0.64058211114E+02  0.00000000000E+00 0. -1.
          1    1    1    2  502    0 -0.45392347732E+02  0.32996777999E+02  0.27359530499E+03  0.27929132372E+03  0.00000000000E+00 0. -1.
         22    1    3    3    0    0  0.48720479533E+02 -0.23547999793E+02 -0.37713654486E+02  0.65958419894E+02  0.00000000000E+00 0. -1.
         22    1    3    3    0    0 -0.60419743152E+02  0.19534289277E+02  0.54345424205E+01  0.63731217401E+02  0.00000000000E+00 0. -1.
</event>
<event>
 7    1  0.6278987E-006  0.1497291E+03  0.7818608E-02  0.1360560E+00
          2   -1    0    0  502    0  0.00000000000E+00  0.00000000000E+00  0.23598779890E+04  0.23598779890E+04  0.00000000000E+00 0. -1.
          1   -1    0    0  501    0 -0.00000000000E+00 -0.00000000000E+00 -0.13834560484E+03  0.13834560484E+03  0.00000000000E+00 0. -1.
         25    2    1    2    0    0 -0.16493405412E+03  0.60260847807E+02  0.19753460387E+03  0.29236565518E+03  0.12499257823E+03 0.  0.
          2    1    1    2  501    0  0.20796869909E+02 -0.25101712576E+02 -0.85316751994E+02  0.91332107952E+02  0.00000000000E+00 0. -1.
          1    1    1    2  502    0  0.14413718421E+03 -0.35159135231E+02  0.21093145322E+04  0.21145258307E+04  0.00000000000E+00 0. -1.
         22    1    3    3    0    0 -0.12393691065E+03  0.96021587724E+02  0.11899889250E+03  0.19682794402E+03  0.00000000000E+00 0.  1.
         22    1    3    3    0    0 -0.40997143474E+02 -0.35760739917E+02  0.78535711372E+02  0.95537711158E+02  0.00000000000E+00 0.  1.
</event>
<event>
 7    1  0.6278987E-006  0.1138582E+03  0.7818608E-02  0.1342870E+00
          2   -1    0    0  502    0  0.00000000000E+00  0.00000000000E+00  0.18215386113E+03  0.18215386113E+03  0.00000000000E+00 0. -1.
          1   -1    0    0  501    0 -0.00000000000E+00 -0.00000000000E+00 -0.16912731709E+04  0.16912731709E+04  0.00000000000E+00 0. -1.
         25    2    1    2    0    0 -0.47958404310E+02 -0.52736700737E+02 -0.11309121882E+03  0.18301926210E+03  0.12500103350E+03 0.  0.
          2    1    1    2  501    0 -0.30796321907E+02 -0.39176423487E+02 -0.15178563330E+04  0.15186741103E+04  0.00000000000E+00 0. -1.
          1    1    1    2  502    0  0.78754726216E+02  0.91913124224E+02  0.12182824204E+03  0.17173365967E+03  0.00000000000E+00 0. -1.
         22    1    3    3    0    0  0.13508242831E+02 -0.76702418121E+02 -0.59048745125E+02  0.97736829654E+02  0.00000000000E+00 0.  1.
         22    1    3    3    0    0 -0.61466647141E+02  0.23965717384E+02 -0.54042473692E+02  0.85282432442E+02  0.00000000000E+00 0.  1.
</event>
<event>
 7    1  0.6278987E-006  0.8553097E+02  0.7818608E-02  0.1357880E+00
          2   -1    0    0  502    0  0.00000000000E+00  0.00000000000E+00  0.29139049036E+04  0.29139049036E+04  0.00000000000E+00 0. -1.
          1   -1    0    0  501    0 -0.00000000000E+00 -0.00000000000E+00 -0.15825202192E+03  0.15825202192E+03  0.00000000000E+00 0. -1.
         25    2    1    2    0    0 -0.35139430914E+02 -0.30263480463E+02  0.26633327999E+03  0.29784079974E+03  0.12500027242E+03 0.  0.
          2    1    1    2  501    0  0.17896632225E+02  0.86024700975E+02 -0.12859702448E+03  0.15574894326E+03  0.00000000000E+00 0. -1.
          1    1    1    2  502    0  0.17242798689E+02 -0.55761220512E+02  0.26179166262E+04  0.26185671825E+04  0.00000000000E+00 0. -1.
         22    1    3    3    0    0  0.28270755683E+02 -0.24277317369E+02  0.20851826668E+03  0.21182183859E+03  0.00000000000E+00 0. -1.
         22    1    3    3    0    0 -0.63410186597E+02 -0.59861630941E+01  0.57815013305E+02  0.86018961144E+02  0.00000000000E+00 0. -1.
</event>
<event>
 7    1  0.6278987E-006  0.5958709E+02  0.7818608E-02  0.1419156E+00
          2   -1    0    0  502    0  0.00000000000E+00  0.00000000000E+00  0.13661544125E+04  0.13661544125E+04  0.00000000000E+00 0. -1.
          1   -1    0    0  501    0 -0.00000000000E+00 -0.00000000000E+00 -0.63860423860E+03  0.63860423860E+03  0.00000000000E+00 0. -1.
         25    2    1    2    0    0 -0.10266316889E+03  0.29180789912E+02  0.13906435937E+03  0.21530602984E+03  0.12500618262E+03 0.  0.
          2    1    1    2  501    0  0.44009232656E+02 -0.26039525922E+02 -0.59866731766E+03  0.60084725738E+03  0.00000000000E+00 0. -1.
          1    1    1    2  502    0  0.58653936237E+02 -0.31412639902E+01  0.11871531322E+04  0.11886053638E+04  0.00000000000E+00 0. -1.
         22    1    3    3    0    0 -0.12051124857E+03  0.53932307982E+02  0.12458434608E+03  0.18152937548E+03  0.00000000000E+00 0. -1.
         22    1    3    3    0    0  0.17848079673E+02 -0.24751518070E+02  0.14480013290E+02  0.33776654358E+02  0.00000000000E+00 0. -1.
</event>
<event>
 7    1  0.6278987E-006  0.4986951E+02  0.7818608E-02  0.1455913E+00
          2   -1    0    0  502    0  0.00000000000E+00  0.00000000000E+00  0.19136269514E+03  0.19136269514E+03  0.00000000000E+00 0. -1.
          1   -1    0    0  501    0 -0.00000000000E+00 -0.00000000000E+00 -0.64269675829E+03  0.64269675829E+03  0.00000000000E+00 0. -1.
         25    2    1    2    0    0 -0.77570202078E+02 -0.26165330150E+02 -0.24642322809E+03  0.28818550231E+03  0.12499886257E+03 0.  0.
          2    1    1    2  501    0  0.45000139539E+02 -0.11220387814E+02 -0.37030986146E+03  0.37320276413E+03  0.00000000000E+00 0. -1.
          1    1    1    2  502    0  0.32570062538E+02  0.37385717965E+02  0.16539902641E+03  0.17267118700E+03  0.00000000000E+00 0. -1.
         22    1    3    3    0    0 -0.21485153046E+02 -0.57557952993E+02 -0.43370521939E+02  0.75203270723E+02  0.00000000000E+00 0.  1.
         22    1    3    3    0    0 -0.56085049031E+02  0.31392622843E+02 -0.20305270615E+03  0.21298223158E+03  0.00000000000E+00 0.  1.
</event>
<event>
 7    1  0.6278987E-006  0.1289555E+03  0.7818608E-02  0.1234590E+00
          2   -1    0    0  502    0  0.00000000000E+00  0.00000000000E+00  0.27107436056E+03  0.27107436056E+03  0.00000000000E+00 0. -1.
          1   -1    0    0  501    0 -0.00000000000E+00 -0.00000000000E+00 -0.96023804532E+03  0.96023804532E+03  0.00000000000E+00 0. -1.
         25    2    1    2    0    0  0.34615969741E+02  0.27059232605E+02 -0.38280069196E+02  0.13790002175E+03  0.12498233824E+03 0.  0.
          2    1    1    2  501    0  0.28453097545E+02  0.11839152655E+03 -0.83877871541E+03  0.84757056682E+03  0.00000000000E+00 0. -1.
          1    1    1    2  502    0 -0.63069067286E+02 -0.14545075915E+03  0.18789509985E+03  0.24584181730E+03  0.00000000000E+00 0. -1.
         22    1    3    3    0    0 -0.77856516233E+01  0.40604387653E+02  0.33652576110E+02  0.53308803651E+02  0.00000000000E+00 0.  1.
         22    1    3    3    0    0  0.42401621364E+02 -0.13545155048E+02 -0.71932645306E+02  0.84591218104E+02  0.00000000000E+00 0.  1.
</event>
<event>
 7    1  0.6278987E-006  0.5116294E+02  0.7818608E-02  0.1455213E+00
          2   -1    0    0  502    0  0.00000000000E+00  0.00000000000E+00  0.10918046584E+04  0.10918046584E+04  0.00000000000E+00 0. -1.
          1   -1    0    0  501    0 -0.00000000000E+00 -0.00000000000E+00 -0.24266023439E+03  0.24266023439E+03  0.00000000000E+00 0. -1.
         25    2    1    2    0    0  0.78239609525E+02  0.33386906034E+02  0.58398627534E+03  0.60324184361E+03  0.12499852042E+03 0.  0.
          2    1    1    2  501    0 -0.45416447771E+02  0.13732080401E+01 -0.22965447210E+03  0.23410620663E+03  0.00000000000E+00 0. -1.
          1    1    1    2  502    0 -0.32823161753E+02 -0.34760114074E+02  0.49481262078E+03  0.49711684257E+03  0.00000000000E+00 0. -1.
         22    1    3    3    0    0 -0.11601476251E+02  0.55022968817E+02  0.27692388461E+03  0.28257558143E+03  0.00000000000E+00 0. -1.
         22    1    3    3    0    0  0.89841085776E+02 -0.21636062784E+02  0.30706239072E+03  0.32066626218E+03  0.00000000000E+00 0. -1.
</event>
<event>
 7    1  0.6278987E-006  0.8908377E+02  0.7818608E-02  0.1389657E+00
          2   -1    0    0  502    0  0.00000000000E+00  0.00000000000E+00  0.73315523325E+02  0.73315523325E+02  0.00000000000E+00 0. -1.
          1   -1    0    0  501    0 -0.00000000000E+00 -0.00000000000E+00 -0.16648619727E+04  0.16648619727E+04  0.00000000000E+00 0. -1.
         25    2    1    2    0    0 -0.47016102278E+01  0.11969985966E+03 -0.49149405476E+03  0.52109700969E+03  0.12500210437E+03 0.  0.
          2    1    1    2  501    0 -0.19405478770E+02 -0.83924922599E+02 -0.11487775589E+04  0.11520025369E+04  0.00000000000E+00 0. -1.
          1    1    1    2  502    0  0.24107088998E+02 -0.35774937059E+02  0.48725164305E+02  0.65077949400E+02  0.00000000000E+00 0. -1.
         22    1    3    3    0    0 -0.24854273788E+02 -0.12523566805E+02 -0.17946512394E+03  0.18161031182E+03  0.00000000000E+00 0. -1.
         22    1    3    3    0    0  0.20152663561E+02  0.13222342646E+03 -0.31202893083E+03  0.33948669787E+03  0.00000000000E+00 0. -1.
</event>
<event>
 7    1  0.6278987E-006  0.5350654E+02  0.7818608E-02  0.1509617E+00
          2   -1    0    0  502    0  0.00000000000E+00  0.00000000000E+00  0.10296939739E+04  0.10296939739E+04  0.00000000000E+00 0. -1.
          1   -1    0    0  501    0 -0.00000000000E+00 -0.00000000000E+00 -0.46187592274E+03  0.46187592274E+03  0.00000000000E+00 0. -1.
         25    2    1    2    0    0  0.77794007102E+02 -0.46067550059E+01 -0.24059313502E+03  0.28210456521E+03  0.12499919743E+03 0.  0.
          2    1    1    2  501    0 -0.49721789905E+02 -0.48393378333E+01 -0.19719424113E+03  0.20342380470E+03  0.00000000000E+00 0. -1.
          1    1    1    2  502    0 -0.28072217197E+02  0.94460928392E+01  0.10056054273E+04  0.10060415267E+04  0.00000000000E+00 0. -1.
         22    1    3    3    0    0  0.14094745573E+02 -0.50012761527E+02 -0.16627276582E+03  0.17420267168E+03  0.00000000000E+00 0.  1.
         22    1    3    3    0    0  0.63699261529E+02  0.45406006521E+02 -0.74320369204E+02  0.10790189352E+03  0.00000000000E+00 0.  1.
</event>
<event>
 7    1  0.6278987E-006  0.8319143E+02  0.7818608E-02  0.1452703E+00
          2   -1    0    0  502    0  0.00000000000E+00  0.00000000000E+00  0.17464320467E+03  0.17464320467E+03  0.00000000000E+00 0. -1.
          1   -1    0    0  501    0 -0.00000000000E+00 -0.00000000000E+00 -0.47450650430E+03  0.47450650430E+03  0.00000000000E+00 0. -1.
         25    2    1    2    0    0 -0.17825881189E+01 -0.57305521847E+02 -0.29752779131E+02  0.14070831638E+03  0.12500600777E+03 0.  0.
          2    1    1    2  501    0 -0.31553454427E+01  0.85336583828E+02 -0.38280189886E+03  0.39221114532E+03  0.00000000000E+00 0. -1.
          1    1    1    2  502    0  0.49379335616E+01 -0.28031061981E+02  0.11269137836E+03  0.11623024727E+03  0.00000000000E+00 0. -1.
         22    1    3    3    0    0  0.41238551170E+02 -0.60668051442E+02  0.18823144351E+02  0.75733356796E+02  0.00000000000E+00 0. -1.
         22    1    3    3    0    0 -0.43021139289E+02  0.33625295948E+01 -0.48575923482E+02  0.64974959586E+02  0.00000000000E+00 0. -1.
</event>
<event>
 7    1  0.6278987E-006  0.5364418E+02  0.7818608E-02  0.1492576E+00
          2   -1    0    0  502    0  0.00000000000E+00  0.00000000000E+00  0.27064772932E+03  0.27064772932E+03  0.00000000000E+00 0. -1.
          1   -1    0    0  501    0 -0.00000000000E+00 -0.00000000000E+00 -0.41575116994E+03  0.41575116994E+03  0.00000000000E+00 0. -1.
         25    2    1    2    0    0 -0.86011341029E+02  0.92180659748E+01 -0.25573254721E+03  0.29749790005E+03  0.12499176495E+03 0.  0.
          2    1    1    2  501    0  0.32957571549E+02 -0.40630418184E+01 -0.13424573136E+03  0.13829181544E+03  0.00000000000E+00 0. -1.
          1    1    1    2  502    0  0.53053769481E+02 -0.51550241563E+01  0.24487483795E+03  0.25060918377E+03  0.00000000000E+00 0. -1.
         22    1    3    3    0    0 -0.35133489578E+02 -0.56329673409E+02 -0.14160106572E+03  0.15639135529E+03  0.00000000000E+00 0.  1.
         22    1    3    3    0    0 -0.50877851451E+02  0.65547739384E+02 -0.11413148149E+03  0.14110654476E+03  0.00000000000E+00 0.  1.
</event>
<event>
 7    1  0.6278987E-006  0.4768345E+02  0.7818608E-02  0.1543970E+00
          2   -1    0    0  502    0  0.00000000000E+00  0.00000000000E+00  0.56063860366E+03  0.56063860366E+03  0.00000000000E+00 0. -1.
          1   -1    0    0  501    0 -0.00000000000E+00 -0.00000000000E+00 -0.19428770142E+03  0.19428770142E+03  0.00000000000E+00 0. -1.
         25    2    1    2    0    0 -0.18852051591E+02 -0.12589270343E+02  0.84498235160E+02  0.15257465643E+03  0.12500073785E+03 0.  0.
          2    1    1    2  501    0  0.44449948491E+02  0.19326861629E+02 -0.15617570170E+03  0.16352423460E+03  0.00000000000E+00 0. -1.
          1    1    1    2  502    0 -0.25597896901E+02 -0.67375912864E+01  0.43802836878E+03  0.43882741405E+03  0.00000000000E+00 0. -1.
         22    1    3    3    0    0 -0.34123939022E+02  0.42948958312E+02  0.59586131771E+01  0.55177543489E+02  0.00000000000E+00 0.  1.
         22    1    3    3    0    0  0.15271887431E+02 -0.55538228655E+02  0.78539621983E+02  0.97397112940E+02  0.00000000000E+00 0.  1.
</event>
<event>
 7    1  0.6278987E-006  0.5287344E+02  0.7818608E-02  0.1513351E+00
          2   -1    0    0  502    0  0.00000000000E+00  0.00000000000E+00  0.16832962550E+03  0.16832962550E+03  0.00000000000E+00 0. -1.
          1   -1    0    0  501    0 -0.00000000000E+00 -0.00000000000E+00 -0.14848614966E+04  0.14848614966E+04  0.00000000000E+00 0. -1.
         25    2    1    2    0    0  0.93546129089E+01  0.32331350838E+02 -0.60394539732E+03  0.61766265876E+03  0.12499716820E+03 0.  0.
          2    1    1    2  501    0 -0.22063697596E+02  0.19166357800E+02 -0.86944920189E+03  0.86994026846E+03  0.00000000000E+00 0. -1.
          1    1    1    2  502    0  0.12709084687E+02 -0.51497708638E+02  0.15686272809E+03  0.16558819490E+03  0.00000000000E+00 0. -1.
         22    1    3    3    0    0 -0.35131181125E+02 -0.85120851469E+01 -0.57691657445E+02  0.68080708130E+02  0.00000000000E+00 0.  1.
         22    1    3    3    0    0  0.44485794034E+02  0.40843435985E+02 -0.54625373987E+03  0.54958195063E+03  0.00000000000E+00 0.  1.
</event>
<event>
 7    1  0.6278987E-006  0.4514215E+02  0.7818608E-02  0.1559059E+00
          2   -1    0    0  502    0  0.00000000000E+00  0.00000000000E+00  0.14148660712E+04  0.14148660712E+04  0.00000000000E+00 0. -1.
          1   -1    0    0  501    0 -0.00000000000E+00 -0.00000000000E+00 -0.11868846532E+03  0.11868846532E+03  0.00000000000E+00 0. -1.
         25    2    1    2    0    0  0.11241206585E+02 -0.28092938789E+02  0.44279665850E+03  0.46109581242E+03  0.12499955807E+03 0.  0.
          2    1    1    2  501    0 -0.36589460508E+02  0.26782942186E+02 -0.10467093237E+03  0.11407067412E+03  0.00000000000E+00 0. -1.
          1    1    1    2  502    0  0.25348253923E+02  0.13099966031E+01  0.95805187979E+03  0.95838805003E+03  0.00000000000E+00 0. -1.
         22    1    3    3    0    0  0.20498061817E+02 -0.12421125774E+02  0.70694943461E+01  0.24988650505E+02  0.00000000000E+00 0.  1.
         22    1    3    3    0    0 -0.92568552318E+01 -0.15671813016E+02  0.43572716415E+03  0.43610716191E+03  0.00000000000E+00 0.  1.
</event>
<event>
 7    1  0.6278987E-006  0.8778243E+02  0.7818608E-02  0.1394108E+00
          2   -1    0    0  502    0  0.00000000000E+00  0.00000000000E+00  0.14572783184E+03  0.14572783184E+03  0.00000000000E+00 0. -1.
          1   -1    0    0  501    0 -0.00000000000E+00 -0.00000000000E+00 -0.49655814570E+03  0.49655814570E+03  0.00000000000E+00 0. -1.
         25    2    1    2    0    0 -0.59408915583E+02  0.12221824294E+02 -0.13364457539E+03  0.19278448776E+03  0.12500477571E+03 0.  0.
          2    1    1    2  501    0  0.81485748799E+02 -0.48239157663E+02 -0.32245516495E+03  0.33607183308E+03  0.00000000000E+00 0. -1.
          1    1    1    2  502    0 -0.22076833215E+02  0.36017333370E+02  0.10526942648E+03  0.11342965670E+03  0.00000000000E+00 0. -1.
         22    1    3    3    0    0 -0.15923637000E+02  0.97871792227E+01 -0.14625322959E+03  0.14744272874E+03  0.00000000000E+00 0. -1.
         22    1    3    3    0    0 -0.43485278584E+02  0.24346450710E+01  0.12608654203E+02  0.45341759019E+02  0.00000000000E+00 0. -1.
</event>
<event>
 7    1  0.6278987E-006  0.9208922E+02  0.7818608E-02  0.1388749E+00
          2   -1    0    0  502    0  0.00000000000E+00  0.00000000000E+00  0.26690187018E+04  0.26690187018E+04  0.00000000000E+00 0. -1.
          1   -1    0    0  501    0 -0.00000000000E+00 -0.00000000000E+00 -0.31277957101E+04  0.31277957101E+04  0.00000000000E+00 0. -1.
         25    2    1    2    0    0 -0.23712062778E+02  0.58557193798E+02 -0.52966931578E+03  0.54787396177E+03  0.12500034814E+03 0.  0.
          2    1    1    2  501    0  0.30625429223E+01 -0.95173362680E+02 -0.25879823134E+04  0.25897335389E+04  0.00000000000E+00 0. -1.
          1    1    1    2  502    0  0.20649519856E+02  0.36616168882E+02  0.26588746209E+04  0.26592069112E+04  0.00000000000E+00 0. -1.
         22    1    3    3    0    0  0.37479842485E+02 -0.10439056359E+02 -0.81446486060E+02  0.90262077208E+02  0.00000000000E+00 0. -1.
         22    1    3    3    0    0 -0.61191905263E+02  0.68996250158E+02 -0.44822282972E+03  0.45761188456E+03  0.00000000000E+00 0. -1.
</event>
<event>
 7    1  0.6278987E-006  0.1037166E+03  0.7818608E-02  0.1398434E+00
          2   -1    0    0  502    0  0.00000000000E+00  0.00000000000E+00  0.37099621173E+02  0.37099621173E+02  0.00000000000E+00 0. -1.
          1   -1    0    0  501    0 -0.00000000000E+00 -0.00000000000E+00 -0.18762163433E+04  0.18762163433E+04  0.00000000000E+00 0. -1.
         25    2    1    2    0    0 -0.74591510773E+02  0.10562517585E+03 -0.52622843180E+03  0.55611171427E+03  0.12499322006E+03 0.  0.
          2    1    1    2  501    0  0.68783548898E+01 -0.33852637871E+02 -0.12237290063E+04  0.12242164815E+04  0.00000000000E+00 0. -1.
          1    1    1    2  502    0  0.67713155883E+02 -0.71772537976E+02 -0.89159284096E+02  0.13298776871E+03  0.00000000000E+00 0. -1.
         22    1    3    3    0    0 -0.10714092991E+03  0.99972986730E+02 -0.41714853087E+03  0.44213874943E+03  0.00000000000E+00 0. -1.
         22    1    3    3    0    0  0.32549419140E+02  0.56521891169E+01 -0.10907990093E+03  0.11397296484E+03  0.00000000000E+00 0. -1.
</event>
<event>
 7    1  0.6278987E-006  0.4642334E+02  0.7818608E-02  0.1466596E+00
          2   -1    0    0  502    0  0.00000000000E+00  0.00000000000E+00  0.12647244262E+04  0.12647244262E+04  0.00000000000E+00 0. -1.
          1   -1    0    0  501    0 -0.00000000000E+00 -0.00000000000E+00 -0.67069672601E+03  0.67069672601E+03  0.00000000000E+00 0. -1.
         25    2    1    2    0    0 -0.19770351383E+01 -0.26217309147E+02 -0.74758942463E+02  0.14800387297E+03  0.12499996387E+03 0.  0.
          2    1    1    2  501    0  0.45834415725E+02  0.10997037799E+02 -0.55788241475E+03  0.55987008957E+03  0.00000000000E+00 0. -1.
          1    1    1    2  502    0 -0.43857380586E+02  0.15220271348E+02  0.12266690574E+04  0.12275471897E+04  0.00000000000E+00 0. -1.
         22    1    3    3    0    0 -0.56805983179E+02  0.13186287165E+01 -0.64222438233E+02  0.85750685590E+02  0.00000000000E+00 0. -1.
         22    1    3    3    0    0  0.54828948040E+02 -0.27535937864E+02 -0.10536504231E+02  0.62253187377E+02  0.00000000000E+00 0. -1.
</event>
<event>
 7    1  0.6278987E-006  0.3134367E+02  0.7818608E-02  0.1644277E+00
          2   -1    0    0  502    0  0.00000000000E+00  0.00000000000E+00  0.61403627030E+02  0.61403627030E+02  0.00000000000E+00 0. -1.
          1   -1    0    0  501    0 -0.00000000000E+00 -0.00000000000E+00 -0.11446696600E+04  0.11446696600E+04  0.00000000000E+00 0. -1.
         25    2    1    2    0    0 -0.48304168198E+02 -0.21208883083E+02 -0.26121277282E+03  0.29434818338E+03  0.12500252392E+03 0.  0.
          2    1    1    2  501    0  0.19419015555E+02  0.10142975025E+02 -0.86139823440E+03  0.86167679343E+03  0.00000000000E+00 0. -1.
          1    1    1    2  502    0  0.28885152644E+02  0.11065908058E+02  0.39344974211E+02  0.50048310262E+02  0.00000000000E+00 0. -1.
         22    1    3    3    0    0  0.17854954514E+02 -0.18473865705E+02 -0.20750520749E+03  0.20908967992E+03  0.00000000000E+00 0.  1.
         22    1    3    3    0    0 -0.66159122713E+02 -0.27350173781E+01 -0.53707565339E+02  0.85258503463E+02  0.00000000000E+00 0.  1.
</event>
<event>
 7    1  0.6278987E-006  0.9281135E+02  0.7818608E-02  0.1336374E+00
          2   -1    0    0  502    0  0.00000000000E+00  0.00000000000E+00  0.61990331924E+03  0.61990331924E+03  0.00000000000E+00 0. -1.
          1   -1    0    0  501    0 -0.00000000000E+00 -0.00000000000E+00 -0.15334116955E+04  0.15334116955E+04  0.00000000000E+00 0. -1.
         25    2    1    2    0    0  0.30380035229E+02  0.19562837784E+02 -0.15161502989E+02  0.13099774901E+03  0.12499955164E+03 0.  0.
          2    1    1    2  501    0 -0.94054754195E+02 -0.82444716903E+01 -0.14569383507E+04  0.14599943924E+04  0.00000000000E+00 0. -1.
          1    1    1    2  502    0  0.63674718966E+02 -0.11318366094E+02  0.55859147741E+03  0.56232287334E+03  0.00000000000E+00 0. -1.
         22    1    3    3    0    0 -0.28675128200E+02  0.54410801634E+02 -0.88426024408E+01  0.62136864498E+02  0.00000000000E+00 0.  1.
         22    1    3    3    0    0  0.59055163429E+02 -0.34847963850E+02 -0.63189005484E+01  0.68860884516E+02  0.00000000000E+00 0.  1.
</event>
<event>
 7    1  0.6467663E-006  0.1019070E+03  0.7818608E-02  0.1443454E+00
          2   -1    0    0  502    0  0.00000000000E+00  0.00000000000E+00  0.16364707718E+04  0.16364707718E+04  0.00000000000E+00 0. -1.
          1   -1    0    0  501    0 -0.00000000000E+00 -0.00000000000E+00 -0.54374652445E+03  0.54374652445E+03  0.00000000000E+00 0. -1.
         25    2    1    2    0    0  0.11813964098E+02  0.78151988730E+02 -0.12058680624E+03  0.19082593264E+03  0.12500422248E+03 0.  0.
          2    1    1    2  501    0 -0.69649350074E+01  0.23883520349E+02 -0.38601025512E+03  0.38681112952E+03  0.00000000000E+00 0. -1.
          1    1    1    2  502    0 -0.48490290903E+01 -0.10203550908E+03  0.15993213087E+04  0.16025802341E+04  0.00000000000E+00 0. -1.
         22    1    3    3    0    0  0.58405881235E+02  0.12709041486E+02 -0.22092562429E+02  0.63724783350E+02  0.00000000000E+00 0. -1.
         22    1    3    3    0    0 -0.46591917137E+02  0.65442947244E+02 -0.98494243814E+02  0.12710114929E+03  0.00000000000E+00 0. -1.
</event>
<event>
 7    1  0.6278987E-006  0.1426697E+03  0.7818608E-02  0.1425722E+00
          2   -1    0    0  502    0  0.00000000000E+00  0.00000000000E+00  0.13113149614E+04  0.13113149614E+04  0.00000000000E+00 0. -1.
          1   -1    0    0  501    0 -0.00000000000E+00 -0.00000000000E+00 -0.16896142744E+03  0.16896142744E+03  0.00000000000E+00 0. -1.
         25    2    1    2    0    0  0.27593687645E+02 -0.15896434418E+03  0.37904511935E+03  0.43049597771E+03  0.12498203872E+03 0.  0.
          2    1    1    2  501    0 -0.23039907271E+02  0.13917237637E+03 -0.10835649497E+03  0.17787894107E+03  0.00000000000E+00 0. -1.
          1    1    1    2  502    0 -0.45537803742E+01  0.19791967806E+02  0.87166490958E+03  0.87190147006E+03  0.00000000000E+00 0. -1.
         22    1    3    3    0    0  0.14640102608E+02 -0.10344258659E+03  0.35240735309E+03  0.36756719636E+03  0.00000000000E+00 0.  1.
         22    1    3    3    0    0  0.12953585037E+02 -0.55521757589E+02  0.26637766255E+02  0.62928781350E+02  0.00000000000E+00 0.  1.
</event>
<event>
 7    1  0.6278987E-006  0.1424125E+03  0.7818608E-02  0.1413703E+00
          2   -1    0    0  502    0  0.00000000000E+00  0.00000000000E+00  0.10064343796E+04  0.10064343796E+04  0.00000000000E+00 0. -1.
          1   -1    0    0  501    0 -0.00000000000E+00 -0.00000000000E+00 -0.27060044920E+03  0.27060044920E+03  0.00000000000E+00 0. -1.
         25    2    1    2    0    0 -0.21590593553E+02  0.14893210719E+03 -0.55603320642E+02  0.20338080551E+03  0.12500038600E+03 0.  0.
          2    1    1    2  501    0  0.15743351400E+01 -0.13906326612E+03 -0.10666973819E+03  0.17526980219E+03  0.00000000000E+00 0. -1.
          1    1    1    2  502    0  0.20016258413E+02 -0.98688410705E+01  0.89810698920E+03  0.89838422107E+03  0.00000000000E+00 0. -1.
         22    1    3    3    0    0 -0.53650593114E+02  0.97249851128E+02  0.12855137399E+02  0.11180865013E+03  0.00000000000E+00 0. -1.
         22    1    3    3    0    0  0.32059999561E+02  0.51682256062E+02 -0.68458458041E+02  0.91572155379E+02  0.00000000000E+00 0. -1.
</event>
<event>
 7    1  0.6278987E-006  0.3161287E+03  0.7818608E-02  0.1129484E+00
          2   -1    0    0  502    0  0.00000000000E+00  0.00000000000E+00  0.23404294136E+04  0.23404294136E+04  0.00000000000E+00 0. -1.
          1   -1    0    0  501    0 -0.00000000000E+00 -0.00000000000E+00 -0.52612571254E+03  0.52612571254E+03  0.00000000000E+00 0. -1.
         25    2    1    2    0    0 -0.93103798601E+02 -0.21087980991E+03  0.45282404536E+02  0.26611007002E+03  0.12500184665E+03 0.  0.
          2    1    1    2  501    0  0.24242259065E+03  0.27260290790E+03 -0.33197643115E+03  0.49324376194E+03  0.00000000000E+00 0. -1.
          1    1    1    2  502    0 -0.14931879205E+03 -0.61723097988E+02  0.21009977276E+04  0.21072012941E+04  0.00000000000E+00 0. -1.
         22    1    3    3    0    0 -0.50190113370E+02 -0.43435057106E+02 -0.35540892439E+02  0.75291478278E+02  0.00000000000E+00 0. -1.
         22    1    3    3    0    0 -0.42913685231E+02 -0.16744475280E+03  0.80823296975E+02  0.19081859174E+03  0.00000000000E+00 0. -1.
</event>
<event>
 7    1  0.6278987E-006  0.1219000E+03  0.7818608E-02  0.1270896E+00
          2   -1    0    0  502    0  0.00000000000E+00  0.00000000000E+00  0.78928655384E+02  0.78928655384E+02  0.00000000000E+00 0. -1.
          1   -1    0    0  501    0 -0.00000000000E+00 -0.00000000000E+00 -0.13701705960E+04  0.13701705960E+04  0.00000000000E+00 0. -1.
         25    2    1    2    0    0  0.14553475178E+03 -0.43663737375E+02 -0.12629122585E+03  0.23379472348E+03  0.12499445213E+03 0.  0.
          2    1    1    2  501    0 -0.40951485195E+02  0.79882017194E+02 -0.10566449104E+04  0.10604511434E+04  0.00000000000E+00 0. -1.
          1    1    1    2  502    0 -0.10458326658E+03 -0.36218279819E+02 -0.10830580438E+03  0.15485338454E+03  0.00000000000E+00 0. -1.
         22    1    3    3    0    0  0.12854486604E+02  0.38284499129E+02 -0.19974423093E+02  0.45054614384E+02  0.00000000000E+00 0.  1.
         22    1    3    3    0    0  0.13268026517E+03 -0.81948236503E+02 -0.10631680276E+03  0.18874010910E+03  0.00000000000E+00 0.  1.
</event>
<event>
 7    1  0.6278987E-006  0.1268229E+03  0.7818608E-02  0.1304497E+00
          2   -1    0    0  502    0  0.00000000000E+00  0.00000000000E+00  0.12557424074E+03  0.12557424074E+03  0.00000000000E+00 0. -1.
          1   -1    0    0  501    0 -0.00000000000E+00 -0.00000000000E+00 -0.27767351741E+04  0.27767351741E+04  0.00000000000E+00 0. -1.
         25    2    1    2    0    0  0.13071452417E+01  0.15898141407E+03 -0.23068168261E+03  0.30678329448E+03  0.12500060973E+03 0.  0.
          2    1    1    2  501    0 -0.45032720190E+02 -0.43932534321E+02 -0.24641328869E+04  0.24649358811E+04  0.00000000000E+00 0. -1.
          1    1    1    2  502    0  0.43725574949E+02 -0.11504887975E+03  0.43653636188E+02  0.13059023926E+03  0.00000000000E+00 0. -1.
         22    1    3    3    0    0 -0.16719291144E+02  0.27138724466E+02  0.85771094533E+01  0.33009269434E+02  0.00000000000E+00 0.  1.
         22    1    3    3    0    0  0.18026436386E+02  0.13184268961E+03 -0.23925879206E+03  0.27377402505E+03  0.00000000000E+00 0.  1.
</event>
<event>
 7    1  0.6278987E-006  0.1112004E+03  0.7818608E-02  0.1352607E+00
          2   -1    0    0  502    0  0.00000000000E+00  0.00000000000E+00  0.10946211604E+04  0.10946211604E+04  0.00000000000E+00 0. -1.
          1   -1    0    0  501    0 -0.00000000000E+00 -0.00000000000E+00 -0.79845948247E+02  0.79845948247E+02  0.00000000000E+00 0. -1.
         25    2    1    2    0    0  0.66286154230E+02 -0.83173657895E+02  0.51166360205E+02  0.17191277821E+03  0.12499718110E+03 0.  0.
          2    1    1    2  501    0  0.33668524874E+02  0.32710543102E+02  0.17898554821E+02  0.50238505769E+02  0.00000000000E+00 0. -1.
          1    1    1    2  502    0 -0.99954679105E+02  0.50463114793E+02  0.94571029712E+03  0.95231582466E+03  0.00000000000E+00 0. -1.
         22    1    3    3    0    0  0.36222455876E+02 -0.88418619892E+02 -0.17161392814E+02  0.97079514093E+02  0.00000000000E+00 0.  1.
         22    1    3    3    0    0  0.30063698355E+02  0.52449619969E+01  0.68327753020E+02  0.74833264113E+02  0.00000000000E+00 0.  1.
</event>
<event>
 7    1  0.6278987E-006  0.1770278E+03  0.7818608E-02  0.1361944E+00
          2   -1    0    0  502    0  0.00000000000E+00  0.00000000000E+00  0.18051295010E+04  0.18051295010E+04  0.00000000000E+00 0. -1.
          1   -1    0    0  501    0 -0.00000000000E+00 -0.00000000000E+00 -0.73889104513E+02  0.73889104513E+02  0.00000000000E+00 0. -1.
         25    2    1    2    0    0 -0.14834796609E+03 -0.88623354306E+02  0.47801656623E+03  0.52343698166E+03  0.12500087281E+03 0.  0.
          2    1    1    2  501    0 -0.17053493656E+02  0.21257648638E+02 -0.40924506541E+02  0.49168328293E+02  0.00000000000E+00 0. -1.
          1    1    1    2  502    0  0.16540145975E+03  0.67365705669E+02  0.12941483368E+04  0.13064132956E+04  0.00000000000E+00 0. -1.
         22    1    3    3    0    0 -0.45083731848E+02  0.42990915861E+01  0.29866197196E+02  0.54249560374E+02  0.00000000000E+00 0.  1.
         22    1    3    3    0    0 -0.10326423425E+03 -0.92922445892E+02  0.44815036903E+03  0.46918742128E+03  0.00000000000E+00 0.  1.
</event>
<event>
 7    1  0.6278987E-006  0.8793892E+02  0.7818608E-02  0.1484215E+00
          2   -1    0    0  502    0  0.00000000000E+00  0.00000000000E+00  0.23704396411E+04  0.23704396411E+04  0.00000000000E+00 0. -1.
          1   -1    0    0  501    0 -0.00000000000E+00 -0.00000000000E+00 -0.20539014343E+03  0.20539014343E+03  0.00000000000E+00 0. -1.
         25    2    1    2    0    0 -0.87853534661E+02  0.99045227558E+01  0.22690153848E+03  0.27372936705E+03  0.12500846010E+03 0.  0.
          2    1    1    2  501    0  0.53617165961E+01  0.20794555972E+02 -0.18042566363E+03  0.18169915150E+03  0.00000000000E+00 0. -1.
          1    1    1    2  502    0  0.82491818065E+02 -0.30699078728E+02  0.21185736228E+04  0.21204012660E+04  0.00000000000E+00 0. -1.
         22    1    3    3    0    0 -0.61893756620E+02 -0.86669986753E+01  0.23299728513E+03  0.24123368101E+03  0.00000000000E+00 0. -1.
         22    1    3    3    0    0 -0.25959778042E+02  0.18571521431E+02 -0.60957466493E+01  0.32495686044E+02  0.00000000000E+00 0. -1.
</event>
<event>
 7    1  0.6278987E-006  0.1031327E+03  0.7818608E-02  0.1285571E+00
          2   -1    0    0  502    0  0.00000000000E+00  0.00000000000E+00  0.55520887892E+03  0.55520887892E+03  0.00000000000E+00 0. -1.
          1   -1    0    0  501    0 -0.00000000000E+00 -0.00000000000E+00 -0.50288121021E+03  0.50288121021E+03  0.00000000000E+00 0. -1.
         25    2    1    2    0    0 -0.60271042974E+02 -0.18917875181E+02 -0.82165481319E+02  0.16237768531E+03  0.12499944697E+03 0.  0.
          2    1    1    2  501    0 -0.18484356968E+02  0.90366303875E+02 -0.36938974610E+03  0.38073156535E+03  0.00000000000E+00 0. -1.
          1    1    1    2  502    0  0.78755399941E+02 -0.71448428695E+02  0.50388289613E+03  0.51498083847E+03  0.00000000000E+00 0. -1.
         22    1    3    3    0    0 -0.64015300876E+02  0.18320220679E+02 -0.10061435450E+03  0.12065172010E+03  0.00000000000E+00 0. -1.
         22    1    3    3    0    0  0.37442579020E+01 -0.37238095860E+02  0.18448873185E+02  0.41725965205E+02  0.00000000000E+00 0. -1.
</event>
<event>
 7    1  0.6278987E-006  0.7593046E+02  0.7818608E-02  0.1353402E+00
          2   -1    0    0  502    0  0.00000000000E+00  0.00000000000E+00  0.40376974123E+04  0.40376974123E+04  0.00000000000E+00 0. -1.
          1   -1    0    0  501    0 -0.00000000000E+00 -0.00000000000E+00 -0.76102178791E+03  0.76102178791E+03  0.00000000000E+00 0. -1.
         25    2    1    2    0    0 -0.66626049372E+02  0.66934680983E+02  0.56199596564E+02  0.16644379269E+03  0.12500343794E+03 0.  0.
          2    1    1    2  501    0  0.76100046726E+02  0.68875841287E+00 -0.70355061511E+03  0.70765468946E+03  0.00000000000E+00 0. -1.
          1    1    1    2  502    0 -0.94739973536E+01 -0.67623439396E+02  0.39240266430E+04  0.39246207181E+04  0.00000000000E+00 0. -1.
         22    1    3    3    0    0 -0.58115664065E+02 -0.20803664618E+02 -0.32458775091E+00  0.61727856179E+02  0.00000000000E+00 0.  1.
         22    1    3    3    0    0 -0.85103853076E+01  0.87738345601E+02  0.56524184315E+02  0.10471593651E+03  0.00000000000E+00 0.  1.
</event>
<event>
 7    1  0.6278987E-006  0.1635596E+03  0.7818608E-02  0.1330852E+00
          2   -1    0    0  502    0  0.00000000000E+00  0.00000000000E+00  0.25589903936E+04  0.25589903936E+04  0.00000000000E+00 0. -1.
          1   -1    0    0  501    0 -0.00000000000E+00 -0.00000000000E+00 -0.15976111366E+03  0.15976111366E+03  0.00000000000E+00 0. -1.
         25    2    1    2    0    0  0.11636351713E+03 -0.51565030916E+02  0.13767267032E+04  0.13882372432E+04  0.12500723014E+03 0.  0.
          2    1    1    2  501    0 -0.14616570836E+03  0.75961534507E+02 -0.10953653202E+03  0.19782017307E+03  0.00000000000E+00 0. -1.
          1    1    1    2  502    0  0.29802191227E+02 -0.24396503591E+02  0.11320391088E+04  0.11326940910E+04  0.00000000000E+00 0. -1.
         22    1    3    3    0    0 -0.22713625677E+02 -0.23273248321E+02  0.39035429006E+03  0.39170655425E+03  0.00000000000E+00 0.  1.
         22    1    3    3    0    0  0.13907714281E+03 -0.28291782595E+02  0.98637241312E+03  0.99653068893E+03  0.00000000000E+00 0.  1.
</event>
<event>
 7    1  0.6278987E-006  0.1081322E+03  0.7818608E-02  0.1265812E+00
          2   -1    0    0  502    0  0.00000000000E+00  0.00000000000E+00  0.13579532454E+04  0.13579532454E+04  0.00000000000E+00 0. -1.
          1   -1    0    0  501    0 -0.00000000000E+00 -0.00000000000E+00 -0.88564983204E+02  0.88564983204E+02  0.00000000000E+00 0. -1.
         25    2    1    2    0    0  0.51273157316E+02  0.53531451003E+02  0.76240406048E+02  0.16411072298E+03  0.12500070790E+03 0.  0.
          2    1    1    2  501    0 -0.93129715676E+02  0.51270032124E+02  0.25508310146E+02  0.10932718794E+03  0.00000000000E+00 0. -1.
          1    1    1    2  502    0  0.41856558360E+02 -0.10480148313E+03  0.11676395460E+04  0.11730803177E+04  0.00000000000E+00 0. -1.
         22    1    3    3    0    0  0.56130381913E+02  0.83169133996E+02  0.22933329085E+02  0.10292551776E+03  0.00000000000E+00 0.  1.
         22    1    3    3    0    0 -0.48572245970E+01 -0.29637682993E+02  0.53307076963E+02  0.61185205224E+02  0.00000000000E+00 0.  1.
</event>
<event>
 7    1  0.6278987E-006  0.9494909E+02  0.7818608E-02  0.1356115E+00
          2   -1    0    0  502    0  0.00000000000E+00  0.00000000000E+00  0.30713435499E+04  0.30713435499E+04  0.00000000000E+00 0. -1.
          1   -1    0    0  501    0 -0.00000000000E+00 -0.00000000000E+00 -0.15128161169E+04  0.15128161169E+04  0.00000000000E+00 0. -1.
         25    2    1    2    0    0 -0.38280944165E+02 -0.36239684775E+02  0.14225566009E+02  0.13640200834E+03  0.12499758283E+03 0.  0.
          2    1    1    2  501    0 -0.52835987924E+02  0.75014400775E+01 -0.14504753885E+04  0.14514567737E+04  0.00000000000E+00 0. -1.
          1    1    1    2  502    0  0.91116932090E+02  0.28738244697E+02  0.29947772555E+04  0.29963008848E+04  0.00000000000E+00 0. -1.
         22    1    3    3    0    0 -0.23315410355E+02  0.34793799028E+02 -0.29890366014E+02  0.51455328114E+02  0.00000000000E+00 0.  1.
         22    1    3    3    0    0 -0.14965533810E+02 -0.71033483803E+02  0.44115932023E+02  0.84946680227E+02  0.00000000000E+00 0.  1.
</event>
<event>
 7    1  0.6278987E-006  0.3366125E+02  0.7818608E-02  0.1563266E+00
          2   -1    0    0  502    0  0.00000000000E+00  0.00000000000E+00  0.14208879353E+03  0.14208879353E+03  0.00000000000E+00 0. -1.
          1   -1    0    0  501    0 -0.00000000000E+00 -0.00000000000E+00 -0.23297826355E+04  0.23297826355E+04  0.00000000000E+00 0. -1.
         25    2    1    2    0    0 -0.65735516045E+00 -0.67413669999E+01 -0.13230430656E+03  0.18214397108E+03  0.12500447401E+03 0.  0.
          2    1    1    2  501    0  0.32780257894E+02 -0.49031594437E+01 -0.21699382323E+04  0.21701913552E+04  0.00000000000E+00 0. -1.
          1    1    1    2  502    0 -0.32122902734E+02  0.11644526444E+02  0.11454869693E+03  0.11953610269E+03  0.00000000000E+00 0. -1.
         22    1    3    3    0    0 -0.54654008131E+02  0.25991763635E+02 -0.50615206601E+02  0.78895700269E+02  0.00000000000E+00 0. -1.
         22    1    3    3    0    0  0.53996652971E+02 -0.32733130634E+02 -0.81689099964E+02  0.10324827081E+03  0.00000000000E+00 0. -1.
</event>
<event>
 7    1  0.6278987E-006  0.2477010E+03  0.7818608E-02  0.1138192E+00
          2   -1    0    0  502    0  0.00000000000E+00  0.00000000000E+00  0.21142905084E+04  0.21142905084E+04  0.00000000000E+00 0. -1.
          1   -1    0    0  501    0 -0.00000000000E+00 -0.00000000000E+00 -0.97443944574E+03  0.97443944574E+03  0.00000000000E+00 0. -1.
         25    2    1    2    0    0  0.74364340489E+01 -0.19054817303E+03 -0.12348773571E+03  0.25929820276E+03  0.12498972072E+03 0.  0.
          2    1    1    2  501    0  0.18365978950E+03  0.25589693189E+02 -0.76412944095E+03  0.78630754365E+03  0.00000000000E+00 0. -1.
          1    1    1    2  502    0 -0.19109622355E+03  0.16495847984E+03  0.20274682393E+04  0.20431242077E+04  0.00000000000E+00 0. -1.
         22    1    3    3    0    0 -0.39090252006E+02 -0.10275120567E+02 -0.11457760783E+02  0.42010786552E+02  0.00000000000E+00 0. -1.
         22    1    3    3    0    0  0.46526686055E+02 -0.18027305246E+03 -0.11202997493E+03  0.21728741621E+03  0.00000000000E+00 0. -1.
</event>
<event>
 7    1  0.6278987E-006  0.8558060E+02  0.7818608E-02  0.1480779E+00
          2   -1    0    0  502    0  0.00000000000E+00  0.00000000000E+00  0.14177100596E+04  0.14177100596E+04  0.00000000000E+00 0. -1.
          1   -1    0    0  501    0 -0.00000000000E+00 -0.00000000000E+00 -0.15953402862E+03  0.15953402862E+03  0.00000000000E+00 0. -1.
         25    2    1    2    0    0  0.70529743892E+02  0.63514984759E+02  0.85073717434E+03  0.86509290006E+03  0.12499355133E+03 0.  0.
          2    1    1    2  501    0 -0.48907026998E+02 -0.70111450270E+02 -0.14011370589E+03  0.16413215202E+03  0.00000000000E+00 0. -1.
          1    1    1    2  502    0 -0.21622716894E+02  0.65964655110E+01  0.54755256254E+03  0.54801903615E+03  0.00000000000E+00 0. -1.
         22    1    3    3    0    0  0.21779980007E+02 -0.27710546111E+02  0.79655932158E+02  0.87105163009E+02  0.00000000000E+00 0. -1.
         22    1    3    3    0    0  0.48749763884E+02  0.91225530870E+02  0.77108124218E+03  0.77798773705E+03  0.00000000000E+00 0. -1.
</event>
<event>
 7    1  0.6278987E-006  0.4132977E+02  0.7818608E-02  0.1567389E+00
          2   -1    0    0  502    0  0.00000000000E+00  0.00000000000E+00  0.82397640953E+02  0.82397640953E+02  0.00000000000E+00 0. -1.
          1   -1    0    0  501    0 -0.00000000000E+00 -0.00000000000E+00 -0.16505296099E+03  0.16505296099E+03  0.00000000000E+00 0. -1.
         25    2    1    2    0    0 -0.14103206325E+01  0.25425246151E+02  0.10134848917E+02  0.12797120548E+03  0.12500192848E+03 0.  0.
          2    1    1    2  501    0  0.26300910636E+02 -0.33930218610E+02 -0.78680518076E+02  0.89630472273E+02  0.00000000000E+00 0. -1.
          1    1    1    2  502    0 -0.24890590003E+02  0.85049724594E+01 -0.14109650878E+02  0.29848924187E+02  0.00000000000E+00 0. -1.
         22    1    3    3    0    0  0.11330731797E+02 -0.18347795948E+02 -0.48863884535E+02  0.53410732171E+02  0.00000000000E+00 0.  1.
         22    1    3    3    0    0 -0.12741052429E+02  0.43773042099E+02  0.58998733451E+02  0.74560473312E+02  0.00000000000E+00 0.  1.
</event>
<event>
 7    1  0.6278987E-006  0.9416739E+02  0.7818608E-02  0.1443920E+00
          2   -1    0    0  502    0  0.00000000000E+00  0.00000000000E+00  0.14710795750E+03  0.14710795750E+03  0.00000000000E+00 0. -1.
          1   -1    0    0  501    0 -0.00000000000E+00 -0.00000000000E+00 -0.39939673904E+03  0.39939673904E+03  0.00000000000E+00 0. -1.
         25    2    1    2    0    0 -0.36395995665E+02 -0.63898091033E+02 -0.11788990321E+03  0.18690254759E+03  0.12500759368E+03 0.  0.
          2    1    1    2  501    0  0.51502147346E+02  0.86071469728E+02 -0.23498616814E+03  0.25549807885E+03  0.00000000000E+00 0. -1.
          1    1    1    2  502    0 -0.15106151681E+02 -0.22173378695E+02  0.10058728980E+03  0.10410407010E+03  0.00000000000E+00 0. -1.
         22    1    3    3    0    0 -0.57552510803E+02 -0.49096913071E+02 -0.10406788804E+02  0.76361637136E+02  0.00000000000E+00 0. -1.
         22    1    3    3    0    0  0.21156515138E+02 -0.14801177961E+02 -0.10748311440E+03  0.11054091045E+03  0.00000000000E+00 0. -1.
</event>
<event>
 7    1  0.8988368E-006  0.8924780E+02  0.7818608E-02  0.1313894E+00
          2   -1    0    0  502    0  0.00000000000E+00  0.00000000000E+00  0.12738347760E+04  0.12738347760E+04  0.00000000000E+00 0. -1.
          1   -1    0    0  501    0 -0.00000000000E+00 -0.00000000000E+00 -0.83317410134E+03  0.83317410134E+03  0.00000000000E+00 0. -1.
         25    2    1    2    0    0  0.15552759115E+03 -0.13637746242E+02 -0.25203116510E+03  0.32174348432E+03  0.12499736712E+03 0.  0.
          2    1    1    2  501    0 -0.76215167383E+02  0.34788593061E+02 -0.54170350804E+03  0.54814385755E+03  0.00000000000E+00 0. -1.
          1    1    1    2  502    0 -0.79312423768E+02 -0.21150846819E+02  0.12343953478E+04  0.12371215355E+04  0.00000000000E+00 0. -1.
         22    1    3    3    0    0  0.22910906193E+02 -0.19137211970E+02  0.70215088400E+01  0.30666660904E+02  0.00000000000E+00 0. -1.
         22    1    3    3    0    0  0.13261668496E+03  0.54994657282E+01 -0.25905267394E+03  0.29107682341E+03  0.00000000000E+00 0. -1.
</event>
<event>
 7    1  0.6278987E-006  0.4248824E+02  0.7818608E-02  0.1495507E+00
          2   -1    0    0  502    0  0.00000000000E+00  0.00000000000E+00  0.16784710161E+03  0.16784710161E+03  0.00000000000E+00 0. -1.
          1   -1    0    0  501    0 -0.00000000000E+00 -0.00000000000E+00 -0.30285316727E+03  0.30285316727E+03  0.00000000000E+00 0. -1.
         25    2    1    2    0    0  0.32475867638E+02  0.33275378705E+02 -0.17928132916E+03  0.22344715368E+03  0.12499961077E+03 0.  0.
          2    1    1    2  501    0 -0.44804555699E+02  0.59145124963E+01 -0.93302849357E+02  0.10367184462E+03  0.00000000000E+00 0. -1.
          1    1    1    2  502    0  0.12328688061E+02 -0.39189891201E+02  0.13757811287E+03  0.14358127058E+03  0.00000000000E+00 0. -1.
         22    1    3    3    0    0  0.41756221614E+01 -0.36728760009E+02 -0.10316459455E+02  0.38377948980E+02  0.00000000000E+00 0.  1.
         22    1    3    3    0    0  0.28300245476E+02  0.70004138714E+02 -0.16896486971E+03  0.18506920470E+03  0.00000000000E+00 0.  1.
</event>
<event>
 7    1  0.6278987E-006  0.4193598E+02  0.7818608E-02  0.1603755E+00
          2   -1    0    0  502    0  0.00000000000E+00  0.00000000000E+00  0.93914364530E+02  0.93914364530E+02  0.00000000000E+00 0. -1.
          1   -1    0    0  501    0 -0.00000000000E+00 -0.00000000000E+00 -0.74735701210E+03  0.74735701210E+03  0.00000000000E+00 0. -1.
         25    2    1    2    0    0  0.34908018387E+02 -0.15773380978E+02 -0.47252392909E+02  0.13901502602E+03  0.12500007812E+03 0.  0.
          2    1    1    2  501    0  0.77109765516E+01  0.19256269486E+02 -0.64450634187E+03  0.64484004822E+03  0.00000000000E+00 0. -1.
          1    1    1    2  502    0 -0.42618994939E+02 -0.34828885079E+01  0.38316087205E+02  0.57416302394E+02  0.00000000000E+00 0. -1.
         22    1    3    3    0    0 -0.39065750738E+02  0.17822674421E+02 -0.37827126703E+02  0.57224750928E+02  0.00000000000E+00 0. -1.
         22    1    3    3    0    0  0.73973769124E+02 -0.33596055399E+02 -0.94252662063E+01  0.81790275094E+02  0.00000000000E+00 0. -1.
</event>
<event>
 7    1  0.6278987E-006  0.9868284E+02  0.7818608E-02  0.1371123E+00
          2   -1    0    0  502    0  0.00000000000E+00  0.00000000000E+00  0.20004015417E+04  0.20004015417E+04  0.00000000000E+00 0. -1.
          1   -1    0    0  501    0 -0.00000000000E+00 -0.00000000000E+00 -0.17114711941E+03  0.17114711941E+03  0.00000000000E+00 0. -1.
         25    2    1    2    0    0 -0.54221701742E+02  0.95412606563E+02 -0.17893115824E+02  0.16729432470E+03  0.12499467609E+03 0.  0.
          2    1    1    2  501    0  0.89420165913E+01 -0.96540375012E+02 -0.48263487833E+02  0.10830220647E+03  0.00000000000E+00 0. -1.
          1    1    1    2  502    0  0.45279685151E+02  0.11277684487E+01  0.18954110259E+04  0.18959521299E+04  0.00000000000E+00 0. -1.
         22    1    3    3    0    0 -0.89378747482E+02  0.81201356252E+02  0.85579662596E+01  0.12105973544E+03  0.00000000000E+00 0.  1.
         22    1    3    3    0    0  0.35157045739E+02  0.14211250311E+02 -0.26451082084E+02  0.46234589259E+02  0.00000000000E+00 0.  1.
</event>
<event>
 7    1  0.6278987E-006  0.2515183E+02  0.7818608E-02  0.1660144E+00
          2   -1    0    0  502    0  0.00000000000E+00  0.00000000000E+00  0.57447835819E+03  0.57447835819E+03  0.00000000000E+00 0. -1.
          1   -1    0    0  501    0 -0.00000000000E+00 -0.00000000000E+00 -0.82538210340E+03  0.82538210340E+03  0.00000000000E+00 0. -1.
         25    2    1    2    0    0  0.10929034247E+02 -0.74937262099E+01  0.56879467179E+02  0.13796797624E+03  0.12499715581E+03 0.  0.
          2    1    1    2  501    0  0.78574702873E+01  0.23939836730E+02 -0.78430870495E+03  0.78471332363E+03  0.00000000000E+00 0. -1.
          1    1    1    2  502    0 -0.18786504534E+02 -0.16446110520E+02  0.47652549257E+03  0.47717916171E+03  0.00000000000E+00 0. -1.
         22    1    3    3    0    0 -0.29079341488E+02  0.25535495287E+02  0.73855572077E+02  0.83380544180E+02  0.00000000000E+00 0.  1.
         22    1    3    3    0    0  0.40008375735E+02 -0.33029221497E+02 -0.16976104898E+02  0.54587432062E+02  0.00000000000E+00 0.  1.
</event>
<event>
 7    1  0.6278987E-006  0.1227882E+03  0.7818608E-02  0.1417316E+00
          2   -1    0    0  502    0  0.00000000000E+00  0.00000000000E+00  0.19537925221E+04  0.19537925221E+04  0.00000000000E+00 0. -1.
          1   -1    0    0  501    0 -0.00000000000E+00 -0.00000000000E+00 -0.20106906921E+04  0.20106906921E+04  0.00000000000E+00 0. -1.
         25    2    1    2    0    0 -0.33137632633E+02  0.95247405487E+02  0.14255998259E+03  0.21475184877E+03  0.12499934786E+03 0.  0.
          2    1    1    2  501    0  0.52585625592E+02 -0.11122528659E+03 -0.19725889728E+04  0.19764219105E+04  0.00000000000E+00 0. -1.
          1    1    1    2  502    0 -0.19447992959E+02  0.15977881105E+02  0.17731308202E+04  0.17733094549E+04  0.00000000000E+00 0. -1.
         22    1    3    3    0    0  0.16759057473E+02 -0.16804973664E+02  0.66054212436E+02  0.70188546984E+02  0.00000000000E+00 0.  1.
         22    1    3    3    0    0 -0.49896690106E+02  0.11205237915E+03  0.76505770158E+02  0.14456330179E+03  0.00000000000E+00 0.  1.
</event>
<event>
 7    1  0.6278987E-006  0.6610829E+02  0.7818608E-02  0.1462150E+00
          2   -1    0    0  502    0  0.00000000000E+00  0.00000000000E+00  0.33720161596E+03  0.33720161596E+03  0.00000000000E+00 0. -1.
          1   -1    0    0  501    0 -0.00000000000E+00 -0.00000000000E+00 -0.38217325132E+03  0.38217325132E+03  0.00000000000E+00 0. -1.
         25    2    1    2    0    0 -0.19127220523E+02  0.63318780271E+02  0.17649421731E+03  0.22616597849E+03  0.12500289030E+03 0.  0.
          2    1    1    2  501    0  0.47699105405E+02 -0.45955536704E+02 -0.35214526583E+03  0.35832025376E+03  0.00000000000E+00 0. -1.
          1    1    1    2  502    0 -0.28571884882E+02 -0.17363243567E+02  0.13067941317E+03  0.13488863502E+03  0.00000000000E+00 0. -1.
         22    1    3    3    0    0 -0.75464507397E+01  0.88008006378E+02  0.60633211266E+02  0.10713890243E+03  0.00000000000E+00 0. -1.
         22    1    3    3    0    0 -0.11580769783E+02 -0.24689226107E+02  0.11586100604E+03  0.11902707606E+03  0.00000000000E+00 0. -1.
</event>
<event>
 7    1  0.6278987E-006  0.6536568E+02  0.7818608E-02  0.1463849E+00
          2   -1    0    0  502    0  0.00000000000E+00  0.00000000000E+00  0.21253420523E+04  0.21253420523E+04  0.00000000000E+00 0. -1.
          1   -1    0    0  501    0 -0.00000000000E+00 -0.00000000000E+00 -0.28339699865E+02  0.28339699865E+02  0.00000000000E+00 0. -1.
         25    2    1    2    0    0  0.37241419441E+02  0.31421146833E+01  0.50540396283E+03  0.52197126027E+03  0.12499613870E+03 0.  0.
          2    1    1    2  501    0  0.29517985080E+02 -0.15630226595E+02 -0.49085323223E+01  0.33759578139E+02  0.00000000000E+00 0. -1.
          1    1    1    2  502    0 -0.66759404520E+02  0.12488111912E+02  0.15965069219E+04  0.15979509137E+04  0.00000000000E+00 0. -1.
         22    1    3    3    0    0  0.83130004732E+02 -0.21247574864E+00  0.35940695239E+03  0.36889564955E+03  0.00000000000E+00 0.  1.
         22    1    3    3    0    0 -0.45888585292E+02  0.33545904320E+01  0.14599701044E+03  0.15307561071E+03  0.00000000000E+00 0.  1.
</event>
<event>
 7    1  0.6278987E-006  0.1658528E+03  0.7818608E-02  0.1218813E+00
          2   -1    0    0  502    0  0.00000000000E+00  0.00000000000E+00  0.36426433366E+03  0.36426433366E+03  0.00000000000E+00 0. -1.
          1   -1    0    0  501    0 -0.00000000000E+00 -0.00000000000E+00 -0.10032510744E+04  0.10032510744E+04  0.00000000000E+00 0. -1.
         25    2    1    2    0    0  0.59114458408E+02 -0.17845692863E+02  0.68452611156E+02  0.15531923480E+03  0.12500126710E+03 0.  0.
          2    1    1    2  501    0 -0.16416758327E+03  0.55279467807E+02 -0.93917761274E+03  0.95501905910E+03  0.00000000000E+00 0. -1.
          1    1    1    2  502    0  0.10505312487E+03 -0.37433774945E+02  0.23173826080E+03  0.25717711421E+03  0.00000000000E+00 0. -1.
         22    1    3    3    0    0  0.41182805532E+02 -0.50172022902E+00 -0.31784511869E+02  0.52024324979E+02  0.00000000000E+00 0.  1.
         22    1    3    3    0    0  0.17931652876E+02 -0.17343972634E+02  0.10023712303E+03  0.10329490982E+03  0.00000000000E+00 0.  1.
</event>
<event>
 7    1  0.6278987E-006  0.2062409E+03  0.7818608E-02  0.1241617E+00
          2   -1    0    0  502    0  0.00000000000E+00  0.00000000000E+00  0.77805294766E+03  0.77805294766E+03  0.00000000000E+00 0. -1.
          1   -1    0    0  501    0 -0.00000000000E+00 -0.00000000000E+00 -0.15675355816E+04  0.15675355816E+04  0.00000000000E+00 0. -1.
         25    2    1    2    0    0 -0.11356871241E+03 -0.90948181967E+02 -0.11509853572E+03  0.22370247963E+03  0.12500280889E+03 0.  0.
          2    1    1    2  501    0  0.17598745165E+03  0.12451963874E+03 -0.13880588547E+04  0.14047007182E+04  0.00000000000E+00 0. -1.
          1    1    1    2  502    0 -0.62418739240E+02 -0.33571456770E+02  0.71367475643E+03  0.71718533148E+03  0.00000000000E+00 0. -1.
         22    1    3    3    0    0 -0.13583623170E+03 -0.97383628788E+02 -0.91162363679E+02  0.19038284994E+03  0.00000000000E+00 0. -1.
         22    1    3    3    0    0  0.22267519295E+02  0.64354468202E+01 -0.23936172038E+02  0.33319629697E+02  0.00000000000E+00 0. -1.
</event>
<event>
 7    1  0.6278987E-006  0.1109215E+03  0.7818608E-02  0.1301603E+00
          2   -1    0    0  502    0  0.00000000000E+00  0.00000000000E+00  0.87551577133E+03  0.87551577133E+03  0.00000000000E+00 0. -1.
          1   -1    0    0  501    0 -0.00000000000E+00 -0.00000000000E+00 -0.41162400261E+02  0.41162400261E+02  0.00000000000E+00 0. -1.
         25    2    1    2    0    0  0.77639632125E+02  0.21002747898E+02  0.30005250135E+03  0.33485200939E+03  0.12500134690E+03 0.  0.
          2    1    1    2  501    0 -0.10664340613E+03 -0.88937549324E+02  0.22982882752E+03  0.26852186822E+03  0.00000000000E+00 0. -1.
          1    1    1    2  502    0  0.29003774005E+02  0.67934801426E+02  0.30447204220E+03  0.31330429399E+03  0.00000000000E+00 0. -1.
         22    1    3    3    0    0  0.32895940879E+02 -0.50955971253E+02  0.16063440409E+03  0.17170342370E+03  0.00000000000E+00 0. -1.
         22    1    3    3    0    0  0.44743691246E+02  0.71958719151E+02  0.13941809726E+03  0.16314858569E+03  0.00000000000E+00 0. -1.
</event>
<event>
 7    1  0.6278987E-006  0.1856175E+03  0.7818608E-02  0.1204552E+00
          2   -1    0    0  502    0  0.00000000000E+00  0.00000000000E+00  0.12017160162E+04  0.12017160162E+04  0.00000000000E+00 0. -1.
          1   -1    0    0  501    0 -0.00000000000E+00 -0.00000000000E+00 -0.39126763231E+03  0.39126763231E+03  0.00000000000E+00 0. -1.
         25    2    1    2    0    0 -0.61109798772E+02  0.23610268873E+03  0.26586443424E+01  0.27406016016E+03  0.12499206321E+03 0.  0.
          2    1    1    2  501    0  0.11577242522E+03 -0.13380475135E+03 -0.22128854324E+03  0.28332946422E+03  0.00000000000E+00 0. -1.
          1    1    1    2  502    0 -0.54662626445E+02 -0.10229793738E+03  0.10290782827E+04  0.10355940241E+04  0.00000000000E+00 0. -1.
         22    1    3    3    0    0 -0.67136778680E+02  0.24412098211E+03 -0.15132238378E+02  0.25363632547E+03  0.00000000000E+00 0.  1.
         22    1    3    3    0    0  0.60269799079E+01 -0.80182933792E+01  0.17790882721E+02  0.20423834692E+02  0.00000000000E+00 0.  1.
</event>
<event>
 7    1  0.6278987E-006  0.4152867E+02  0.7818608E-02  0.1597066E+00
          2   -1    0    0  502    0  0.00000000000E+00  0.00000000000E+00  0.12498239133E+04  0.12498239133E+04  0.00000000000E+00 0. -1.
          1   -1    0    0  501    0 -0.00000000000E+00 -0.00000000000E+00 -0.63969798182E+03  0.63969798182E+03  0.00000000000E+00 0. -1.
         25    2    1    2    0    0 -0.30082716783E+02 -0.49685898359E+02  0.29480332785E+03  0.32543477203E+03  0.12500052154E+03 0.  0.
          2    1    1    2  501    0  0.30727723418E+02  0.27889528348E+02 -0.62356603612E+03  0.62494529375E+03  0.00000000000E+00 0. -1.
          1    1    1    2  502    0 -0.64500663562E+00  0.21796370011E+02  0.93888863973E+03  0.93914182933E+03  0.00000000000E+00 0. -1.
         22    1    3    3    0    0 -0.36924970207E+01 -0.63164826095E+02  0.28821440432E+03  0.29507790945E+03  0.00000000000E+00 0.  1.
         22    1    3    3    0    0 -0.26390219762E+02  0.13478927737E+02  0.65889235352E+01  0.30356862574E+02  0.00000000000E+00 0.  1.
</event>
<event>
 7    1  0.6278987E-006  0.1162524E+03  0.7818608E-02  0.1278045E+00
          2   -1    0    0  502    0  0.00000000000E+00  0.00000000000E+00  0.84156050296E+02  0.84156050296E+02  0.00000000000E+00 0. -1.
          1   -1    0    0  501    0 -0.00000000000E+00 -0.00000000000E+00 -0.39391581861E+04  0.39391581861E+04  0.00000000000E+00 0. -1.
         25    2    1    2    0    0 -0.15458352392E+03 -0.46415466113E+01 -0.11612797050E+04  0.11781826067E+04  0.12500436674E+03 0.  0.
          2    1    1    2  501    0  0.56987703973E+02  0.66903077889E+02 -0.27240444879E+04  0.27254617943E+04  0.00000000000E+00 0. -1.
          1    1    1    2  502    0  0.97595819944E+02 -0.62261531277E+02  0.30322057099E+02  0.11966983536E+03  0.00000000000E+00 0. -1.
         22    1    3    3    0    0 -0.21452824196E+02  0.47588762105E+02 -0.22045680832E+03  0.22655268324E+03  0.00000000000E+00 0.  1.
         22    1    3    3    0    0 -0.13313069972E+03 -0.52230308717E+02 -0.94082289665E+03  0.95162992346E+03  0.00000000000E+00 0.  1.
</event>
<event>
 7    1  0.6278987E-006  0.1060568E+03  0.7818608E-02  0.1397111E+00
          2   -1    0    0  502    0  0.00000000000E+00  0.00000000000E+00  0.81422467881E+03  0.81422467881E+03  0.00000000000E+00 0. -1.
          1   -1    0    0  501    0 -0.00000000000E+00 -0.00000000000E+00 -0.42955988776E+03  0.42955988776E+03  0.00000000000E+00 0. -1.
         25    2    1    2    0    0  0.10038724272E+03  0.19647318865E+02 -0.34343747776E+02  0.16512853361E+03  0.12499729581E+03 0.  0.
          2    1    1    2  501    0 -0.80315484284E+01  0.33180896889E+02 -0.32514622033E+03  0.32693354414E+03  0.00000000000E+00 0. -1.
          1    1    1    2  502    0 -0.92355694290E+02 -0.52828215754E+02  0.74415475915E+03  0.75172248883E+03  0.00000000000E+00 0. -1.
         22    1    3    3    0    0  0.91161616032E+02  0.62727078919E+02 -0.23536264890E+01  0.11068272776E+03  0.00000000000E+00 0. -1.
         22    1    3    3    0    0  0.92256266867E+01 -0.43079760054E+02 -0.31990121287E+02  0.54445805845E+02  0.00000000000E+00 0. -1.
</event>
<event>
 7    1  0.6278987E-006  0.1632732E+03  0.7818608E-02  0.1231649E+00
          2   -1    0    0  502    0  0.00000000000E+00  0.00000000000E+00  0.67674535287E+03  0.67674535287E+03  0.00000000000E+00 0. -1.
          1   -1    0    0  501    0 -0.00000000000E+00 -0.00000000000E+00 -0.52813780431E+03  0.52813780431E+03  0.00000000000E+00 0. -1.
         25    2    1    2    0    0 -0.15976911819E+03 -0.15156810136E+03  0.21614498006E+03  0.33293111940E+03  0.12500166952E+03 0.  0.
          2    1    1    2  501    0  0.15244633835E+03  0.52720491173E+02 -0.44938064961E+03  0.47745398156E+03  0.00000000000E+00 0. -1.
          1    1    1    2  502    0  0.73227798306E+01  0.98847610191E+02  0.38184321811E+03  0.39449805622E+03  0.00000000000E+00 0. -1.
         22    1    3    3    0    0 -0.67189692356E+02 -0.94298649389E+01  0.12025418887E+03  0.13807406365E+03  0.00000000000E+00 0.  1.
         22    1    3    3    0    0 -0.92579425830E+02 -0.14213823642E+03  0.95890791191E+02  0.19485705575E+03  0.00000000000E+00 0.  1.
</event>
<event>
 7    1  0.6278987E-006  0.1017834E+03  0.7818608E-02  0.1305568E+00
          2   -1    0    0  502    0  0.00000000000E+00  0.00000000000E+00  0.29827801525E+04  0.29827801525E+04  0.00000000000E+00 0. -1.
          1   -1    0    0  501    0 -0.00000000000E+00 -0.00000000000E+00 -0.39954190541E+03  0.39954190541E+03  0.00000000000E+00 0. -1.
         25    2    1    2    0    0  0.14919815653E+03  0.82991198998E+02 -0.18468173095E+02  0.21240110803E+03  0.12500211300E+03 0.  0.
          2    1    1    2  501    0 -0.90694527532E+02 -0.31970435958E+02 -0.27543132082E+03  0.29173621405E+03  0.00000000000E+00 0. -1.
          1    1    1    2  502    0 -0.58503628994E+02 -0.51020763040E+02  0.28771377410E+04  0.28781847358E+04  0.00000000000E+00 0. -1.
         22    1    3    3    0    0  0.42391123065E+01  0.41953071864E+02  0.32627791616E+02  0.53316067913E+02  0.00000000000E+00 0.  1.
         22    1    3    3    0    0  0.14495904422E+03  0.41038127134E+02 -0.51095964711E+02  0.15908504012E+03  0.00000000000E+00 0.  1.
</event>
<event>
 7    1  0.6278987E-006  0.8530796E+02  0.7818608E-02  0.1366477E+00
          2   -1    0    0  502    0  0.00000000000E+00  0.00000000000E+00  0.83225004072E+03  0.83225004072E+03  0.00000000000E+00 0. -1.
          1   -1    0    0  501    0 -0.00000000000E+00 -0.00000000000E+00 -0.34375269289E+03  0.34375269289E+03  0.00000000000E+00 0. -1.
         25    2    1    2    0    0 -0.43011338693E+02 -0.12912109621E+03  0.65828253930E+02  0.19616670342E+03  0.12500313505E+03 0.  0.
          2    1    1    2  501    0  0.34793329326E+02  0.75291688757E+02 -0.27131966380E+03  0.28371424731E+03  0.00000000000E+00 0. -1.
          1    1    1    2  502    0  0.82180093673E+01  0.53829407452E+02  0.69398875770E+03  0.69612178288E+03  0.00000000000E+00 0. -1.
         22    1    3    3    0    0 -0.61989977873E+02 -0.58961320847E+02  0.85415218700E+02  0.12089232522E+03  0.00000000000E+00 0. -1.
         22    1    3    3    0    0  0.18978639180E+02 -0.70159775362E+02 -0.19586964770E+02  0.75274378196E+02  0.00000000000E+00 0. -1.
</event>
<event>
 7    1  0.6278987E-006  0.9956684E+02  0.7818608E-02  0.1367224E+00
          2   -1    0    0  502    0  0.00000000000E+00  0.00000000000E+00  0.12195157162E+04  0.12195157162E+04  0.00000000000E+00 0. -1.
          1   -1    0    0  501    0 -0.00000000000E+00 -0.00000000000E+00 -0.10587564027E+04  0.10587564027E+04  0.00000000000E+00 0. -1.
         25    2    1    2    0    0 -0.14231035972E+03  0.19109298874E+02 -0.42481330619E+02  0.19505559728E+03  0.12499847516E+03 0.  0.
          2    1    1    2  501    0  0.46211540217E+02  0.37841247033E+01 -0.93727968937E+03  0.93842583199E+03  0.00000000000E+00 0. -1.
          1    1    1    2  502    0  0.96098819506E+02 -0.22893423577E+02  0.11405203334E+04  0.11447906896E+04  0.00000000000E+00 0. -1.
         22    1    3    3    0    0  0.13338375665E+02 -0.89612958705E+01 -0.32889714550E+02  0.36605333112E+02  0.00000000000E+00 0.  1.
         22    1    3    3    0    0 -0.15564873539E+03  0.28070594744E+02 -0.95916160692E+01  0.15845026417E+03  0.00000000000E+00 0.  1.
</event>
<event>
 7    1  0.6278987E-006  0.1011582E+03  0.7818608E-02  0.1404469E+00
          2   -1    0    0  502    0  0.00000000000E+00  0.00000000000E+00  0.58444708850E+03  0.58444708850E+03  0.00000000000E+00 0. -1.
          1   -1    0    0  501    0 -0.00000000000E+00 -0.00000000000E+00 -0.24664050043E+03  0.24664050043E+03  0.00000000000E+00 0. -1.
         25    2    1    2    0    0  0.10066820988E+03 -0.72927872816E+02  0.26487290824E+03  0.31817376601E+03  0.12499729894E+03 0.  0.
          2    1    1    2  501    0 -0.66948838469E+02  0.74754649244E+02 -0.20747997941E+03  0.23047417732E+03  0.00000000000E+00 0. -1.
          1    1    1    2  502    0 -0.33719371412E+02 -0.18267764286E+01  0.28041365923E+03  0.28243964560E+03  0.00000000000E+00 0. -1.
         22    1    3    3    0    0  0.16810647034E+02 -0.18791639608E+02 -0.89272790952E+01  0.26747334164E+02  0.00000000000E+00 0.  1.
         22    1    3    3    0    0  0.83857562846E+02 -0.54136233208E+02  0.27380018733E+03  0.29142643184E+03  0.00000000000E+00 0.  1.
</event>
<event>
 7    1  0.8850080E-006  0.1034264E+03  0.7818608E-02  0.1403971E+00
          2   -1    0    0  502    0  0.00000000000E+00  0.00000000000E+00  0.16969205301E+04  0.16969205301E+04  0.00000000000E+00 0. -1.
          1   -1    0    0  501    0 -0.00000000000E+00 -0.00000000000E+00 -0.13222916379E+04  0.13222916379E+04  0.00000000000E+00 0. -1.
         25    2    1    2    0    0  0.54765551723E+02  0.12102422154E+03 -0.39407092535E+03  0.43423834266E+03  0.12499966471E+03 0.  0.
          2    1    1    2  501    0 -0.24630440070E+02 -0.22199114942E+02 -0.90624204804E+03  0.90684844871E+03  0.00000000000E+00 0. -1.
          1    1    1    2  502    0 -0.30135111653E+02 -0.98825106601E+02  0.16749418656E+04  0.16781253767E+04  0.00000000000E+00 0. -1.
         22    1    3    3    0    0 -0.11146528326E+02  0.11522806999E+03 -0.26548286865E+03  0.28962545944E+03  0.00000000000E+00 0. -1.
         22    1    3    3    0    0  0.65912080049E+02  0.57961515498E+01 -0.12858805670E+03  0.14461288323E+03  0.00000000000E+00 0. -1.
</event>
<event>
 7    1  0.6278987E-006  0.1029666E+03  0.7818608E-02  0.1320554E+00
          2   -1    0    0  502    0  0.00000000000E+00  0.00000000000E+00  0.34742980867E+03  0.34742980867E+03  0.00000000000E+00 0. -1.
          1   -1    0    0  501    0 -0.00000000000E+00 -0.00000000000E+00 -0.73699761514E+03  0.73699761514E+03  0.00000000000E+00 0. -1.
         25    2    1    2    0    0  0.52217112930E+02 -0.23826560434E+02 -0.37575392342E+03  0.40013863919E+03  0.12500235095E+03 0.  0.
          2    1    1    2  501    0 -0.12508310776E+01 -0.67009067440E+02 -0.33758650889E+03  0.34417500008E+03  0.00000000000E+00 0. -1.
          1    1    1    2  502    0 -0.50966281853E+02  0.90835627874E+02  0.32377262585E+03  0.34011378453E+03  0.00000000000E+00 0. -1.
         22    1    3    3    0    0  0.55806352832E+02  0.52614469812E+00 -0.37086679653E+03  0.37504240642E+03  0.00000000000E+00 0.  1.
         22    1    3    3    0    0 -0.35892399020E+01 -0.24352705132E+02 -0.48871268959E+01  0.25096232777E+02  0.00000000000E+00 0.  1.
</event>
<event>
 7    1  0.6278987E-006  0.7491017E+02  0.7818608E-02  0.1486090E+00
          2   -1    0    0  502    0  0.00000000000E+00  0.00000000000E+00  0.27269993928E+03  0.27269993928E+03  0.00000000000E+00 0. -1.
          1   -1    0    0  501    0 -0.00000000000E+00 -0.00000000000E+00 -0.14619349629E+04  0.14619349629E+04  0.00000000000E+00 0. -1.
         25    2    1    2    0    0  0.58994267928E+02 -0.32781759180E+02  0.13925691428E+03  0.19892897272E+03  0.12500112252E+03 0.  0.
          2    1    1    2  501    0  0.19020772335E+02  0.16038589161E+02 -0.14166109103E+04  0.14168293819E+04  0.00000000000E+00 0. -1.
          1    1    1    2  502    0 -0.78015040263E+02  0.16743170018E+02  0.88118972455E+02  0.11887654754E+03  0.00000000000E+00 0. -1.
         22    1    3    3    0    0  0.52528661510E+02 -0.35299757707E+02  0.16264978417E+03  0.17452875254E+03  0.00000000000E+00 0.  1.
         22    1    3    3    0    0  0.64656064176E+01  0.25179985271E+01 -0.23392869892E+02  0.24400220177E+02  0.00000000000E+00 0.  1.
</event>
<event>
 7    1  0.6278987E-006  0.1253282E+03  0.7818608E-02  0.1403091E+00
          2   -1    0    0  502    0  0.00000000000E+00  0.00000000000E+00  0.75681075710E+03  0.75681075710E+03  0.00000000000E+00 0. -1.
          1   -1    0    0  501    0 -0.00000000000E+00 -0.00000000000E+00 -0.17759701588E+04  0.17759701588E+04  0.00000000000E+00 0. -1.
         25    2    1    2    0    0  0.13467234367E+03  0.36032058439E+02  0.51842166975E+02  0.19428466395E+03  0.12499588388E+03 0.  0.
          2    1    1    2  501    0 -0.10844014745E+02 -0.25330069576E+02 -0.16985421932E+04  0.16987656658E+04  0.00000000000E+00 0. -1.
          1    1    1    2  502    0 -0.12382832892E+03 -0.10701988863E+02  0.62754062447E+03  0.63973058624E+03  0.00000000000E+00 0. -1.
         22    1    3    3    0    0  0.15391193557E+02  0.73449756923E+01 -0.38380302296E+02  0.41998632256E+02  0.00000000000E+00 0.  1.
         22    1    3    3    0    0  0.11928115011E+03  0.28687082747E+02  0.90222469272E+02  0.15228603170E+03  0.00000000000E+00 0.  1.
</event>
<event>
 7    1  0.6278987E-006  0.7602954E+02  0.7818608E-02  0.1371671E+00
          2   -1    0    0  502    0  0.00000000000E+00  0.00000000000E+00  0.12251713961E+04  0.12251713961E+04  0.00000000000E+00 0. -1.
          1   -1    0    0  501    0 -0.00000000000E+00 -0.00000000000E+00 -0.25234836577E+03  0.25234836577E+03  0.00000000000E+00 0. -1.
         25    2    1    2    0    0  0.11991548384E+02 -0.73097443388E+02 -0.45452580267E+00  0.14529410665E+03  0.12499254926E+03 0.  0.
          2    1    1    2  501    0 -0.63818482188E+02  0.45913031329E+02 -0.17007998274E+03  0.18737130422E+03  0.00000000000E+00 0. -1.
          1    1    1    2  502    0  0.51826933804E+02  0.27184412058E+02  0.11433575389E+04  0.11448543510E+04  0.00000000000E+00 0. -1.
         22    1    3    3    0    0 -0.53038847208E+02 -0.57540646721E+02 -0.37662856519E+01  0.78346858557E+02  0.00000000000E+00 0.  1.
         22    1    3    3    0    0  0.65030395592E+02 -0.15556796667E+02  0.33117598493E+01  0.66947248089E+02  0.00000000000E+00 0.  1.
</event>
<event>
 7    1  0.6278987E-006  0.6357259E+02  0.7818608E-02  0.1465052E+00
          2   -1    0    0  502    0  0.00000000000E+00  0.00000000000E+00  0.24141044596E+04  0.24141044596E+04  0.00000000000E+00 0. -1.
          1   -1    0    0  501    0 -0.00000000000E+00 -0.00000000000E+00 -0.67514429857E+02  0.67514429857E+02  0.00000000000E+00 0. -1.
         25    2    1    2    0    0  0.94834372800E+01 -0.34601998926E+02  0.14825474689E+03  0.19720725331E+03  0.12499598742E+03 0.  0.
          2    1    1    2  501    0 -0.27420468066E+01  0.67973751523E+02 -0.15942509717E+02  0.69872121285E+02  0.00000000000E+00 0. -1.
          1    1    1    2  502    0 -0.67413904733E+01 -0.33371752597E+02  0.22142777926E+04  0.22145395149E+04  0.00000000000E+00 0. -1.
         22    1    3    3    0    0  0.60424795456E+02 -0.29869933745E+02  0.42382836120E+02  0.79622067578E+02  0.00000000000E+00 0. -1.
         22    1    3    3    0    0 -0.50941358176E+02 -0.47320651802E+01  0.10587191077E+03  0.11758518574E+03  0.00000000000E+00 0. -1.
</event>
<event>
 7    1  0.6278987E-006  0.5179946E+02  0.7818608E-02  0.1455833E+00
          2   -1    0    0  502    0  0.00000000000E+00  0.00000000000E+00  0.89193453851E+03  0.89193453851E+03  0.00000000000E+00 0. -1.
          1   -1    0    0  501    0 -0.00000000000E+00 -0.00000000000E+00 -0.32527811039E+02  0.32527811039E+02  0.00000000000E+00 0. -1.
         25    2    1    2    0    0 -0.59448647273E+02 -0.19876142899E+01  0.22155281869E+03  0.26124465396E+03  0.12500010191E+03 0.  0.
          2    1    1    2  501    0  0.38351385256E+02 -0.37393247876E+02  0.48764418208E+02  0.72436539267E+02  0.00000000000E+00 0. -1.
          1    1    1    2  502    0  0.21097262017E+02  0.39380862166E+02  0.58908949057E+03  0.59078115633E+03  0.00000000000E+00 0. -1.
         22    1    3    3    0    0 -0.62096443060E+02 -0.50889639512E+02  0.17971639593E+03  0.19683421100E+03  0.00000000000E+00 0.  1.
         22    1    3    3    0    0  0.26477957866E+01  0.48902025222E+02  0.41836422758E+02  0.64410442962E+02  0.00000000000E+00 0.  1.
</event>
<event>
 7    1  0.6278987E-006  0.5282497E+02  0.7818608E-02  0.1458479E+00
          2   -1    0    0  502    0  0.00000000000E+00  0.00000000000E+00  0.31903828877E+03  0.31903828877E+03  0.00000000000E+00 0. -1.
          1   -1    0    0  501    0 -0.00000000000E+00 -0.00000000000E+00 -0.87205763289E+03  0.87205763289E+03  0.00000000000E+00 0. -1.
         25    2    1    2    0    0 -0.51037770198E+02  0.40392984706E-01  0.13772218397E+03  0.19286490792E+03  0.12499846852E+03 0.  0.
          2    1    1    2  501    0  0.13155325814E+02  0.40908350302E+02 -0.83885800848E+03  0.83995792401E+03  0.00000000000E+00 0. -1.
          1    1    1    2  502    0  0.37882444384E+02 -0.40948743286E+02  0.14811648039E+03  0.15827308973E+03  0.00000000000E+00 0. -1.
         22    1    3    3    0    0  0.24802600934E+02 -0.41639984467E+02  0.48297313092E+02  0.68422860006E+02  0.00000000000E+00 0. -1.
         22    1    3    3    0    0 -0.75840371132E+02  0.41680377452E+02  0.89424870879E+02  0.12444204792E+03  0.00000000000E+00 0. -1.
</event>
<event>
 7    1  0.6278987E-006  0.7913232E+02  0.7818608E-02  0.1422881E+00
          2   -1    0    0  502    0  0.00000000000E+00  0.00000000000E+00  0.96934939910E+03  0.96934939910E+03  0.00000000000E+00 0. -1.
          1   -1    0    0  501    0 -0.00000000000E+00 -0.00000000000E+00 -0.34491331508E+03  0.34491331508E+03  0.00000000000E+00 0. -1.
         25    2    1    2    0    0 -0.78935309017E+02  0.83318698985E+02 -0.54974028995E+02  0.17837143253E+03  0.12498574107E+03 0.  0.
          2    1    1    2  501    0  0.19350531662E+02 -0.32028011208E+02 -0.22498991171E+03  0.22808046156E+03  0.00000000000E+00 0. -1.
          1    1    1    2  502    0  0.59584777355E+02 -0.51290687777E+02  0.90440002472E+03  0.90781082009E+03  0.00000000000E+00 0. -1.
         22    1    3    3    0    0  0.26857820301E+02 -0.17916165792E+01 -0.30015951624E+02  0.40317610956E+02  0.00000000000E+00 0. -1.
         22    1    3    3    0    0 -0.10579312932E+03  0.85110315564E+02 -0.24958077371E+02  0.13805382158E+03  0.00000000000E+00 0. -1.
</event>
<event>
 7    1  0.6278987E-006  0.2117382E+03  0.7818608E-02  0.1253758E+00
          2   -1    0    0  502    0  0.00000000000E+00  0.00000000000E+00  0.27667904874E+03  0.27667904874E+03  0.00000000000E+00 0. -1.
          1   -1    0    0  501    0 -0.00000000000E+00 -0.00000000000E+00 -0.88257418534E+03  0.88257418534E+03  0.00000000000E+00 0. -1.
         25    2    1    2    0    0 -0.30029954693E+02 -0.16916727907E+03 -0.11741052286E+03  0.24274552259E+03  0.12498316435E+03 0.  0.
          2    1    1    2  501    0 -0.41810949813E+02 -0.44583368548E+02 -0.64123531396E+03  0.64414172364E+03  0.00000000000E+00 0. -1.
          1    1    1    2  502    0  0.71840904506E+02  0.21375064762E+03  0.15275070022E+03  0.27236598784E+03  0.00000000000E+00 0. -1.
         22    1    3    3    0    0 -0.42377354251E+01 -0.10560730867E+03 -0.13546200600E+03  0.17181623065E+03  0.00000000000E+00 0.  1.
         22    1    3    3    0    0 -0.25792219268E+02 -0.63559970398E+02  0.18051483134E+02  0.70929291940E+02  0.00000000000E+00 0.  1.
</event>
<event>
 7    1  0.6278987E-006  0.1476029E+03  0.7818608E-02  0.1389499E+00
          2   -1    0    0  502    0  0.00000000000E+00  0.00000000000E+00  0.18649534401E+04  0.18649534401E+04  0.00000000000E+00 0. -1.
          1   -1    0    0  501    0 -0.00000000000E+00 -0.00000000000E+00 -0.64589778283E+03  0.64589778283E+03  0.00000000000E+00 0. -1.
         25    2    1    2    0    0  0.52183126352E+02 -0.15987619889E+03  0.25462647381E+03  0.32976205519E+03  0.12499957694E+03 0.  0.
          2    1    1    2  501    0 -0.18938548364E+02  0.17914837386E+02 -0.60466940504E+03  0.60523111239E+03  0.00000000000E+00 0. -1.
          1    1    1    2  502    0 -0.33244577989E+02  0.14196136150E+03  0.15690985885E+04  0.15758580553E+04  0.00000000000E+00 0. -1.
         22    1    3    3    0    0  0.85372515356E+02 -0.14587082434E+03  0.23265261849E+03  0.28756565278E+03  0.00000000000E+00 0. -1.
         22    1    3    3    0    0 -0.33189389004E+02 -0.14005374550E+02  0.21973855316E+02  0.42196402408E+02  0.00000000000E+00 0. -1.
</event>
<event>
 7    1  0.6278987E-006  0.1253811E+03  0.7818608E-02  0.1302189E+00
          2   -1    0    0  502    0  0.00000000000E+00  0.00000000000E+00  0.66162838282E+03  0.66162838282E+03  0.00000000000E+00 0. -1.
          1   -1    0    0  501    0 -0.00000000000E+00 -0.00000000000E+00 -0.13042047295E+04  0.13042047295E+04  0.00000000000E+00 0. -1.
         25    2    1    2    0    0  0.23996352571E+01 -0.74972434022E+02  0.12904797836E+03  0.19469647562E+03  0.12500685097E+03 0.  0.
          2    1    1    2  501    0 -0.54144173025E+02  0.11430649068E+03 -0.12661027296E+04  0.12724046869E+04  0.00000000000E+00 0. -1.
          1    1    1    2  502    0  0.51744537768E+02 -0.39334056661E+02  0.49447840456E+03  0.49873194982E+03  0.00000000000E+00 0. -1.
         22    1    3    3    0    0  0.22939405020E+02 -0.10281301238E+03  0.70715125101E+02  0.12687537482E+03  0.00000000000E+00 0. -1.
         22    1    3    3    0    0 -0.20539769763E+02  0.27840578357E+02  0.58332853257E+02  0.67821100804E+02  0.00000000000E+00 0. -1.
</event>
<event>
 7    1  0.8283367E-006  0.6582373E+02  0.7818608E-02  0.1424322E+00
          2   -1    0    0  502    0  0.00000000000E+00  0.00000000000E+00  0.17907436544E+04  0.17907436544E+04  0.00000000000E+00 0. -1.
          1   -1    0    0  501    0 -0.00000000000E+00 -0.00000000000E+00 -0.79513294366E+03  0.79513294366E+03  0.00000000000E+00 0. -1.
         25    2    1    2    0    0  0.60155379537E+01 -0.33447196025E+02 -0.28495361559E+03  0.31301181198E+03  0.12499171885E+03 0.  0.
          2    1    1    2  501    0 -0.42863076652E+02  0.58383213432E+02 -0.49322651393E+03  0.49851603484E+03  0.00000000000E+00 0. -1.
          1    1    1    2  502    0  0.36847538698E+02 -0.24936017407E+02  0.17737908402E+04  0.17743487512E+04  0.00000000000E+00 0. -1.
         22    1    3    3    0    0 -0.21231607876E+02 -0.48155744368E+02 -0.39987558617E+02  0.66096609087E+02  0.00000000000E+00 0. -1.
         22    1    3    3    0    0  0.27247145829E+02  0.14708548344E+02 -0.24496605697E+03  0.24691520289E+03  0.00000000000E+00 0. -1.
</event>
<event>
 7    1  0.6278987E-006  0.1338578E+03  0.7818608E-02  0.1366855E+00
          2   -1    0    0  502    0  0.00000000000E+00  0.00000000000E+00  0.10803372297E+04  0.10803372297E+04  0.00000000000E+00 0. -1.
          1   -1    0    0  501    0 -0.00000000000E+00 -0.00000000000E+00 -0.49711190973E+03  0.49711190973E+03  0.00000000000E+00 0. -1.
         25    2    1    2    0    0 -0.12575760639E+03 -0.79488711279E+02 -0.21878888747E+03  0.29261917613E+03  0.12499589663E+03 0.  0.
          2    1    1    2  501    0  0.31185774614E+02 -0.14973744726E+02 -0.23586006995E+03  0.23838359458E+03  0.00000000000E+00 0. -1.
          1    1    1    2  502    0  0.94571831778E+02  0.94462456006E+02  0.10378742774E+04  0.10464463688E+04  0.00000000000E+00 0. -1.
         22    1    3    3    0    0 -0.78905516959E+01  0.24719097300E+02 -0.75445718463E+02  0.79783149924E+02  0.00000000000E+00 0.  1.
         22    1    3    3    0    0 -0.11786705470E+03 -0.10420780858E+03 -0.14334316901E+03  0.21283602621E+03  0.00000000000E+00 0.  1.
</event>
<event>
 7    1  0.6278987E-006  0.3772866E+02  0.7818608E-02  0.1561427E+00
          2   -1    0    0  502    0  0.00000000000E+00  0.00000000000E+00  0.29858245393E+03  0.29858245393E+03  0.00000000000E+00 0. -1.
          1   -1    0    0  501    0 -0.00000000000E+00 -0.00000000000E+00 -0.93098357224E+03  0.93098357224E+03  0.00000000000E+00 0. -1.
         25    2    1    2    0    0 -0.60839553367E+02 -0.29451638794E+02 -0.75382023257E+03  0.76709729906E+03  0.12499789163E+03 0.  0.
          2    1    1    2  501    0  0.26751095122E+02  0.13395105241E+02 -0.16798176585E+03  0.17062509661E+03  0.00000000000E+00 0. -1.
          1    1    1    2  502    0  0.34088458245E+02  0.16056533553E+02  0.28940088011E+03  0.29184363050E+03  0.00000000000E+00 0. -1.
         22    1    3    3    0    0  0.25883470707E+02 -0.67585729981E+01 -0.42967583938E+02  0.50614678052E+02  0.00000000000E+00 0. -1.
         22    1    3    3    0    0 -0.86723024073E+02 -0.22693065795E+02 -0.71085264863E+03  0.71648262101E+03  0.00000000000E+00 0. -1.
</event>
<event>
 7    1  0.6278987E-006  0.1470797E+03  0.7818608E-02  0.1407159E+00
          2   -1    0    0  502    0  0.00000000000E+00  0.00000000000E+00  0.55392412627E+03  0.55392412627E+03  0.00000000000E+00 0. -1.
          1   -1    0    0  501    0 -0.00000000000E+00 -0.00000000000E+00 -0.24547169831E+03  0.24547169831E+03  0.00000000000E+00 0. -1.
         25    2    1    2    0    0  0.13012187551E+03  0.32234325070E+02  0.34196553584E+03  0.38798796942E+03  0.12499392990E+03 0.  0.
          2    1    1    2  501    0 -0.13799932277E+03 -0.53566409215E+02 -0.19695996128E+03  0.24638668720E+03  0.00000000000E+00 0. -1.
          1    1    1    2  502    0  0.78774472585E+01  0.21332084145E+02  0.16344685340E+03  0.16502116796E+03  0.00000000000E+00 0. -1.
         22    1    3    3    0    0  0.12238676836E+03  0.14485110231E+02  0.14596880263E+03  0.19103724985E+03  0.00000000000E+00 0.  1.
         22    1    3    3    0    0  0.77351071476E+01  0.17749214840E+02  0.19599673321E+03  0.19695071957E+03  0.00000000000E+00 0.  1.
</event>
<event>
 7    1  0.6278987E-006  0.5503297E+02  0.7818608E-02  0.1494598E+00
          2   -1    0    0  502    0  0.00000000000E+00  0.00000000000E+00  0.17694948985E+04  0.17694948985E+04  0.00000000000E+00 0. -1.
          1   -1    0    0  501    0 -0.00000000000E+00 -0.00000000000E+00 -0.23274595406E+02  0.23274595406E+02  0.00000000000E+00 0. -1.
         25    2    1    2    0    0  0.24354091900E+02  0.70443067113E+01  0.16320537656E+03  0.20713480758E+03  0.12500435802E+03 0.  0.
          2    1    1    2  501    0  0.24065959428E+02  0.20967186918E+02  0.38775275970E+03  0.38906425689E+03  0.00000000000E+00 0. -1.
          1    1    1    2  502    0 -0.48420051328E+02 -0.28011493630E+02  0.11952621669E+04  0.11965704295E+04  0.00000000000E+00 0. -1.
         22    1    3    3    0    0 -0.39406205615E+02  0.39635200665E+02  0.74473407064E+02  0.93113299439E+02  0.00000000000E+00 0. -1.
         22    1    3    3    0    0  0.63760297516E+02 -0.32590893953E+02  0.88731969493E+02  0.11402150814E+03  0.00000000000E+00 0. -1.
</event>
<event>
 7    1  0.6278987E-006  0.5835867E+02  0.7818608E-02  0.1418755E+00
          2   -1    0    0  502    0  0.00000000000E+00  0.00000000000E+00  0.16851155843E+04  0.16851155843E+04  0.00000000000E+00 0. -1.
          1   -1    0    0  501    0 -0.00000000000E+00 -0.00000000000E+00 -0.33125387898E+02  0.33125387898E+02  0.00000000000E+00 0. -1.
         25    2    1    2    0    0  0.10357432442E+03 -0.17860105553E+02  0.36438110366E+03  0.39930671783E+03  0.12500256859E+03 0.  0.
          2    1    1    2  501    0 -0.51982405846E+02  0.88464889519E+01  0.30864179139E+02  0.61098514206E+02  0.00000000000E+00 0. -1.
          1    1    1    2  502    0 -0.51591918575E+02  0.90136166010E+01  0.12567449136E+04  0.12578357401E+04  0.00000000000E+00 0. -1.
         22    1    3    3    0    0  0.49781663590E+02  0.49850901502E+02  0.10998591693E+03  0.13061480901E+03  0.00000000000E+00 0. -1.
         22    1    3    3    0    0  0.53792660831E+02 -0.67711007055E+02  0.25439518672E+03  0.26869190882E+03  0.00000000000E+00 0. -1.
</event>
<event>
 7    1  0.6278987E-006  0.1480200E+03  0.7818608E-02  0.1322997E+00
          2   -1    0    0  502    0  0.00000000000E+00  0.00000000000E+00  0.74648735900E+03  0.74648735900E+03  0.00000000000E+00 0. -1.
          1   -1    0    0  501    0 -0.00000000000E+00 -0.00000000000E+00 -0.98306948966E+02  0.98306948966E+02  0.00000000000E+00 0. -1.
         25    2    1    2    0    0 -0.38351958630E+02 -0.13799831612E+03  0.48970938622E+03  0.52531759398E+03  0.12501553349E+03 0.  0.
          2    1    1    2  501    0  0.82084424632E+02  0.12502063586E+03 -0.51175138557E+01  0.14964692147E+03  0.00000000000E+00 0. -1.
          1    1    1    2  502    0 -0.43732466002E+02  0.12977680263E+02  0.16358853767E+03  0.16982979251E+03  0.00000000000E+00 0. -1.
         22    1    3    3    0    0  0.10311169837E+02 -0.45369476497E+02  0.33702336030E+03  0.34021971579E+03  0.00000000000E+00 0. -1.
         22    1    3    3    0    0 -0.48663128467E+02 -0.92628839623E+02  0.15268602591E+03  0.18509787819E+03  0.00000000000E+00 0. -1.
</event>
<event>
 7    1  0.6278987E-006  0.1205551E+03  0.7818608E-02  0.1250202E+00
          2   -1    0    0  502    0  0.00000000000E+00  0.00000000000E+00  0.28289183921E+04  0.28289183921E+04  0.00000000000E+00 0. -1.
          1   -1    0    0  501    0 -0.00000000000E+00 -0.00000000000E+00 -0.49523897349E+02  0.49523897349E+02  0.00000000000E+00 0. -1.
         25    2    1    2    0    0  0.11391325307E+03  0.28759936514E+02  0.16468040875E+03  0.23779523685E+03  0.12499429774E+03 0.  0.
          2    1    1    2  501    0 -0.84570210198E+02 -0.13603914152E+03  0.54771597327E+03  0.57065887871E+03  0.00000000000E+00 0. -1.
          1    1    1    2  502    0 -0.29343042875E+02  0.10727920501E+03  0.20669981128E+04  0.20699881739E+04  0.00000000000E+00 0. -1.
         22    1    3    3    0    0  0.86707482100E+02  0.32412926474E-01  0.17637655275E+03  0.19653721496E+03  0.00000000000E+00 0.  1.
         22    1    3    3    0    0  0.27205770973E+02  0.28727523587E+02 -0.11696144004E+02  0.41258021890E+02  0.00000000000E+00 0.  1.
</event>
<event>
 7    1  0.6278987E-006  0.1018310E+03  0.7818608E-02  0.1328356E+00
          2   -1    0    0  502    0  0.00000000000E+00  0.00000000000E+00  0.23275231405E+04  0.23275231405E+04  0.00000000000E+00 0. -1.
          1   -1    0    0  501    0 -0.00000000000E+00 -0.00000000000E+00 -0.50768110866E+02  0.50768110866E+02  0.00000000000E+00 0. -1.
         25    2    1    2    0    0  0.13556885784E+03 -0.77399868280E+02  0.46930729197E+03  0.51014333865E+03  0.12500894706E+03 0.  0.
          2    1    1    2  501    0 -0.85075776282E+02  0.39331085906E+02  0.43955898635E+02  0.10352266927E+03  0.00000000000E+00 0. -1.
          1    1    1    2  502    0 -0.50493081559E+02  0.38068782374E+02  0.17634918391E+04  0.17646252435E+04  0.00000000000E+00 0. -1.
         22    1    3    3    0    0  0.12017274715E+03 -0.49799394209E+01  0.22865172282E+03  0.25835614818E+03  0.00000000000E+00 0. -1.
         22    1    3    3    0    0  0.15396110688E+02 -0.72419928859E+02  0.24065556915E+03  0.25178719047E+03  0.00000000000E+00 0. -1.
</event>
<event>
 7    1  0.6278987E-006  0.1411826E+03  0.7818608E-02  0.1410075E+00
          2   -1    0    0  502    0  0.00000000000E+00  0.00000000000E+00  0.57704506990E+03  0.57704506990E+03  0.00000000000E+00 0. -1.
          1   -1    0    0  501    0 -0.00000000000E+00 -0.00000000000E+00 -0.16827972390E+03  0.16827972390E+03  0.00000000000E+00 0. -1.
         25    2    1    2    0    0 -0.10301669227E+03  0.12312046342E+03  0.35094447337E+03  0.40565844946E+03  0.12500266730E+03 0.  0.
          2    1    1    2  501    0  0.82478614452E+02 -0.11242514092E+03 -0.10541368515E+03  0.17479753766E+03  0.00000000000E+00 0. -1.
          1    1    1    2  502    0  0.20538077816E+02 -0.10695322499E+02  0.16323455778E+03  0.16486880668E+03  0.00000000000E+00 0. -1.
         22    1    3    3    0    0 -0.76572705227E+02  0.14536192040E+03  0.31790586147E+03  0.35785137117E+03  0.00000000000E+00 0.  1.
         22    1    3    3    0    0 -0.26443987041E+02 -0.22241456976E+02  0.33038611901E+02  0.47807078298E+02  0.00000000000E+00 0.  1.
</event>
<event>
 7    1  0.6278987E-006  0.4044788E+02  0.7818608E-02  0.1550876E+00
          2   -1    0    0  502    0  0.00000000000E+00  0.00000000000E+00  0.94822290553E+01  0.94822290553E+01  0.00000000000E+00 0. -1.
          1   -1    0    0  501    0 -0.00000000000E+00 -0.00000000000E+00 -0.11355044931E+04  0.11355044931E+04  0.00000000000E+00 0. -1.
         25    2    1    2    0    0 -0.17794930803E+02 -0.19015264647E+01 -0.66319895345E+03  0.67511277536E+03  0.12499652884E+03 0.  0.
          2    1    1    2  501    0 -0.29538191530E+02 -0.42780674514E+01 -0.24928140045E+03  0.25106179165E+03  0.00000000000E+00 0. -1.
          1    1    1    2  502    0  0.47333122333E+02  0.61795939162E+01 -0.21354191016E+03  0.21881215516E+03  0.00000000000E+00 0. -1.
         22    1    3    3    0    0  0.49370774076E+02  0.31057377201E+00 -0.15994365012E+03  0.16739038503E+03  0.00000000000E+00 0. -1.
         22    1    3    3    0    0 -0.67165704880E+02 -0.22121002367E+01 -0.50325530334E+03  0.50772239032E+03  0.00000000000E+00 0. -1.
</event>
<event>
 7    1  0.6278987E-006  0.6851543E+02  0.7818608E-02  0.1460958E+00
          2   -1    0    0  502    0  0.00000000000E+00  0.00000000000E+00  0.16564431806E+04  0.16564431806E+04  0.00000000000E+00 0. -1.
          1   -1    0    0  501    0 -0.00000000000E+00 -0.00000000000E+00 -0.14893548587E+03  0.14893548587E+03  0.00000000000E+00 0. -1.
         25    2    1    2    0    0 -0.89418063244E+02  0.31527584745E+02  0.31179804447E+03  0.34904472121E+03  0.12499847291E+03 0.  0.
          2    1    1    2  501    0  0.32266465459E+02  0.42051823310E+01 -0.12740953646E+03  0.13149904308E+03  0.00000000000E+00 0. -1.
          1    1    1    2  502    0  0.57151597785E+02 -0.35732767076E+02  0.13231191867E+04  0.13248349021E+04  0.00000000000E+00 0. -1.
         22    1    3    3    0    0 -0.61172242945E+01 -0.23760979678E+02  0.18949443235E+03  0.19107627922E+03  0.00000000000E+00 0. -1.
         22    1    3    3    0    0 -0.83300838950E+02  0.55288564423E+02  0.12230361212E+03  0.15796844199E+03  0.00000000000E+00 0. -1.
</event>
<event>
 7    1  0.6278987E-006  0.5668413E+02  0.7818608E-02  0.1492239E+00
          2   -1    0    0  502    0  0.00000000000E+00  0.00000000000E+00  0.19779455004E+04  0.19779455004E+04  0.00000000000E+00 0. -1.
          1   -1    0    0  501    0 -0.00000000000E+00 -0.00000000000E+00 -0.55835209026E+03  0.55835209026E+03  0.00000000000E+00 0. -1.
         25    2    1    2    0    0 -0.22544659021E+02 -0.81722823370E+02  0.73761290750E+02  0.16808549350E+03  0.12500049440E+03 0.  0.
          2    1    1    2  501    0  0.18607258001E+02  0.25416659262E+02 -0.51027531354E+03  0.51124664520E+03  0.00000000000E+00 0. -1.
          1    1    1    2  502    0  0.39374010200E+01  0.56306164108E+02  0.18561074329E+04  0.18569654519E+04  0.00000000000E+00 0. -1.
         22    1    3    3    0    0  0.78889252255E+01 -0.76573922290E+02 -0.11109014749E+02  0.77776673397E+02  0.00000000000E+00 0. -1.
         22    1    3    3    0    0 -0.30433584247E+02 -0.51489010801E+01  0.84870305499E+02  0.90308820100E+02  0.00000000000E+00 0. -1.
</event>
<event>
 7    1  0.6278987E-006  0.1090721E+03  0.7818608E-02  0.1369120E+00
          2   -1    0    0  502    0  0.00000000000E+00  0.00000000000E+00  0.19168103502E+04  0.19168103502E+04  0.00000000000E+00 0. -1.
          1   -1    0    0  501    0 -0.00000000000E+00 -0.00000000000E+00 -0.38887574857E+03  0.38887574857E+03  0.00000000000E+00 0. -1.
         25    2    1    2    0    0  0.11433685740E+03  0.97257724326E+02  0.10131332399E+04  0.10317923631E+04  0.12499814709E+03 0.  0.
          2    1    1    2  501    0 -0.79942973158E+02 -0.73741695118E+02 -0.37125524574E+03  0.38685807998E+03  0.00000000000E+00 0. -1.
          1    1    1    2  502    0 -0.34393884246E+02 -0.23516029208E+02  0.88605660741E+03  0.88703565567E+03  0.00000000000E+00 0. -1.
         22    1    3    3    0    0  0.47326670772E+02  0.28087600790E+02  0.74245465097E+03  0.74449152838E+03  0.00000000000E+00 0. -1.
         22    1    3    3    0    0  0.67010186631E+02  0.69170123536E+02  0.27067858897E+03  0.28730083472E+03  0.00000000000E+00 0. -1.
</event>
<event>
 7    1  0.6278987E-006  0.9015294E+02  0.7818608E-02  0.1405787E+00
          2   -1    0    0  502    0  0.00000000000E+00  0.00000000000E+00  0.13953900989E+04  0.13953900989E+04  0.00000000000E+00 0. -1.
          1   -1    0    0  501    0 -0.00000000000E+00 -0.00000000000E+00 -0.55770527027E+03  0.55770527027E+03  0.00000000000E+00 0. -1.
         25    2    1    2    0    0  0.11596837738E+03  0.33912038486E+01  0.13100809218E+02  0.17104451087E+03  0.12499771470E+03 0.  0.
          2    1    1    2  501    0 -0.86828311598E+02  0.20213185970E+02 -0.47431006009E+03  0.48261554231E+03  0.00000000000E+00 0. -1.
          1    1    1    2  502    0 -0.29140065783E+02 -0.23604389818E+02  0.12988940795E+04  0.12994353160E+04  0.00000000000E+00 0. -1.
         22    1    3    3    0    0  0.38227195782E+02 -0.37888301969E+02  0.51974974475E+02  0.74821386616E+02  0.00000000000E+00 0. -1.
         22    1    3    3    0    0  0.77741181599E+02  0.41279505818E+02 -0.38874165257E+02  0.96223124255E+02  0.00000000000E+00 0. -1.
</event>
<event>
 7    1  0.6278987E-006  0.9987404E+02  0.7818608E-02  0.1384029E+00
          2   -1    0    0  502    0  0.00000000000E+00  0.00000000000E+00  0.52865548857E+03  0.52865548857E+03  0.00000000000E+00 0. -1.
          1   -1    0    0  501    0 -0.00000000000E+00 -0.00000000000E+00 -0.35345427495E+03  0.35345427495E+03  0.00000000000E+00 0. -1.
         25    2    1    2    0    0 -0.12261207368E+03  0.15786735044E+02  0.15944220761E+03  0.23733992188E+03  0.12500191734E+03 0.  0.
          2    1    1    2  501    0  0.33947049623E+02  0.21657513878E+02 -0.30614668291E+03  0.30878348651E+03  0.00000000000E+00 0. -1.
          1    1    1    2  502    0  0.88665024057E+02 -0.37444248922E+02  0.32190568893E+03  0.33598635513E+03  0.00000000000E+00 0. -1.
         22    1    3    3    0    0 -0.14196550915E+03  0.23563840791E+02  0.16157931233E+03  0.21637313732E+03  0.00000000000E+00 0.  1.
         22    1    3    3    0    0  0.19353435473E+02 -0.77771057468E+01 -0.21371047199E+01  0.20966784565E+02  0.00000000000E+00 0.  1.
</event>
<event>
 7    1  0.6278987E-006  0.7394428E+02  0.7818608E-02  0.1390452E+00
          2   -1    0    0  502    0  0.00000000000E+00  0.00000000000E+00  0.36443314149E+04  0.36443314149E+04  0.00000000000E+00 0. -1.
          1   -1    0    0  501    0 -0.00000000000E+00 -0.00000000000E+00 -0.17003353033E+03  0.17003353033E+03  0.00000000000E+00 0. -1.
         25    2    1    2    0    0  0.18333206618E+02  0.52122254930E+02  0.41967719780E+03  0.44136904801E+03  0.12499940107E+03 0.  0.
          2    1    1    2  501    0 -0.66582661405E+02 -0.33716637011E+02 -0.15022050748E+03  0.16773867556E+03  0.00000000000E+00 0. -1.
          1    1    1    2  502    0  0.48249454787E+02 -0.18405617919E+02  0.32048411942E+04  0.32052572216E+04  0.00000000000E+00 0. -1.
         22    1    3    3    0    0  0.16891133028E+02  0.91662036080E+02  0.24173671220E+03  0.25908276141E+03  0.00000000000E+00 0. -1.
         22    1    3    3    0    0  0.14420735899E+01 -0.39539781150E+02  0.17794048559E+03  0.18228628660E+03  0.00000000000E+00 0. -1.
</event>
<event>
 7    1  0.6278987E-006  0.1025223E+03  0.7818608E-02  0.1300430E+00
          2   -1    0    0  502    0  0.00000000000E+00  0.00000000000E+00  0.49777421952E+03  0.49777421952E+03  0.00000000000E+00 0. -1.
          1   -1    0    0  501    0 -0.00000000000E+00 -0.00000000000E+00 -0.52443018531E+03  0.52443018531E+03  0.00000000000E+00 0. -1.
         25    2    1    2    0    0  0.33158922597E+02 -0.10046587409E+03 -0.87168580491E+02  0.18551398423E+03  0.12499668362E+03 0.  0.
          2    1    1    2  501    0  0.47434405081E+02  0.94894177103E+02 -0.37707156761E+03  0.39171149426E+03  0.00000000000E+00 0. -1.
          1    1    1    2  502    0 -0.80593327678E+02  0.55716969860E+01  0.43758418232E+03  0.44497892634E+03  0.00000000000E+00 0. -1.
         22    1    3    3    0    0  0.30031662852E+02 -0.72058708473E+02 -0.11926192177E+03  0.14254039506E+03  0.00000000000E+00 0.  1.
         22    1    3    3    0    0  0.31272597448E+01 -0.28407165616E+02  0.32093341274E+02  0.42973589168E+02  0.00000000000E+00 0.  1.
</event>
<event>
 7    1  0.6278987E-006  0.1269342E+03  0.7818608E-02  0.1311685E+00
          2   -1    0    0  502    0  0.00000000000E+00  0.00000000000E+00  0.18522788276E+04  0.18522788276E+04  0.00000000000E+00 0. -1.
          1   -1    0    0  501    0 -0.00000000000E+00 -0.00000000000E+00 -0.13321671043E+04  0.13321671043E+04  0.00000000000E+00 0. -1.
         25    2    1    2    0    0 -0.15998643731E+03 -0.22889384664E+00  0.89140365320E+02  0.22173297949E+03  0.12499518771E+03 0.  0.
          2    1    1    2  501    0  0.11906740457E+03  0.42562558515E+02 -0.12622002064E+04  0.12685180248E+04  0.00000000000E+00 0. -1.
          1    1    1    2  502    0  0.40919032735E+02 -0.42333664668E+02  0.16931715643E+04  0.16941949276E+04  0.00000000000E+00 0. -1.
         22    1    3    3    0    0 -0.73781490558E+01  0.43530515760E+02  0.22521943788E+02  0.49563906603E+02  0.00000000000E+00 0. -1.
         22    1    3    3    0    0 -0.15260828825E+03 -0.43759409606E+02  0.66618421532E+02  0.17216907289E+03  0.00000000000E+00 0. -1.
</event>
<event>
 7    1  0.6278987E-006  0.1109133E+03  0.7818608E-02  0.1448942E+00
          2   -1    0    0  502    0  0.00000000000E+00  0.00000000000E+00  0.97583378971E+02  0.97583378971E+02  0.00000000000E+00 0. -1.
          1   -1    0    0  501    0 -0.00000000000E+00 -0.00000000000E+00 -0.34528335395E+04  0.34528335395E+04  0.00000000000E+00 0. -1.
         25    2    1    2    0    0 -0.32790080754E+02  0.10235869713E+03 -0.22542033443E+04  0.22602234830E+04  0.12499993298E+03 0.  0.
          2    1    1    2  501    0  0.20458469465E+02  0.79471014656E+01 -0.11629150428E+04  0.11631221355E+04  0.00000000000E+00 0. -1.
          1    1    1    2  502    0  0.12331611289E+02 -0.11030579859E+03  0.61868226509E+02  0.12707130003E+03  0.00000000000E+00 0. -1.
         22    1    3    3    0    0 -0.60889181338E+02  0.10316487821E+03 -0.21043090386E+04  0.21077160659E+04  0.00000000000E+00 0. -1.
         22    1    3    3    0    0  0.28099100584E+02 -0.80618108544E+00 -0.14989430570E+03  0.15250741707E+03  0.00000000000E+00 0. -1.
</event>
<event>
 7    1  0.6278987E-006  0.1145227E+03  0.7818608E-02  0.1407663E+00
          2   -1    0    0  502    0  0.00000000000E+00  0.00000000000E+00  0.43062231979E+03  0.43062231979E+03  0.00000000000E+00 0. -1.
          1   -1    0    0  501    0 -0.00000000000E+00 -0.00000000000E+00 -0.27969651485E+03  0.27969651485E+03  0.00000000000E+00 0. -1.
         25    2    1    2    0    0 -0.12151522299E+03  0.37210183426E+02 -0.92828393039E+02  0.20097964334E+03  0.12500063725E+03 0.  0.
          2    1    1    2  501    0  0.10939981431E+03 -0.10763463763E+02 -0.10934133452E+03  0.15504740875E+03  0.00000000000E+00 0. -1.
          1    1    1    2  502    0  0.12115408684E+02 -0.26446719664E+02  0.35309553250E+03  0.35429178255E+03  0.00000000000E+00 0. -1.
         22    1    3    3    0    0 -0.40946257621E+02  0.67021992851E+02 -0.58957671424E+01  0.78761053885E+02  0.00000000000E+00 0.  1.
         22    1    3    3    0    0 -0.80568965373E+02 -0.29811809425E+02 -0.86932625897E+02  0.12221858945E+03  0.00000000000E+00 0.  1.
</event>
<event>
 7    1  0.6278987E-006  0.1503955E+03  0.7818608E-02  0.1302063E+00
          2   -1    0    0  502    0  0.00000000000E+00  0.00000000000E+00  0.31150157339E+03  0.31150157339E+03  0.00000000000E+00 0. -1.
          1   -1    0    0  501    0 -0.00000000000E+00 -0.00000000000E+00 -0.10334091963E+04  0.10334091963E+04  0.00000000000E+00 0. -1.
         25    2    1    2    0    0 -0.19849899785E+03 -0.40297055572E+02 -0.74803246837E+03  0.78498596606E+03  0.12499875337E+03 0.  0.
          2    1    1    2  501    0  0.54173106348E+02  0.28737049504E+01 -0.24476957576E+03  0.25070925162E+03  0.00000000000E+00 0. -1.
          1    1    1    2  502    0  0.14432589150E+03  0.37423350622E+02  0.27089442124E+03  0.30921555198E+03  0.00000000000E+00 0. -1.
         22    1    3    3    0    0 -0.44296854875E+02 -0.46551665975E+02 -0.10027750785E+03  0.11910015759E+03  0.00000000000E+00 0. -1.
         22    1    3    3    0    0 -0.15420214297E+03  0.62546104027E+01 -0.64775496052E+03  0.66588580847E+03  0.00000000000E+00 0. -1.
</event>
<event>
 7    1  0.6278987E-006  0.9238528E+02  0.7818608E-02  0.1363816E+00
          2   -1    0    0  502    0  0.00000000000E+00  0.00000000000E+00  0.61559585430E+03  0.61559585430E+03  0.00000000000E+00 0. -1.
          1   -1    0    0  501    0 -0.00000000000E+00 -0.00000000000E+00 -0.15972367336E+04  0.15972367336E+04  0.00000000000E+00 0. -1.
         25    2    1    2    0    0 -0.27740361762E+02 -0.11803079796E+03  0.13045712622E+03  0.21758817176E+03  0.12499901507E+03 0.  0.
          2    1    1    2  501    0  0.42424282293E+02  0.29037252311E+02 -0.15486342546E+04  0.15494873463E+04  0.00000000000E+00 0. -1.
          1    1    1    2  502    0 -0.14683920531E+02  0.88993545651E+02  0.43653624902E+03  0.44575706994E+03  0.00000000000E+00 0. -1.
         22    1    3    3    0    0 -0.58759870142E+02 -0.64519102547E+02  0.17792554816E+02  0.89061843342E+02  0.00000000000E+00 0.  1.
         22    1    3    3    0    0  0.31019508379E+02 -0.53511695415E+02  0.11266457140E+03  0.12852632842E+03  0.00000000000E+00 0.  1.
</event>
<event>
 7    1  0.6278987E-006  0.9017123E+02  0.7818608E-02  0.1422315E+00
          2   -1    0    0  502    0  0.00000000000E+00  0.00000000000E+00  0.49452776301E+03  0.49452776301E+03  0.00000000000E+00 0. -1.
          1   -1    0    0  501    0 -0.00000000000E+00 -0.00000000000E+00 -0.23007952866E+03  0.23007952866E+03  0.00000000000E+00 0. -1.
         25    2    1    2    0    0  0.44984331696E+02 -0.11102440889E+03  0.74509053665E+02  0.18849211014E+03  0.12501066770E+03 0.  0.
          2    1    1    2  501    0 -0.38811411552E+02  0.78625958002E+02 -0.16116064760E+03  0.18346967399E+03  0.00000000000E+00 0. -1.
          1    1    1    2  502    0 -0.61729201443E+01  0.32398450885E+02  0.35109982829E+03  0.35264550754E+03  0.00000000000E+00 0. -1.
         22    1    3    3    0    0 -0.90232913681E+01  0.50066684861E+00  0.63444778784E+02  0.64085180887E+02  0.00000000000E+00 0. -1.
         22    1    3    3    0    0  0.54007623064E+02 -0.11152507574E+03  0.11064274881E+02  0.12440692925E+03  0.00000000000E+00 0. -1.
</event>
<event>
 7    1  0.6278987E-006  0.2781196E+02  0.7818608E-02  0.1634405E+00
          2   -1    0    0  502    0  0.00000000000E+00  0.00000000000E+00  0.29896435921E+04  0.29896435921E+04  0.00000000000E+00 0. -1.
          1   -1    0    0  501    0 -0.00000000000E+00 -0.00000000000E+00 -0.26639531790E+02  0.26639531790E+02  0.00000000000E+00 0. -1.
         25    2    1    2    0    0 -0.55568029064E+00  0.72373346716E+01  0.23580766486E+04  0.23613985938E+04  0.12500060134E+03 0.  0.
          2    1    1    2  501    0  0.26663314828E+02 -0.82005070305E+01 -0.16829271270E+02  0.32579211848E+02  0.00000000000E+00 0. -1.
          1    1    1    2  502    0 -0.26107634537E+02  0.96317235884E+00  0.62175668301E+03  0.62230531828E+03  0.00000000000E+00 0. -1.
         22    1    3    3    0    0 -0.31019632175E+02 -0.48625370171E+02  0.83250646989E+03  0.83450204710E+03  0.00000000000E+00 0.  1.
         22    1    3    3    0    0  0.30463951885E+02  0.55862704843E+02  0.15255701787E+04  0.15268965467E+04  0.00000000000E+00 0.  1.
</event>
<event>
 7    1  0.6278987E-006  0.4923435E+02  0.7818608E-02  0.1460730E+00
          2   -1    0    0  502    0  0.00000000000E+00  0.00000000000E+00  0.12772189612E+04  0.12772189612E+04  0.00000000000E+00 0. -1.
          1   -1    0    0  501    0 -0.00000000000E+00 -0.00000000000E+00 -0.25713929553E+03  0.25713929553E+03  0.00000000000E+00 0. -1.
         25    2    1    2    0    0  0.62982014761E+02 -0.54645367852E+02  0.19877215272E+03  0.24917532585E+03  0.12500049563E+03 0.  0.
          2    1    1    2  501    0 -0.47437930374E+02  0.12035045501E+02 -0.22886100479E+03  0.23403537996E+03  0.00000000000E+00 0. -1.
          1    1    1    2  502    0 -0.15544084387E+02  0.42610322351E+02  0.10501685177E+04  0.10511475509E+04  0.00000000000E+00 0. -1.
         22    1    3    3    0    0  0.43638927414E+02 -0.68173568709E+02  0.43061628277E+02  0.91685851069E+02  0.00000000000E+00 0. -1.
         22    1    3    3    0    0  0.19343087347E+02  0.13528200857E+02  0.15571052444E+03  0.15748947478E+03  0.00000000000E+00 0. -1.
</event>
<event>
 7    1  0.6278987E-006  0.9585713E+02  0.7818608E-02  0.1359004E+00
          2   -1    0    0  502    0  0.00000000000E+00  0.00000000000E+00  0.11704368234E+04  0.11704368234E+04  0.00000000000E+00 0. -1.
          1   -1    0    0  501    0 -0.00000000000E+00 -0.00000000000E+00 -0.31287306863E+02  0.31287306863E+02  0.00000000000E+00 0. -1.
         25    2    1    2    0    0  0.48188520783E+02  0.41850289490E+02  0.26618750615E+03  0.30092166840E+03  0.12499792724E+03 0.  0.
          2    1    1    2  501    0  0.50121715166E+02 -0.12211907523E+02  0.51312566706E+02  0.72761916677E+02  0.00000000000E+00 0. -1.
          1    1    1    2  502    0 -0.98310235949E+02 -0.29638381967E+02  0.82164944364E+03  0.82804054515E+03  0.00000000000E+00 0. -1.
         22    1    3    3    0    0 -0.22356264887E+02 -0.56131587000E+01  0.17396370802E+03  0.17548413557E+03  0.00000000000E+00 0. -1.
         22    1    3    3    0    0  0.70544785670E+02  0.47463448190E+02  0.92223798136E+02  0.12543753283E+03  0.00000000000E+00 0. -1.
</event>
<event>
 7    1  0.6278987E-006  0.1906833E+03  0.7818608E-02  0.1304578E+00
          2   -1    0    0  502    0  0.00000000000E+00  0.00000000000E+00  0.61099985161E+03  0.61099985161E+03  0.00000000000E+00 0. -1.
          1   -1    0    0  501    0 -0.00000000000E+00 -0.00000000000E+00 -0.30107226178E+04  0.30107226178E+04  0.00000000000E+00 0. -1.
         25    2    1    2    0    0 -0.19263932210E+03 -0.12388609674E+03 -0.12459005201E+04  0.12729299885E+04  0.12499990450E+03 0.  0.
          2    1    1    2  501    0  0.25417271727E+02  0.33199508441E+02 -0.17359077460E+04  0.17364112266E+04  0.00000000000E+00 0. -1.
          1    1    1    2  502    0  0.16722205037E+03  0.90686588297E+02  0.58208549996E+03  0.61238125436E+03  0.00000000000E+00 0. -1.
         22    1    3    3    0    0 -0.10551611000E+03 -0.31793197281E+02 -0.32118255747E+03  0.33956250100E+03  0.00000000000E+00 0.  1.
         22    1    3    3    0    0 -0.87123212103E+02 -0.92092899457E+02 -0.92471796265E+03  0.93336748747E+03  0.00000000000E+00 0.  1.
</event>
<event>
 7    1  0.6278987E-006  0.8323203E+02  0.7818608E-02  0.1332303E+00
          2   -1    0    0  502    0  0.00000000000E+00  0.00000000000E+00  0.15401181174E+04  0.15401181174E+04  0.00000000000E+00 0. -1.
          1   -1    0    0  501    0 -0.00000000000E+00 -0.00000000000E+00 -0.16392909671E+04  0.16392909671E+04  0.00000000000E+00 0. -1.
         25    2    1    2    0    0 -0.60107060534E+02  0.10376524946E+02  0.75529977402E+03  0.76800008445E+03  0.12500340031E+03 0.  0.
          2    1    1    2  501    0 -0.23034022075E+02 -0.71088836087E+02 -0.16286767311E+04  0.16303901628E+04  0.00000000000E+00 0. -1.
          1    1    1    2  502    0  0.83141082609E+02  0.60712311141E+02  0.77420410736E+03  0.78101883728E+03  0.00000000000E+00 0. -1.
         22    1    3    3    0    0 -0.16674182796E+02 -0.60211573808E+01  0.67509744502E+03  0.67533017331E+03  0.00000000000E+00 0. -1.
         22    1    3    3    0    0 -0.43432877738E+02  0.16397682326E+02  0.80202328994E+02  0.92669911139E+02  0.00000000000E+00 0. -1.
</event>
<event>
 7    1  0.6278987E-006  0.8261441E+02  0.7818608E-02  0.1325492E+00
          2   -1    0    0  502    0  0.00000000000E+00  0.00000000000E+00  0.36852519841E+03  0.36852519841E+03  0.00000000000E+00 0. -1.
          1   -1    0    0  501    0 -0.00000000000E+00 -0.00000000000E+00 -0.22141040229E+03  0.22141040229E+03  0.00000000000E+00 0. -1.
         25    2    1    2    0    0  0.38165572563E+01  0.96363816928E+02  0.13338505322E+02  0.15844300597E+03  0.12500287635E+03 0.  0.
          2    1    1    2  501    0 -0.69050636055E+02 -0.50154135827E+02 -0.13019969032E+03  0.15567718857E+03  0.00000000000E+00 0. -1.
          1    1    1    2  502    0  0.65234078798E+02 -0.46209681102E+02  0.26397598113E+03  0.27581540616E+03  0.00000000000E+00 0. -1.
         22    1    3    3    0    0 -0.16682033203E+02 -0.26121693095E+02  0.14570164893E+02  0.34247960332E+02  0.00000000000E+00 0. -1.
         22    1    3    3    0    0  0.20498590460E+02  0.12248551002E+03 -0.12316595707E+01  0.12419504564E+03  0.00000000000E+00 0. -1.
</event>
<event>
 7    1  0.6278987E-006  0.1103901E+03  0.7818608E-02  0.1324274E+00
          2   -1    0    0  502    0  0.00000000000E+00  0.00000000000E+00  0.66061406806E+03  0.66061406806E+03  0.00000000000E+00 0. -1.
          1   -1    0    0  501    0 -0.00000000000E+00 -0.00000000000E+00 -0.17129832487E+03  0.17129832487E+03  0.00000000000E+00 0. -1.
         25    2    1    2    0    0 -0.48913306622E+02  0.11620172942E+03  0.23435680311E+02  0.17907307658E+03  0.12499032826E+03 0.  0.
          2    1    1    2  501    0  0.85300313404E+02 -0.67894975441E+02 -0.59355918095E+02  0.12413297777E+03  0.00000000000E+00 0. -1.
          1    1    1    2  502    0 -0.36387006782E+02 -0.48306753980E+02  0.52523598097E+03  0.52870633858E+03  0.00000000000E+00 0. -1.
         22    1    3    3    0    0 -0.76441285066E+02  0.12639556625E+03  0.24337402014E+02  0.14970443670E+03  0.00000000000E+00 0.  1.
         22    1    3    3    0    0  0.27527978443E+02 -0.10193836829E+02 -0.90172170350E+00  0.29368639882E+02  0.00000000000E+00 0.  1.
</event>
<event>
 7    1  0.6278987E-006  0.9383085E+02  0.7818608E-02  0.1443899E+00
          2   -1    0    0  502    0  0.00000000000E+00  0.00000000000E+00  0.15133246875E+03  0.15133246875E+03  0.00000000000E+00 0. -1.
          1   -1    0    0  501    0 -0.00000000000E+00 -0.00000000000E+00 -0.22350672202E+03  0.22350672202E+03  0.00000000000E+00 0. -1.
         25    2    1    2    0    0  0.59811960422E+02 -0.61647725180E+02  0.26892266807E+02  0.15403643968E+03  0.12500447234E+03 0.  0.
          2    1    1    2  501    0 -0.96801510316E+01 -0.25130592261E+02 -0.11606925933E+03  0.11915252811E+03  0.00000000000E+00 0. -1.
          1    1    1    2  502    0 -0.50131809391E+02  0.86778317441E+02  0.17002739257E+02  0.10165022298E+03  0.00000000000E+00 0. -1.
         22    1    3    3    0    0 -0.89857968688E+01 -0.26201832723E+02 -0.42074291111E+02  0.50373867788E+02  0.00000000000E+00 0. -1.
         22    1    3    3    0    0  0.68797757291E+02 -0.35445892457E+02  0.68966557917E+02  0.10366257189E+03  0.00000000000E+00 0. -1.
</event>
<event>
 7    1  0.6278987E-006  0.6744159E+02  0.7818608E-02  0.1404926E+00
          2   -1    0    0  502    0  0.00000000000E+00  0.00000000000E+00  0.30956274222E+02  0.30956274222E+02  0.00000000000E+00 0. -1.
          1   -1    0    0  501    0 -0.00000000000E+00 -0.00000000000E+00 -0.19276561509E+04  0.19276561509E+04  0.00000000000E+00 0. -1.
         25    2    1    2    0    0  0.54128198328E+02  0.30834776175E+02 -0.30047121772E+03  0.33134441577E+03  0.12500209561E+03 0.  0.
          2    1    1    2  501    0  0.16601580299E+02 -0.47660853607E+02 -0.15238280173E+04  0.15246635680E+04  0.00000000000E+00 0. -1.
          1    1    1    2  502    0 -0.70729778627E+02  0.16826077433E+02 -0.72400641729E+02  0.10260444137E+03  0.00000000000E+00 0. -1.
         22    1    3    3    0    0 -0.10013677659E+02  0.22944270207E+01 -0.23539003785E+03  0.23561410835E+03  0.00000000000E+00 0. -1.
         22    1    3    3    0    0  0.64141875987E+02  0.28540349154E+02 -0.65081179871E+02  0.95730307417E+02  0.00000000000E+00 0. -1.
</event>
<event>
 7    1  0.6278987E-006  0.1387299E+03  0.7818608E-02  0.1305585E+00
          2   -1    0    0  502    0  0.00000000000E+00  0.00000000000E+00  0.43346256426E+02  0.43346256426E+02  0.00000000000E+00 0. -1.
          1   -1    0    0  501    0 -0.00000000000E+00 -0.00000000000E+00 -0.30133365176E+04  0.30133365176E+04  0.00000000000E+00 0. -1.
         25    2    1    2    0    0 -0.10314958689E+03 -0.14241097730E+03 -0.18338423586E+04  0.18464891571E+04  0.12499475029E+03 0.  0.
          2    1    1    2  501    0 -0.32528400159E+01  0.56850806517E+02 -0.10438177705E+04  0.10453698547E+04  0.00000000000E+00 0. -1.
          1    1    1    2  502    0  0.10640242691E+03  0.85560170786E+02 -0.92330132097E+02  0.16482376215E+03  0.00000000000E+00 0. -1.
         22    1    3    3    0    0  0.24042665689E+02 -0.13015151257E+01 -0.29112436321E+03  0.29211836397E+03  0.00000000000E+00 0.  1.
         22    1    3    3    0    0 -0.12719225258E+03 -0.14110946218E+03 -0.15427179954E+04  0.15543707932E+04  0.00000000000E+00 0.  1.
</event>
<event>
 7    1  0.6278987E-006  0.1102021E+03  0.7818608E-02  0.1367221E+00
          2   -1    0    0  502    0  0.00000000000E+00  0.00000000000E+00  0.23162405339E+04  0.23162405339E+04  0.00000000000E+00 0. -1.
          1   -1    0    0  501    0 -0.00000000000E+00 -0.00000000000E+00 -0.73670586003E+03  0.73670586003E+03  0.00000000000E+00 0. -1.
         25    2    1    2    0    0  0.83331731754E+02  0.11090748867E+02  0.10118571989E+04  0.10230085739E+04  0.12499747647E+03 0.  0.
          2    1    1    2  501    0  0.41012941301E+02 -0.85394358677E+01 -0.72754887632E+03  0.72875397135E+03  0.00000000000E+00 0. -1.
          1    1    1    2  502    0 -0.12434467305E+03 -0.25513129996E+01  0.12952263513E+04  0.13011838487E+04  0.00000000000E+00 0. -1.
         22    1    3    3    0    0  0.70098048068E+02  0.54466933226E+02  0.85875489504E+03  0.86333096372E+03  0.00000000000E+00 0. -1.
         22    1    3    3    0    0  0.13233683686E+02 -0.43376184359E+02  0.15310230388E+03  0.15967761022E+03  0.00000000000E+00 0. -1.
</event>
<event>
 7    1  0.6278987E-006  0.2227910E+03  0.7818608E-02  0.1251660E+00
          2   -1    0    0  502    0  0.00000000000E+00  0.00000000000E+00  0.59075470015E+03  0.59075470015E+03  0.00000000000E+00 0. -1.
          1   -1    0    0  501    0 -0.00000000000E+00 -0.00000000000E+00 -0.16292631256E+04  0.16292631256E+04  0.00000000000E+00 0. -1.
         25    2    1    2    0    0  0.20058406083E+03  0.21949987938E+02 -0.56754366331E+03  0.61518025347E+03  0.12500066829E+03 0.  0.
          2    1    1    2  501    0  0.81849948393E+01  0.58746518644E+02 -0.10149106428E+04  0.10166423956E+04  0.00000000000E+00 0. -1.
          1    1    1    2  502    0 -0.20876905566E+03 -0.80696506582E+02  0.54394588068E+03  0.58819517669E+03  0.00000000000E+00 0. -1.
         22    1    3    3    0    0  0.49703046519E+02  0.63409793816E+01 -0.32691033883E+03  0.33072794029E+03  0.00000000000E+00 0.  1.
         22    1    3    3    0    0  0.15088101431E+03  0.15609008556E+02 -0.24063332448E+03  0.28445231318E+03  0.00000000000E+00 0.  1.
</event>
<event>
 7    1  0.6278987E-006  0.4273649E+02  0.7818608E-02  0.1492548E+00
          2   -1    0    0  502    0  0.00000000000E+00  0.00000000000E+00  0.50085540334E+03  0.50085540334E+03  0.00000000000E+00 0. -1.
          1   -1    0    0  501    0 -0.00000000000E+00 -0.00000000000E+00 -0.13309535249E+04  0.13309535249E+04  0.00000000000E+00 0. -1.
         25    2    1    2    0    0 -0.76784036507E+02 -0.33520717400E+02  0.30967240984E+03  0.34429906010E+03  0.12500165843E+03 0.  0.
          2    1    1    2  501    0  0.36841781026E+02  0.21573511569E+02 -0.13107884756E+04  0.13114835725E+04  0.00000000000E+00 0. -1.
          1    1    1    2  502    0  0.39942255481E+02  0.11947205831E+02  0.17101794422E+03  0.17602629560E+03  0.00000000000E+00 0. -1.
         22    1    3    3    0    0 -0.34231258344E+02 -0.69448690639E+02  0.25405566572E+03  0.26559213272E+03  0.00000000000E+00 0. -1.
         22    1    3    3    0    0 -0.42552778163E+02  0.35927973240E+02  0.55616744124E+02  0.78706927379E+02  0.00000000000E+00 0. -1.
</event>
<event>
 7    1  0.6278987E-006  0.4752483E+02  0.7818608E-02  0.1508117E+00
          2   -1    0    0  502    0  0.00000000000E+00  0.00000000000E+00  0.73246903575E+03  0.73246903575E+03  0.00000000000E+00 0. -1.
          1   -1    0    0  501    0 -0.00000000000E+00 -0.00000000000E+00 -0.48981615394E+03  0.48981615394E+03  0.00000000000E+00 0. -1.
         25    2    1    2    0    0 -0.33638756636E+02  0.73680006170E+02 -0.85775105747E+02  0.17187867086E+03  0.12499839788E+03 0.  0.
          2    1    1    2  501    0  0.13541089607E+02 -0.30846947223E+02 -0.35938883381E+03  0.36096430450E+03  0.00000000000E+00 0. -1.
          1    1    1    2  502    0  0.20097667029E+02 -0.42833058947E+02  0.68781682136E+03  0.68944221433E+03  0.00000000000E+00 0. -1.
         22    1    3    3    0    0 -0.58063361944E+02 -0.10473862846E+01 -0.71270049296E+02  0.91934057589E+02  0.00000000000E+00 0. -1.
         22    1    3    3    0    0  0.24424605308E+02  0.74727392455E+02 -0.14505056451E+02  0.79944613266E+02  0.00000000000E+00 0. -1.
</event>
<event>
 7    1  0.6278987E-006  0.5607258E+02  0.7818608E-02  0.1451080E+00
          2   -1    0    0  502    0  0.00000000000E+00  0.00000000000E+00  0.26082322524E+04  0.26082322524E+04  0.00000000000E+00 0. -1.
          1   -1    0    0  501    0 -0.00000000000E+00 -0.00000000000E+00 -0.79363412050E+03  0.79363412050E+03  0.00000000000E+00 0. -1.
         25    2    1    2    0    0  0.76446607428E+01 -0.37869298682E+02  0.14156175685E+04  0.14216506862E+04  0.12500019536E+03 0.  0.
          2    1    1    2  501    0  0.34629322127E+02  0.44129175831E+02 -0.78923798207E+03  0.79122889637E+03  0.00000000000E+00 0. -1.
          1    1    1    2  502    0 -0.42273982870E+02 -0.62598771488E+01  0.11882185455E+04  0.11889867903E+04  0.00000000000E+00 0. -1.
         22    1    3    3    0    0 -0.55218615411E+02  0.31527573464E+01  0.54233449811E+03  0.54514745089E+03  0.00000000000E+00 0. -1.
         22    1    3    3    0    0  0.62863276154E+02 -0.41022056029E+02  0.87328307037E+03  0.87650323534E+03  0.00000000000E+00 0. -1.
</event>
<event>
 7    1  0.6278987E-006  0.8915975E+02  0.7818608E-02  0.1337737E+00
          2   -1    0    0  502    0  0.00000000000E+00  0.00000000000E+00  0.59339516052E+03  0.59339516052E+03  0.00000000000E+00 0. -1.
          1   -1    0    0  501    0 -0.00000000000E+00 -0.00000000000E+00 -0.11667272727E+04  0.11667272727E+04  0.00000000000E+00 0. -1.
         25    2    1    2    0    0  0.10976893732E+03  0.83441484094E+02 -0.34720098745E+02  0.18931822088E+03  0.12499681048E+03 0.  0.
          2    1    1    2  501    0 -0.24593211290E+02 -0.61815328181E+02 -0.10499067572E+04  0.10520124333E+04  0.00000000000E+00 0. -1.
          1    1    1    2  502    0 -0.85175726032E+02 -0.21626155913E+02  0.51129474385E+03  0.51879177905E+03  0.00000000000E+00 0. -1.
         22    1    3    3    0    0  0.56859659805E+02  0.10828373081E+03 -0.19760508212E+01  0.12232044820E+03  0.00000000000E+00 0.  1.
         22    1    3    3    0    0  0.52909277517E+02 -0.24842246716E+02 -0.32744047924E+02  0.66997772677E+02  0.00000000000E+00 0.  1.
</event>
<event>
 7    1  0.6278987E-006  0.1076618E+03  0.7818608E-02  0.1438739E+00
          2   -1    0    0  502    0  0.00000000000E+00  0.00000000000E+00  0.28345361791E+04  0.28345361791E+04  0.00000000000E+00 0. -1.
          1   -1    0    0  501    0 -0.00000000000E+00 -0.00000000000E+00 -0.60091877927E+03  0.60091877927E+03  0.00000000000E+00 0. -1.
         25    2    1    2    0    0 -0.82238413427E+02  0.43233317561E+02  0.61307915604E+03  0.63255271521E+03  0.12499843825E+03 0.  0.
          2    1    1    2  501    0 -0.22406635192E+02 -0.96385119699E+01 -0.58956430238E+03  0.59006866113E+03  0.00000000000E+00 0. -1.
          1    1    1    2  502    0  0.10464504862E+03 -0.33594805591E+02  0.22101025461E+04  0.22128335820E+04  0.00000000000E+00 0. -1.
         22    1    3    3    0    0  0.25038070337E+01  0.33667144473E+02  0.36571836528E+02  0.49771928771E+02  0.00000000000E+00 0. -1.
         22    1    3    3    0    0 -0.84742220461E+02  0.95661730888E+01  0.57650731951E+03  0.58278078644E+03  0.00000000000E+00 0. -1.
</event>
<event>
 7    1  0.6278987E-006  0.6949016E+02  0.7818608E-02  0.1392319E+00
          2   -1    0    0  502    0  0.00000000000E+00  0.00000000000E+00  0.14368246509E+04  0.14368246509E+04  0.00000000000E+00 0. -1.
          1   -1    0    0  501    0 -0.00000000000E+00 -0.00000000000E+00 -0.69915159234E+03  0.69915159234E+03  0.00000000000E+00 0. -1.
         25    2    1    2    0    0 -0.84049564319E+02 -0.87533088887E+02  0.29252286708E+03  0.34047186183E+03  0.12500036007E+03 0.  0.
          2    1    1    2  501    0  0.35818739511E+02  0.40590235156E+02 -0.67307855049E+03  0.67525201549E+03  0.00000000000E+00 0. -1.
          1    1    1    2  502    0  0.48230824807E+02  0.46942853731E+02  0.11182287419E+04  0.11202523659E+04  0.00000000000E+00 0. -1.
         22    1    3    3    0    0  0.20039098241E+02 -0.64592445873E+02  0.11315262267E+03  0.13182285666E+03  0.00000000000E+00 0.  1.
         22    1    3    3    0    0 -0.10408866256E+03 -0.22940643014E+02  0.17937024441E+03  0.20864900516E+03  0.00000000000E+00 0.  1.
</event>
<event>
 7    1  0.6278987E-006  0.7600601E+02  0.7818608E-02  0.1381548E+00
          2   -1    0    0  502    0  0.00000000000E+00  0.00000000000E+00  0.13580363952E+03  0.13580363952E+03  0.00000000000E+00 0. -1.
          1   -1    0    0  501    0 -0.00000000000E+00 -0.00000000000E+00 -0.35305201805E+03  0.35305201805E+03  0.00000000000E+00 0. -1.
         25    2    1    2    0    0 -0.49916149964E+02  0.16285196468E+01 -0.18595480057E+02  0.13584162384E+03  0.12495151374E+03 0.  0.
          2    1    1    2  501    0  0.61406870795E+02  0.51123805397E+02 -0.25958500777E+03  0.27160416697E+03  0.00000000000E+00 0. -1.
          1    1    1    2  502    0 -0.11490720832E+02 -0.52752325044E+02  0.60932109295E+02  0.81409866760E+02  0.00000000000E+00 0. -1.
         22    1    3    3    0    0 -0.57234379145E+02  0.50094331085E+02 -0.35574631455E+02  0.83968866648E+02  0.00000000000E+00 0.  1.
         22    1    3    3    0    0  0.73182291810E+01 -0.48465811439E+02  0.16979151399E+02  0.51872757195E+02  0.00000000000E+00 0.  1.
</event>
<event>
 7    1  0.6278987E-006  0.8990665E+02  0.7818608E-02  0.1372767E+00
          2   -1    0    0  502    0  0.00000000000E+00  0.00000000000E+00  0.20362521213E+03  0.20362521213E+03  0.00000000000E+00 0. -1.
          1   -1    0    0  501    0 -0.00000000000E+00 -0.00000000000E+00 -0.77352663108E+03  0.77352663108E+03  0.00000000000E+00 0. -1.
         25    2    1    2    0    0  0.48853783705E+02 -0.15464793214E+02 -0.10526247280E+02  0.13550262746E+03  0.12499723259E+03 0.  0.
          2    1    1    2  501    0  0.49025618109E+02 -0.13824867217E+01 -0.68204919333E+03  0.68381029871E+03  0.00000000000E+00 0. -1.
          1    1    1    2  502    0 -0.97879401814E+02  0.16847279936E+02  0.12267402166E+03  0.15783891704E+03  0.00000000000E+00 0. -1.
         22    1    3    3    0    0  0.61246335960E+02 -0.58031153272E+02  0.12911663398E+02  0.85354785866E+02  0.00000000000E+00 0. -1.
         22    1    3    3    0    0 -0.12392552255E+02  0.42566360058E+02 -0.23437910678E+02  0.50147841598E+02  0.00000000000E+00 0. -1.
</event>
<event>
 7    1  0.6278987E-006  0.1081372E+03  0.7818608E-02  0.1410929E+00
          2   -1    0    0  502    0  0.00000000000E+00  0.00000000000E+00  0.98757212100E+03  0.98757212100E+03  0.00000000000E+00 0. -1.
          1   -1    0    0  501    0 -0.00000000000E+00 -0.00000000000E+00 -0.12832142380E+04  0.12832142380E+04  0.00000000000E+00 0. -1.
         25    2    1    2    0    0 -0.82409652690E+02  0.36897814275E+02  0.16780360057E+03  0.22789335412E+03  0.12499813171E+03 0.  0.
          2    1    1    2  501    0 -0.26079175565E+02 -0.14891985808E+02 -0.12491087617E+04  0.12494697248E+04  0.00000000000E+00 0. -1.
          1    1    1    2  502    0  0.10848882825E+03 -0.22005828467E+02  0.78566304417E+03  0.79342328004E+03  0.00000000000E+00 0. -1.
         22    1    3    3    0    0 -0.43786228037E+02 -0.42374373971E+02  0.98129888098E+02  0.11550885799E+03  0.00000000000E+00 0. -1.
         22    1    3    3    0    0 -0.38623424652E+02  0.79272188246E+02  0.69673712475E+02  0.11238449613E+03  0.00000000000E+00 0. -1.
</event>
<event>
 7    1  0.6278987E-006  0.9753533E+02  0.7818608E-02  0.1380022E+00
          2   -1    0    0  502    0  0.00000000000E+00  0.00000000000E+00  0.87695075786E+03  0.87695075786E+03  0.00000000000E+00 0. -1.
          1   -1    0    0  501    0 -0.00000000000E+00 -0.00000000000E+00 -0.56022999969E+02  0.56022999969E+02  0.00000000000E+00 0. -1.
         25    2    1    2    0    0  0.12070750847E+03  0.17044043247E+02  0.31348734947E+03  0.35883157249E+03  0.12499990851E+03 0.  0.
          2    1    1    2  501    0 -0.92336538380E+02  0.14731482546E+02  0.35085146985E+02  0.99870017708E+02  0.00000000000E+00 0. -1.
          1    1    1    2  502    0 -0.28370970089E+02 -0.31775525793E+02  0.47235526144E+03  0.47427216763E+03  0.00000000000E+00 0. -1.
         22    1    3    3    0    0  0.33524312539E+02  0.56144820771E+02  0.20031079967E+03  0.21071434905E+03  0.00000000000E+00 0.  1.
         22    1    3    3    0    0  0.87183195930E+02 -0.39100777524E+02  0.11317654981E+03  0.14811722345E+03  0.00000000000E+00 0.  1.
</event>
<event>
 7    1  0.6278987E-006  0.1082459E+03  0.7818608E-02  0.1361198E+00
          2   -1    0    0  502    0  0.00000000000E+00  0.00000000000E+00  0.38582909609E+03  0.38582909609E+03  0.00000000000E+00 0. -1.
          1   -1    0    0  501    0 -0.00000000000E+00 -0.00000000000E+00 -0.40235228471E+03  0.40235228471E+03  0.00000000000E+00 0. -1.
         25    2    1    2    0    0  0.14201875076E+03  0.41868550408E+02 -0.10815224673E+03  0.22191245225E+03  0.12500370758E+03 0.  0.
          2    1    1    2  501    0 -0.37115250068E+02 -0.25178022854E+02 -0.22648800743E+03  0.23088588552E+03  0.00000000000E+00 0. -1.
          1    1    1    2  502    0 -0.10490350069E+03 -0.16690527554E+02  0.31811706554E+03  0.33538304303E+03  0.00000000000E+00 0. -1.
         22    1    3    3    0    0  0.58568742371E+02  0.77144676756E+02 -0.83847431233E+02  0.12810929107E+03  0.00000000000E+00 0.  1.
         22    1    3    3    0    0  0.83450008390E+02 -0.35276126348E+02 -0.24304815495E+02  0.93803161176E+02  0.00000000000E+00 0.  1.
</event>
<event>
 7    1  0.6278987E-006  0.7559180E+02  0.7818608E-02  0.1402065E+00
          2   -1    0    0  502    0  0.00000000000E+00  0.00000000000E+00  0.17074137786E+04  0.17074137786E+04  0.00000000000E+00 0. -1.
          1   -1    0    0  501    0 -0.00000000000E+00 -0.00000000000E+00 -0.46875469026E+03  0.46875469026E+03  0.00000000000E+00 0. -1.
         25    2    1    2    0    0 -0.10730683703E+03 -0.48039163654E+02  0.79770211350E+02  0.18923229408E+03  0.12499222371E+03 0.  0.
          2    1    1    2  501    0  0.61653392083E+02  0.41976506638E+02 -0.41032386219E+03  0.41704776675E+03  0.00000000000E+00 0. -1.
          1    1    1    2  502    0  0.45653444942E+02  0.60626570166E+01  0.15692127392E+04  0.15698884080E+04  0.00000000000E+00 0. -1.
         22    1    3    3    0    0 -0.70617753127E+02 -0.88790241746E+02  0.70640360705E+02  0.13364368540E+03  0.00000000000E+00 0. -1.
         22    1    3    3    0    0 -0.36689083899E+02  0.40751078091E+02  0.91298506443E+01  0.55588608686E+02  0.00000000000E+00 0. -1.
</event>
<event>
 7    1  0.6278987E-006  0.1271387E+03  0.7818608E-02  0.1242993E+00
          2   -1    0    0  502    0  0.00000000000E+00  0.00000000000E+00  0.17272572706E+04  0.17272572706E+04  0.00000000000E+00 0. -1.
          1   -1    0    0  501    0 -0.00000000000E+00 -0.00000000000E+00 -0.10906111684E+04  0.10906111684E+04  0.00000000000E+00 0. -1.
         25    2    1    2    0    0 -0.32566046677E+02 -0.50680485778E+02  0.71551694451E+03  0.72884753908E+03  0.12500071327E+03 0.  0.
          2    1    1    2  501    0 -0.11047649154E+03 -0.62922108433E+02 -0.10718581948E+04  0.10793721493E+04  0.00000000000E+00 0. -1.
          1    1    1    2  502    0  0.14304253822E+03  0.11360259421E+03  0.99298735259E+03  0.10096487506E+04  0.00000000000E+00 0. -1.
         22    1    3    3    0    0  0.37859994164E+02 -0.43129821639E+02  0.18707441571E+03  0.19567932361E+03  0.00000000000E+00 0. -1.
         22    1    3    3    0    0 -0.70426040841E+02 -0.75506641391E+01  0.52844252879E+03  0.53316821548E+03  0.00000000000E+00 0. -1.
</event>
<event>
 7    1  0.6278987E-006  0.1444403E+03  0.7818608E-02  0.1258630E+00
          2   -1    0    0  502    0  0.00000000000E+00  0.00000000000E+00  0.14057521123E+04  0.14057521123E+04  0.00000000000E+00 0. -1.
          1   -1    0    0  501    0 -0.00000000000E+00 -0.00000000000E+00 -0.90230727347E+03  0.90230727347E+03  0.00000000000E+00 0. -1.
         25    2    1    2    0    0  0.59497239893E+02 -0.18928391448E+02  0.13397974247E+03  0.19358080031E+03  0.12499899719E+03 0.  0.
          2    1    1    2  501    0 -0.14332517399E+03  0.35162517735E+02 -0.86478098272E+03  0.87728254071E+03  0.00000000000E+00 0. -1.
          1    1    1    2  502    0  0.83827934099E+02 -0.16234126287E+02  0.12342460791E+04  0.12371960447E+04  0.00000000000E+00 0. -1.
         22    1    3    3    0    0 -0.21833903049E+02 -0.70933996906E+01  0.10335314749E+03  0.10587213391E+03  0.00000000000E+00 0. -1.
         22    1    3    3    0    0  0.81331142943E+02 -0.11834991758E+02  0.30626594973E+02  0.87708666401E+02  0.00000000000E+00 0. -1.
</event>
<event>
 7    1  0.6278987E-006  0.6162995E+02  0.7818608E-02  0.1521818E+00
          2   -1    0    0  502    0  0.00000000000E+00  0.00000000000E+00  0.13569150417E+04  0.13569150417E+04  0.00000000000E+00 0. -1.
          1   -1    0    0  501    0 -0.00000000000E+00 -0.00000000000E+00 -0.53376688136E+02  0.53376688136E+02  0.00000000000E+00 0. -1.
         25    2    1    2    0    0  0.33718620015E+02  0.59283420887E+02  0.22605945389E+03  0.26717020136E+03  0.12500228188E+03 0.  0.
          2    1    1    2  501    0 -0.46829047533E+02 -0.39553010997E+02 -0.39579192137E+01  0.61425283852E+02  0.00000000000E+00 0. -1.
          1    1    1    2  502    0  0.13110427518E+02 -0.19730409890E+02  0.10814368189E+04  0.10816962446E+04  0.00000000000E+00 0. -1.
         22    1    3    3    0    0  0.14237050242E+02 -0.73755029257E+01 -0.11458532655E+02  0.19707602940E+02  0.00000000000E+00 0. -1.
         22    1    3    3    0    0  0.19481569773E+02  0.66658923813E+02  0.23751798654E+03  0.24746259842E+03  0.00000000000E+00 0. -1.
</event>
<event>
 7    1  0.6278987E-006  0.5573462E+02  0.7818608E-02  0.1449099E+00
          2   -1    0    0  502    0  0.00000000000E+00  0.00000000000E+00  0.41825665571E+03  0.41825665571E+03  0.00000000000E+00 0. -1.
          1   -1    0    0  501    0 -0.00000000000E+00 -0.00000000000E+00 -0.14761703273E+04  0.14761703273E+04  0.00000000000E+00 0. -1.
         25    2    1    2    0    0  0.13321190441E+02  0.13832425976E+02  0.29680408594E+03  0.32263381329E+03  0.12502448528E+03 0.  0.
          2    1    1    2  501    0 -0.13699129137E+01 -0.55789447737E+02 -0.14583163168E+04  0.14593837121E+04  0.00000000000E+00 0. -1.
          1    1    1    2  502    0 -0.11951277527E+02  0.41957021761E+02  0.10359855923E+03  0.11240945771E+03  0.00000000000E+00 0. -1.
         22    1    3    3    0    0  0.42203814285E+01  0.39365963851E+02  0.29252394518E+03  0.29519103853E+03  0.00000000000E+00 0.  1.
         22    1    3    3    0    0  0.91008090126E+01 -0.25533537875E+02  0.42801407678E+01  0.27442774752E+02  0.00000000000E+00 0.  1.
</event>
<event>
 7    1  0.6278987E-006  0.1132614E+03  0.7818608E-02  0.1266758E+00
          2   -1    0    0  502    0  0.00000000000E+00  0.00000000000E+00  0.42445868068E+03  0.42445868068E+03  0.00000000000E+00 0. -1.
          1   -1    0    0  501    0 -0.00000000000E+00 -0.00000000000E+00 -0.38707059884E+03  0.38707059884E+03  0.00000000000E+00 0. -1.
         25    2    1    2    0    0  0.27426677966E+02  0.35380214190E+02 -0.17913025384E+03  0.22297349059E+03  0.12500218975E+03 0.  0.
          2    1    1    2  501    0  0.89231181356E+02 -0.46381291618E+02 -0.16290796416E+03  0.19144825078E+03  0.00000000000E+00 0. -1.
          1    1    1    2  502    0 -0.11665785932E+03  0.11001077427E+02  0.37942629985E+03  0.39710753816E+03  0.00000000000E+00 0. -1.
         22    1    3    3    0    0 -0.61602207711E+00 -0.33289356698E+02 -0.12953540683E+03  0.13374596209E+03  0.00000000000E+00 0.  1.
         22    1    3    3    0    0  0.28042700043E+02  0.68669570889E+02 -0.49594847011E+02  0.89227528498E+02  0.00000000000E+00 0.  1.
</event>
<event>
 7    1  0.6278987E-006  0.5438982E+02  0.7818608E-02  0.1445363E+00
          2   -1    0    0  502    0  0.00000000000E+00  0.00000000000E+00  0.16900173352E+04  0.16900173352E+04  0.00000000000E+00 0. -1.
          1   -1    0    0  501    0 -0.00000000000E+00 -0.00000000000E+00 -0.20400565178E+04  0.20400565178E+04  0.00000000000E+00 0. -1.
         25    2    1    2    0    0  0.34311709238E+02  0.39892360887E+02  0.23775329593E+03  0.27371763159E+03  0.12500407302E+03 0.  0.
          2    1    1    2  501    0 -0.54400979950E+02  0.14413502806E+01 -0.20213398995E+04  0.20220723364E+04  0.00000000000E+00 0. -1.
          1    1    1    2  502    0  0.20089270712E+02 -0.41333711168E+02  0.14335474210E+04  0.14342838850E+04  0.00000000000E+00 0. -1.
         22    1    3    3    0    0 -0.13711681024E+02 -0.16841113478E+02  0.17528082977E+03  0.17662107062E+03  0.00000000000E+00 0. -1.
         22    1    3    3    0    0  0.48023390262E+02  0.56733474365E+02  0.62472466156E+02  0.97096560976E+02  0.00000000000E+00 0. -1.
</event>
<event>
 7    1  0.6278987E-006  0.1611175E+03  0.7818608E-02  0.1388052E+00
          2   -1    0    0  502    0  0.00000000000E+00  0.00000000000E+00  0.60266170748E+03  0.60266170748E+03  0.00000000000E+00 0. -1.
          1   -1    0    0  501    0 -0.00000000000E+00 -0.00000000000E+00 -0.14413964576E+04  0.14413964576E+04  0.00000000000E+00 0. -1.
         25    2    1    2    0    0 -0.15247460050E+03 -0.57446541570E+02 -0.44022984465E+03  0.48577314821E+03  0.12499850585E+03 0.  0.
          2    1    1    2  501    0  0.15740675156E+03  0.33792959458E+02 -0.97151583721E+03  0.98476488133E+03  0.00000000000E+00 0. -1.
          1    1    1    2  502    0 -0.49321510627E+01  0.23653582112E+02  0.57301093171E+03  0.57352013558E+03  0.00000000000E+00 0. -1.
         22    1    3    3    0    0 -0.11554176925E+03 -0.71319661410E+02 -0.19636454264E+03  0.23873715285E+03  0.00000000000E+00 0. -1.
         22    1    3    3    0    0 -0.36932831247E+02  0.13873119840E+02 -0.24386530201E+03  0.24703599536E+03  0.00000000000E+00 0. -1.
</event>
<event>
 7    1  0.6278987E-006  0.1998656E+03  0.7818608E-02  0.1178129E+00
          2   -1    0    0  502    0  0.00000000000E+00  0.00000000000E+00  0.22535816242E+04  0.22535816242E+04  0.00000000000E+00 0. -1.
          1   -1    0    0  501    0 -0.00000000000E+00 -0.00000000000E+00 -0.69400225361E+02  0.69400225361E+02  0.00000000000E+00 0. -1.
         25    2    1    2    0    0  0.60473540701E+02  0.14185880564E+03  0.35828035318E+03  0.40959865262E+03  0.12500109956E+03 0.  0.
          2    1    1    2  501    0  0.19118528197E+02 -0.26203077449E+03  0.38984460357E+03  0.47011111435E+03  0.00000000000E+00 0. -1.
          1    1    1    2  502    0 -0.79592068898E+02  0.12017196885E+03  0.14360564421E+04  0.14432720826E+04  0.00000000000E+00 0. -1.
         22    1    3    3    0    0 -0.52061069072E+01  0.16213403660E+02  0.18466927591E+03  0.18545274188E+03  0.00000000000E+00 0. -1.
         22    1    3    3    0    0  0.65679647608E+02  0.12564540198E+03  0.17361107727E+03  0.22414591073E+03  0.00000000000E+00 0. -1.
</event>
<event>
 7    1  0.6278987E-006  0.6017585E+02  0.7818608E-02  0.1412325E+00
          2   -1    0    0  502    0  0.00000000000E+00  0.00000000000E+00  0.53015094885E+03  0.53015094885E+03  0.00000000000E+00 0. -1.
          1   -1    0    0  501    0 -0.00000000000E+00 -0.00000000000E+00 -0.57112573991E+02  0.57112573991E+02  0.00000000000E+00 0. -1.
         25    2    1    2    0    0  0.45441535971E+02  0.69818604876E+02  0.17660956649E+03  0.23184958186E+03  0.12499487531E+03 0.  0.
          2    1    1    2  501    0 -0.52299277105E+02 -0.10705909722E+02  0.32024374061E+00  0.53384767909E+02  0.00000000000E+00 0. -1.
          1    1    1    2  502    0  0.68577411345E+01 -0.59112695154E+02  0.29610856462E+03  0.30202917307E+03  0.00000000000E+00 0. -1.
         22    1    3    3    0    0  0.30011909811E+02 -0.21816985344E+02  0.60156882524E+01  0.37588350392E+02  0.00000000000E+00 0.  1.
         22    1    3    3    0    0  0.15429626159E+02  0.91635590220E+02  0.17059387824E+03  0.19426123147E+03  0.00000000000E+00 0.  1.
</event>
<event>
 7    1  0.6278987E-006  0.5822636E+02  0.7818608E-02  0.1453289E+00
          2   -1    0    0  502    0  0.00000000000E+00  0.00000000000E+00  0.52925957283E+03  0.52925957283E+03  0.00000000000E+00 0. -1.
          1   -1    0    0  501    0 -0.00000000000E+00 -0.00000000000E+00 -0.15182223817E+04  0.15182223817E+04  0.00000000000E+00 0. -1.
         25    2    1    2    0    0  0.91929921027E+00  0.54260563244E+02 -0.90626860596E+02  0.16365698421E+03  0.12500130714E+03 0.  0.
          2    1    1    2  501    0  0.38852685017E+02 -0.11404360949E+02 -0.13890499906E+04  0.13896400494E+04  0.00000000000E+00 0. -1.
          1    1    1    2  502    0 -0.39771984227E+02 -0.42856202294E+02  0.49071404228E+03  0.49418492095E+03  0.00000000000E+00 0. -1.
         22    1    3    3    0    0 -0.11899563071E+01 -0.40722401764E+02 -0.20743557267E+02  0.45716793080E+02  0.00000000000E+00 0.  1.
         22    1    3    3    0    0  0.21092555174E+01  0.94982965008E+02 -0.69883303329E+02  0.11794019113E+03  0.00000000000E+00 0.  1.
</event>
<event>
 7    1  0.6278987E-006  0.9873897E+02  0.7818608E-02  0.1321286E+00
          2   -1    0    0  502    0  0.00000000000E+00  0.00000000000E+00  0.33669640823E+03  0.33669640823E+03  0.00000000000E+00 0. -1.
          1   -1    0    0  501    0 -0.00000000000E+00 -0.00000000000E+00 -0.31992929124E+03  0.31992929124E+03  0.00000000000E+00 0. -1.
         25    2    1    2    0    0  0.91229238536E+01 -0.10997641222E+03  0.12102239751E+03  0.20603157036E+03  0.12499819319E+03 0.  0.
          2    1    1    2  501    0  0.54798763321E+02  0.82860661034E+02 -0.26094160481E+03  0.27921195305E+03  0.00000000000E+00 0. -1.
          1    1    1    2  502    0 -0.63921687174E+02  0.27115751188E+02  0.15668632428E+03  0.17138217606E+03  0.00000000000E+00 0. -1.
         22    1    3    3    0    0  0.21001011759E+02  0.21460139863E+02  0.43870770527E+02  0.53162247926E+02  0.00000000000E+00 0. -1.
         22    1    3    3    0    0 -0.11878087906E+02 -0.13143655208E+03  0.77151626984E+02  0.15286932244E+03  0.00000000000E+00 0. -1.
</event>
<event>
 7    1  0.6278987E-006  0.5369026E+02  0.7818608E-02  0.1502131E+00
          2   -1    0    0  502    0  0.00000000000E+00  0.00000000000E+00  0.12449378229E+02  0.12449378229E+02  0.00000000000E+00 0. -1.
          1   -1    0    0  501    0 -0.00000000000E+00 -0.00000000000E+00 -0.23673989428E+04  0.23673989428E+04  0.00000000000E+00 0. -1.
         25    2    1    2    0    0  0.30027982663E+02 -0.58241532136E+02 -0.10963264452E+04  0.11053734668E+04  0.12500028350E+03 0.  0.
          2    1    1    2  501    0 -0.30664085365E+02  0.49614866332E+01 -0.11744076268E+04  0.11748183589E+04  0.00000000000E+00 0. -1.
          1    1    1    2  502    0  0.63610270196E+00  0.53280045502E+02 -0.84215492626E+02  0.99656495391E+02  0.00000000000E+00 0. -1.
         22    1    3    3    0    0  0.55621528307E+02 -0.22177038560E+02 -0.22213565860E+03  0.23006483058E+03  0.00000000000E+00 0.  1.
         22    1    3    3    0    0 -0.25593545643E+02 -0.36064493576E+02 -0.87419078657E+03  0.87530863619E+03  0.00000000000E+00 0.  1.
</event>
<event>
 7    1  0.6278987E-006  0.1539622E+03  0.7818608E-02  0.1344633E+00
          2   -1    0    0  502    0  0.00000000000E+00  0.00000000000E+00  0.16882288289E+04  0.16882288289E+04  0.00000000000E+00 0. -1.
          1   -1    0    0  501    0 -0.00000000000E+00 -0.00000000000E+00 -0.86621567902E+02  0.86621567902E+02  0.00000000000E+00 0. -1.
         25    2    1    2    0    0  0.25768753622E+02  0.17996272103E+03  0.58191813141E+03  0.62234038494E+03  0.12501293312E+03 0.  0.
          2    1    1    2  501    0 -0.52015001351E+01 -0.15005631513E+03  0.19207272392E+02  0.15136998588E+03  0.00000000000E+00 0. -1.
          1    1    1    2  502    0 -0.20567253487E+02 -0.29906405903E+02  0.10004818572E+04  0.10011400260E+04  0.00000000000E+00 0. -1.
         22    1    3    3    0    0 -0.22848238275E+02  0.72613129346E+02  0.38820074105E+03  0.39559388758E+03  0.00000000000E+00 0. -1.
         22    1    3    3    0    0  0.48616991897E+02  0.10734959168E+03  0.19371739036E+03  0.22674649736E+03  0.00000000000E+00 0. -1.
</event>
<event>
 7    1  0.6278987E-006  0.1112495E+03  0.7818608E-02  0.1326587E+00
          2   -1    0    0  502    0  0.00000000000E+00  0.00000000000E+00  0.20272992446E+03  0.20272992446E+03  0.00000000000E+00 0. -1.
          1   -1    0    0  501    0 -0.00000000000E+00 -0.00000000000E+00 -0.35238221233E+03  0.35238221233E+03  0.00000000000E+00 0. -1.
         25    2    1    2    0    0 -0.18347178763E+02  0.15659566930E+03 -0.12521969675E+03  0.23699191653E+03  0.12500549360E+03 0.  0.
          2    1    1    2  501    0  0.96595051498E+01 -0.98447586082E+02 -0.14987887114E+03  0.17957981306E+03  0.00000000000E+00 0. -1.
          1    1    1    2  502    0  0.86876736130E+01 -0.58148083220E+02  0.12544628003E+03  0.13854040720E+03  0.00000000000E+00 0. -1.
         22    1    3    3    0    0 -0.48525380912E+02  0.39720784592E+02  0.49149922162E+00  0.62711202291E+02  0.00000000000E+00 0. -1.
         22    1    3    3    0    0  0.30178202150E+02  0.11687488471E+03 -0.12571119597E+03  0.17428071423E+03  0.00000000000E+00 0. -1.
</event>
<event>
 7    1  0.6278987E-006  0.7104740E+02  0.7818608E-02  0.1398954E+00
          2   -1    0    0  502    0  0.00000000000E+00  0.00000000000E+00  0.35855490552E+03  0.35855490552E+03  0.00000000000E+00 0. -1.
          1   -1    0    0  501    0 -0.00000000000E+00 -0.00000000000E+00 -0.13378040871E+03  0.13378040871E+03  0.00000000000E+00 0. -1.
         25    2    1    2    0    0 -0.74150047941E+02 -0.73875282501E+02  0.21091095699E+03  0.26657888433E+03  0.12500033126E+03 0.  0.
          2    1    1    2  501    0  0.18469274170E+02  0.46701540038E+02 -0.91010779215E+02  0.10394763039E+03  0.00000000000E+00 0. -1.
          1    1    1    2  502    0  0.55680773771E+02  0.27173742463E+02  0.10487431903E+03  0.12180879952E+03  0.00000000000E+00 0. -1.
         22    1    3    3    0    0 -0.44521671481E+02 -0.38599311790E+02  0.91562552498E+01  0.59631561377E+02  0.00000000000E+00 0. -1.
         22    1    3    3    0    0 -0.29628376460E+02 -0.35275970711E+02  0.20175470174E+03  0.20694732295E+03  0.00000000000E+00 0. -1.
</event>
<event>
 7    1  0.6278987E-006  0.8550325E+02  0.7818608E-02  0.1357348E+00
          2   -1    0    0  502    0  0.00000000000E+00  0.00000000000E+00  0.30792477282E+04  0.30792477282E+04  0.00000000000E+00 0. -1.
          1   -1    0    0  501    0 -0.00000000000E+00 -0.00000000000E+00 -0.14160061166E+04  0.14160061166E+04  0.00000000000E+00 0. -1.
         25    2    1    2    0    0 -0.64652197018E+02 -0.70767994215E+02  0.14448382229E+04  0.14533997038E+04  0.12500077232E+03 0.  0.
          2    1    1    2  501    0  0.56519248804E+02 -0.15655771114E+02 -0.14099597284E+04  0.14111789271E+04  0.00000000000E+00 0. -1.
          1    1    1    2  502    0  0.81329482132E+01  0.86423765329E+02  0.16283631172E+04  0.16306752140E+04  0.00000000000E+00 0. -1.
         22    1    3    3    0    0 -0.77359804404E+01 -0.91600493837E+02  0.10392768809E+04  0.10433345250E+04  0.00000000000E+00 0.  1.
         22    1    3    3    0    0 -0.56916216577E+02  0.20832499622E+02  0.40556134194E+03  0.41006517875E+03  0.00000000000E+00 0.  1.
</event>
<event>
 7    1  0.6278987E-006  0.1736707E+03  0.7818608E-02  0.1286025E+00
          2   -1    0    0  502    0  0.00000000000E+00  0.00000000000E+00  0.13370806946E+04  0.13370806946E+04  0.00000000000E+00 0. -1.
          1   -1    0    0  501    0 -0.00000000000E+00 -0.00000000000E+00 -0.22467992299E+04  0.22467992299E+04  0.00000000000E+00 0. -1.
         25    2    1    2    0    0  0.20327680212E+03  0.93754949225E+02  0.10191079453E+04  0.10508647761E+04  0.12499729897E+03 0.  0.
          2    1    1    2  501    0 -0.16439141928E+03 -0.55511640069E+02 -0.22250538162E+04  0.22318088104E+04  0.00000000000E+00 0. -1.
          1    1    1    2  502    0 -0.38885382834E+02 -0.38243309156E+02  0.29622733561E+03  0.30120633801E+03  0.00000000000E+00 0. -1.
         22    1    3    3    0    0  0.20975637699E+02 -0.29195811616E+02  0.16879918597E+03  0.17258487181E+03  0.00000000000E+00 0.  1.
         22    1    3    3    0    0  0.18230116442E+03  0.12295076084E+03  0.85030875934E+03  0.87827990434E+03  0.00000000000E+00 0.  1.
</event>
<event>
 7    1  0.6278987E-006  0.5079688E+02  0.7818608E-02  0.1517792E+00
          2   -1    0    0  502    0  0.00000000000E+00  0.00000000000E+00  0.13785212636E+03  0.13785212636E+03  0.00000000000E+00 0. -1.
          1   -1    0    0  501    0 -0.00000000000E+00 -0.00000000000E+00 -0.28139370472E+03  0.28139370472E+03  0.00000000000E+00 0. -1.
         25    2    1    2    0    0  0.61285540161E+01  0.37994742852E+02 -0.11554669674E+03  0.17452003659E+03  0.12500017754E+03 0.  0.
          2    1    1    2  501    0 -0.28232266483E+02  0.86423428837E+01 -0.12844403007E+03  0.13179385350E+03  0.00000000000E+00 0. -1.
          1    1    1    2  502    0  0.22103712466E+02 -0.46637085736E+02  0.10044914845E+03  0.11293194099E+03  0.00000000000E+00 0. -1.
         22    1    3    3    0    0 -0.62849510660E+01  0.41320871638E+02 -0.14042788958E+03  0.14651589407E+03  0.00000000000E+00 0. -1.
         22    1    3    3    0    0  0.12413505082E+02 -0.33261287861E+01  0.24881192839E+02  0.28004142519E+02  0.00000000000E+00 0. -1.
</event>
<event>
 7    1  0.6278987E-006  0.1974653E+03  0.7818608E-02  0.1347463E+00
          2   -1    0    0  502    0  0.00000000000E+00  0.00000000000E+00  0.11934638180E+04  0.11934638180E+04  0.00000000000E+00 0. -1.
          1   -1    0    0  501    0 -0.00000000000E+00 -0.00000000000E+00 -0.18387795515E+04  0.18387795515E+04  0.00000000000E+00 0. -1.
         25    2    1    2    0    0 -0.10024749967E+03  0.19239433764E+03  0.47261531945E+03  0.53484435238E+03  0.12501239435E+03 0.  0.
          2    1    1    2  501    0  0.74381413449E+02 -0.18270671956E+03 -0.18020036574E+04  0.18127690204E+04  0.00000000000E+00 0. -1.
          1    1    1    2  502    0  0.25866086222E+02 -0.96876180846E+01  0.68407260443E+03  0.68462999678E+03  0.00000000000E+00 0. -1.
         22    1    3    3    0    0 -0.36364723422E+02  0.17774398793E+03  0.38322552976E+03  0.42400132666E+03  0.00000000000E+00 0. -1.
         22    1    3    3    0    0 -0.63882776249E+02  0.14650349719E+02  0.89389789696E+02  0.11084302572E+03  0.00000000000E+00 0. -1.
</event>
<event>
 7    1  0.6278987E-006  0.8974989E+02  0.7818608E-02  0.1425134E+00
          2   -1    0    0  502    0  0.00000000000E+00  0.00000000000E+00  0.24896164548E+04  0.24896164548E+04  0.00000000000E+00 0. -1.
          1   -1    0    0  501    0 -0.00000000000E+00 -0.00000000000E+00 -0.14496948324E+02  0.14496948324E+02  0.00000000000E+00 0. -1.
         25    2    1    2    0    0 -0.58373481990E+02  0.40323984950E+02  0.79685953708E+03  0.80971773162E+03  0.12499678354E+03 0.  0.
          2    1    1    2  501    0  0.90489613656E+02 -0.35828255593E+02  0.29270214699E+03  0.30845839416E+03  0.00000000000E+00 0. -1.
          1    1    1    2  502    0 -0.32116131666E+02 -0.44957293574E+01  0.13855578224E+04  0.13859372773E+04  0.00000000000E+00 0. -1.
         22    1    3    3    0    0 -0.73797371407E+02  0.70696731417E+02  0.46408042596E+03  0.47519966500E+03  0.00000000000E+00 0.  1.
         22    1    3    3    0    0  0.15423889417E+02 -0.30372746467E+02  0.33277911113E+03  0.33451806662E+03  0.00000000000E+00 0.  1.
</event>
<event>
 7    1  0.6278987E-006  0.7276586E+02  0.7818608E-02  0.1487515E+00
          2   -1    0    0  502    0  0.00000000000E+00  0.00000000000E+00  0.26611458695E+03  0.26611458695E+03  0.00000000000E+00 0. -1.
          1   -1    0    0  501    0 -0.00000000000E+00 -0.00000000000E+00 -0.18282477937E+03  0.18282477937E+03  0.00000000000E+00 0. -1.
         25    2    1    2    0    0 -0.82478593866E+02 -0.37697090232E+02  0.68681117215E+01  0.15458337624E+03  0.12500024077E+03 0.  0.
          2    1    1    2  501    0  0.13039747637E+02  0.21749931119E+02 -0.10048809170E+03  0.10363855989E+03  0.00000000000E+00 0. -1.
          1    1    1    2  502    0  0.69438846229E+02  0.15947159113E+02  0.17690978755E+03  0.19071743020E+03  0.00000000000E+00 0. -1.
         22    1    3    3    0    0 -0.10146112344E+02  0.20836847896E+02 -0.43122217708E+02  0.48955525592E+02  0.00000000000E+00 0.  1.
         22    1    3    3    0    0 -0.72332481522E+02 -0.58533938127E+02  0.49990329430E+02  0.10562785065E+03  0.00000000000E+00 0.  1.
</event>
<event>
 7    1  0.6278987E-006  0.4361039E+02  0.7818608E-02  0.1503916E+00
          2   -1    0    0  502    0  0.00000000000E+00  0.00000000000E+00  0.29839268258E+02  0.29839268258E+02  0.00000000000E+00 0. -1.
          1   -1    0    0  501    0 -0.00000000000E+00 -0.00000000000E+00 -0.22744349729E+04  0.22744349729E+04  0.00000000000E+00 0. -1.
         25    2    1    2    0    0  0.81952451576E+01 -0.49430579593E+01 -0.85997033207E+03  0.86906135748E+03  0.12500830036E+03 0.  0.
          2    1    1    2  501    0  0.52698202944E+01 -0.37408830879E+02 -0.13899418387E+04  0.13904551437E+04  0.00000000000E+00 0. -1.
          1    1    1    2  502    0 -0.13465065452E+02  0.42351888838E+02  0.53164661420E+01  0.44757739979E+02  0.00000000000E+00 0. -1.
         22    1    3    3    0    0  0.57457734716E+01 -0.48002341939E+02 -0.73994082258E+03  0.74151848235E+03  0.00000000000E+00 0.  1.
         22    1    3    3    0    0  0.24494716860E+01  0.43059283979E+02 -0.12002950949E+03  0.12754287513E+03  0.00000000000E+00 0.  1.
</event>
<event>
 7    1  0.6278987E-006  0.8303888E+02  0.7818608E-02  0.1326734E+00
          2   -1    0    0  502    0  0.00000000000E+00  0.00000000000E+00  0.41013194752E+03  0.41013194752E+03  0.00000000000E+00 0. -1.
          1   -1    0    0  501    0 -0.00000000000E+00 -0.00000000000E+00 -0.68939019158E+03  0.68939019158E+03  0.00000000000E+00 0. -1.
         25    2    1    2    0    0  0.96131374289E+01 -0.15677529881E+03 -0.26334141045E+02  0.20245903084E+03  0.12500106182E+03 0.  0.
          2    1    1    2  501    0  0.85945001606E+01  0.80246457121E+02 -0.56729117803E+03  0.57300317625E+03  0.00000000000E+00 0. -1.
          1    1    1    2  502    0 -0.18207637589E+02  0.76528841689E+02  0.31436707502E+03  0.32405993201E+03  0.00000000000E+00 0. -1.
         22    1    3    3    0    0  0.46362626607E+01 -0.48534278318E+01 -0.48399305568E+02  0.48862495563E+02  0.00000000000E+00 0.  1.
         22    1    3    3    0    0  0.49768747682E+01 -0.15192187098E+03  0.22065164523E+02  0.15359653528E+03  0.00000000000E+00 0.  1.
</event>
<event>
 7    1  0.6278987E-006  0.7473715E+02  0.7818608E-02  0.1486753E+00
          2   -1    0    0  502    0  0.00000000000E+00  0.00000000000E+00  0.37181791963E+03  0.37181791963E+03  0.00000000000E+00 0. -1.
          1   -1    0    0  501    0 -0.00000000000E+00 -0.00000000000E+00 -0.72240027370E+03  0.72240027370E+03  0.00000000000E+00 0. -1.
         25    2    1    2    0    0  0.91528876988E+02  0.23801782151E+02 -0.13115781770E+03  0.20438203467E+03  0.12500233116E+03 0.  0.
          2    1    1    2  501    0 -0.23860897655E+02  0.68413363223E+01 -0.55023175378E+03  0.55079136630E+03  0.00000000000E+00 0. -1.
          1    1    1    2  502    0 -0.67667979333E+02 -0.30643118474E+02  0.33080721741E+03  0.33904479237E+03  0.00000000000E+00 0. -1.
         22    1    3    3    0    0  0.78857279411E+02  0.70391586580E+02 -0.71413795018E+02  0.12756714348E+03  0.00000000000E+00 0.  1.
         22    1    3    3    0    0  0.12671597577E+02 -0.46589804428E+02 -0.59744022680E+02  0.76814891186E+02  0.00000000000E+00 0.  1.
</event>
<event>
 7    1  0.6278987E-006  0.5562426E+02  0.7818608E-02  0.1417628E+00
          2   -1    0    0  502    0  0.00000000000E+00  0.00000000000E+00  0.16438950505E+03  0.16438950505E+03  0.00000000000E+00 0. -1.
          1   -1    0    0  501    0 -0.00000000000E+00 -0.00000000000E+00 -0.18378975135E+04  0.18378975135E+04  0.00000000000E+00 0. -1.
         25    2    1    2    0    0 -0.17209520591E+02  0.14710797215E+02 -0.11739803842E+03  0.17297884486E+03  0.12500722455E+03 0.  0.
          2    1    1    2  501    0 -0.25760589736E+02 -0.50032578109E+02 -0.16865575904E+04  0.16874961845E+04  0.00000000000E+00 0. -1.
          1    1    1    2  502    0  0.42970110327E+02  0.35321780894E+02  0.13044762044E+03  0.14181198915E+03  0.00000000000E+00 0. -1.
         22    1    3    3    0    0 -0.35516783099E+01  0.66055517631E+02 -0.93955254705E+02  0.11490663912E+03  0.00000000000E+00 0.  1.
         22    1    3    3    0    0 -0.13657842281E+02 -0.51344720417E+02 -0.23442783717E+02  0.58072205734E+02  0.00000000000E+00 0.  1.
</event>
<event>
 7    1  0.6278987E-006  0.1550133E+03  0.7818608E-02  0.1355054E+00
          2   -1    0    0  502    0  0.00000000000E+00  0.00000000000E+00  0.19650661801E+04  0.19650661801E+04  0.00000000000E+00 0. -1.
          1   -1    0    0  501    0 -0.00000000000E+00 -0.00000000000E+00 -0.85913005563E+02  0.85913005563E+02  0.00000000000E+00 0. -1.
         25    2    1    2    0    0  0.55829280157E+02 -0.16425706057E+03  0.38439442749E+03  0.43986557532E+03  0.12500143196E+03 0.  0.
          2    1    1    2  501    0 -0.30003028598E+02  0.13699046262E+02 -0.49410268259E+02  0.59407240324E+02  0.00000000000E+00 0. -1.
          1    1    1    2  502    0 -0.25826251559E+02  0.15055801431E+03  0.15441690153E+04  0.15517063700E+04  0.00000000000E+00 0. -1.
         22    1    3    3    0    0  0.10256740410E+01  0.16280052480E+02  0.80729558774E+02  0.82361118107E+02  0.00000000000E+00 0.  1.
         22    1    3    3    0    0  0.54803606116E+02 -0.18053711305E+03  0.30366486872E+03  0.35750445721E+03  0.00000000000E+00 0.  1.
</event>
<event>
 7    1  0.6278987E-006  0.7598690E+02  0.7818608E-02  0.1343320E+00
          2   -1    0    0  502    0  0.00000000000E+00  0.00000000000E+00  0.97355301650E+02  0.97355301650E+02  0.00000000000E+00 0. -1.
          1   -1    0    0  501    0 -0.00000000000E+00 -0.00000000000E+00 -0.16474177625E+04  0.16474177625E+04  0.00000000000E+00 0. -1.
         25    2    1    2    0    0  0.63519612530E+00  0.98709773372E+01 -0.30395476719E+03  0.32880341211E+03  0.12500137459E+03 0.  0.
          2    1    1    2  501    0  0.64766844308E+02  0.36570629784E+02 -0.13108067178E+04  0.13129152321E+04  0.00000000000E+00 0. -1.
          1    1    1    2  502    0 -0.65402040433E+02 -0.46441607122E+02  0.64699024117E+02  0.10305442002E+03  0.00000000000E+00 0. -1.
         22    1    3    3    0    0  0.82135145901E+01 -0.50308566068E+02 -0.66873399626E+02  0.84086058412E+02  0.00000000000E+00 0. -1.
         22    1    3    3    0    0 -0.75783184648E+01  0.60179543405E+02 -0.23708136756E+03  0.24471735369E+03  0.00000000000E+00 0. -1.
</event>
<event>
 7    1  0.6278987E-006  0.4570863E+02  0.7818608E-02  0.1556021E+00
          2   -1    0    0  502    0  0.00000000000E+00  0.00000000000E+00  0.21259676101E+04  0.21259676101E+04  0.00000000000E+00 0. -1.
          1   -1    0    0  501    0 -0.00000000000E+00 -0.00000000000E+00 -0.19063323165E+04  0.19063323165E+04  0.00000000000E+00 0. -1.
         25    2    1    2    0    0 -0.66523066165E+02 -0.21668157747E+02  0.39246348449E+03  0.41780077511E+03  0.12504028803E+03 0.  0.
          2    1    1    2  501    0  0.25368139170E+02  0.30971921188E+01 -0.18932812509E+04  0.18934537307E+04  0.00000000000E+00 0. -1.
          1    1    1    2  502    0  0.41154926996E+02  0.18570965628E+02  0.17204530600E+04  0.17210454208E+04  0.00000000000E+00 0. -1.
         22    1    3    3    0    0 -0.14436832515E+01 -0.54806168327E+02  0.80454192828E+02  0.97358499637E+02  0.00000000000E+00 0. -1.
         22    1    3    3    0    0 -0.65079382914E+02  0.33138010581E+02  0.31200929166E+03  0.32044227547E+03  0.00000000000E+00 0. -1.
</event>
<event>
 7    1  0.6278987E-006  0.7798986E+02  0.7818608E-02  0.1371033E+00
          2   -1    0    0  502    0  0.00000000000E+00  0.00000000000E+00  0.31165439882E+04  0.31165439882E+04  0.00000000000E+00 0. -1.
          1   -1    0    0  501    0 -0.00000000000E+00 -0.00000000000E+00 -0.41032238448E+03  0.41032238448E+03  0.00000000000E+00 0. -1.
         25    2    1    2    0    0  0.71116323773E+02 -0.42172106042E+02  0.15360861119E+03  0.21460865907E+03  0.12500101233E+03 0.  0.
          2    1    1    2  501    0 -0.76908118563E+02 -0.14889021693E+02 -0.37549945579E+03  0.38358360623E+03  0.00000000000E+00 0. -1.
          1    1    1    2  502    0  0.57917947907E+01  0.57061127735E+02  0.29281124483E+04  0.29286741074E+04  0.00000000000E+00 0. -1.
         22    1    3    3    0    0 -0.42579276460E+01 -0.69510551714E+02  0.74198675746E+02  0.10176094649E+03  0.00000000000E+00 0. -1.
         22    1    3    3    0    0  0.75374251419E+02  0.27338445672E+02  0.79409935443E+02  0.11284771259E+03  0.00000000000E+00 0. -1.
</event>
<event>
 7    1  0.6278987E-006  0.4752249E+03  0.7818608E-02  0.1244588E+00
          2   -1    0    0  502    0  0.00000000000E+00  0.00000000000E+00  0.19766785532E+04  0.19766785532E+04  0.00000000000E+00 0. -1.
          1   -1    0    0  501    0 -0.00000000000E+00 -0.00000000000E+00 -0.72007412874E+03  0.72007412874E+03  0.00000000000E+00 0. -1.
         25    2    1    2    0    0 -0.43249238054E+02  0.47329322957E+03  0.22490453978E+03  0.54044767734E+03  0.12499864870E+03 0.  0.
          2    1    1    2  501    0 -0.29639853882E+02 -0.35264802886E+01 -0.52642601505E+03  0.52727156791E+03  0.00000000000E+00 0. -1.
          1    1    1    2  502    0  0.72889091936E+02 -0.46976674928E+03  0.15581258998E+04  0.16290334367E+04  0.00000000000E+00 0. -1.
         22    1    3    3    0    0 -0.23606989051E+02  0.23648362854E+03  0.43761514055E+02  0.24165443636E+03  0.00000000000E+00 0. -1.
         22    1    3    3    0    0 -0.19642249003E+02  0.23680960103E+03  0.18114302573E+03  0.29879324098E+03  0.00000000000E+00 0. -1.
</event>
<event>
 7    1  0.6278987E-006  0.4461398E+02  0.7818608E-02  0.1507655E+00
          2   -1    0    0  502    0  0.00000000000E+00  0.00000000000E+00  0.38606213364E+02  0.38606213364E+02  0.00000000000E+00 0. -1.
          1   -1    0    0  501    0 -0.00000000000E+00 -0.00000000000E+00 -0.77974109861E+03  0.77974109861E+03  0.00000000000E+00 0. -1.
         25    2    1    2    0    0  0.24172459839E+02  0.10303799721E+02 -0.26529423014E+03  0.29444222232E+03  0.12499887053E+03 0.  0.
          2    1    1    2  501    0 -0.41660334797E+02  0.21162070303E+02 -0.48460663093E+03  0.48685419117E+03  0.00000000000E+00 0. -1.
          1    1    1    2  502    0  0.17487874958E+02 -0.31465870025E+02  0.87659758232E+01  0.37050898492E+02  0.00000000000E+00 0. -1.
         22    1    3    3    0    0 -0.38757827175E+01  0.64651974824E+02 -0.11169724351E+03  0.12911689954E+03  0.00000000000E+00 0.  1.
         22    1    3    3    0    0  0.28048242556E+02 -0.54348175103E+02 -0.15359698663E+03  0.16532532277E+03  0.00000000000E+00 0.  1.
</event>
<event>
 7    1  0.6278987E-006  0.2313958E+03  0.7818608E-02  0.1220358E+00
          2   -1    0    0  502    0  0.00000000000E+00  0.00000000000E+00  0.24201728384E+04  0.24201728384E+04  0.00000000000E+00 0. -1.
          1   -1    0    0  501    0 -0.00000000000E+00 -0.00000000000E+00 -0.30648083642E+03  0.30648083642E+03  0.00000000000E+00 0. -1.
         25    2    1    2    0    0 -0.11090490477E+03  0.27281361057E+03  0.64451573989E+03  0.71955087986E+03  0.12500306283E+03 0.  0.
          2    1    1    2  501    0  0.48349058900E+02 -0.62029939354E+02 -0.25608395249E+03  0.26788866269E+03  0.00000000000E+00 0. -1.
          1    1    1    2  502    0  0.62555845866E+02 -0.21078367121E+03  0.17252602145E+04  0.17392141322E+04  0.00000000000E+00 0. -1.
         22    1    3    3    0    0 -0.30172216114E+02  0.22041191651E+03  0.47765095942E+03  0.52691765447E+03  0.00000000000E+00 0.  1.
         22    1    3    3    0    0 -0.80732688653E+02  0.52401694061E+02  0.16686478048E+03  0.19263322538E+03  0.00000000000E+00 0.  1.
</event>
<event>
 7    1  0.6278987E-006  0.4641861E+02  0.7818608E-02  0.1516725E+00
          2   -1    0    0  502    0  0.00000000000E+00  0.00000000000E+00  0.32253880896E+02  0.32253880896E+02  0.00000000000E+00 0. -1.
          1   -1    0    0  501    0 -0.00000000000E+00 -0.00000000000E+00 -0.19587622148E+04  0.19587622148E+04  0.00000000000E+00 0. -1.
         25    2    1    2    0    0  0.56471342446E+02  0.27373967866E+02 -0.60741275201E+03  0.62330834647E+03  0.12499878738E+03 0.  0.
          2    1    1    2  501    0 -0.25752696901E+02 -0.38115186084E+02 -0.13319313111E+04  0.13327253980E+04  0.00000000000E+00 0. -1.
          1    1    1    2  502    0 -0.30718645545E+02  0.10741218219E+02  0.12835729251E+02  0.34982351241E+02  0.00000000000E+00 0. -1.
         22    1    3    3    0    0 -0.44068903092E+01  0.63512314466E+02 -0.37452018569E+03  0.37989288525E+03  0.00000000000E+00 0.  1.
         22    1    3    3    0    0  0.60878232755E+02 -0.36138346601E+02 -0.23289256631E+03  0.24341546122E+03  0.00000000000E+00 0.  1.
</event>
<event>
 7    1  0.6278987E-006  0.1943326E+03  0.7818608E-02  0.1281806E+00
          2   -1    0    0  502    0  0.00000000000E+00  0.00000000000E+00  0.12263513734E+03  0.12263513734E+03  0.00000000000E+00 0. -1.
          1   -1    0    0  501    0 -0.00000000000E+00 -0.00000000000E+00 -0.13941808495E+04  0.13941808495E+04  0.00000000000E+00 0. -1.
         25    2    1    2    0    0  0.50834861778E+02 -0.22578093335E+03 -0.50155922905E+03  0.56634776336E+03  0.12500766288E+03 0.  0.
          2    1    1    2  501    0 -0.26490336074E+02  0.18127907843E+03 -0.84238007323E+03  0.86207194012E+03  0.00000000000E+00 0. -1.
          1    1    1    2  502    0 -0.24344525704E+02  0.44501854919E+02  0.72393590110E+02  0.88396283360E+02  0.00000000000E+00 0. -1.
         22    1    3    3    0    0  0.75164823881E+02 -0.18057269028E+03 -0.29830640664E+03  0.35671131110E+03  0.00000000000E+00 0.  1.
         22    1    3    3    0    0 -0.24329962103E+02 -0.45208243068E+02 -0.20325282241E+03  0.20963645226E+03  0.00000000000E+00 0.  1.
</event>
<event>
 7    1  0.6278987E-006  0.1012020E+03  0.7818608E-02  0.1281206E+00
          2   -1    0    0  502    0  0.00000000000E+00  0.00000000000E+00  0.13126154854E+04  0.13126154854E+04  0.00000000000E+00 0. -1.
          1   -1    0    0  501    0 -0.00000000000E+00 -0.00000000000E+00 -0.18816091631E+04  0.18816091631E+04  0.00000000000E+00 0. -1.
         25    2    1    2    0    0  0.10247269383E+03 -0.16926172256E+03 -0.13162047232E+04  0.13368509788E+04  0.12500192948E+03 0.  0.
          2    1    1    2  501    0 -0.41261672595E+02  0.88847780006E+02 -0.54877667691E+03  0.55745160755E+03  0.00000000000E+00 0. -1.
          1    1    1    2  502    0 -0.61211021233E+02  0.80413942554E+02  0.12959877223E+04  0.12999220622E+04  0.00000000000E+00 0. -1.
         22    1    3    3    0    0 -0.26887022101E+02 -0.45208406697E+02 -0.22827629741E+03  0.23425793466E+03  0.00000000000E+00 0.  1.
         22    1    3    3    0    0  0.12935971593E+03 -0.12405331586E+03 -0.10879284258E+04  0.11025930441E+04  0.00000000000E+00 0.  1.
</event>
<event>
 7    1  0.6278987E-006  0.8916757E+02  0.7818608E-02  0.1309656E+00
          2   -1    0    0  502    0  0.00000000000E+00  0.00000000000E+00  0.15270614334E+04  0.15270614334E+04  0.00000000000E+00 0. -1.
          1   -1    0    0  501    0 -0.00000000000E+00 -0.00000000000E+00 -0.55246458311E+03  0.55246458311E+03  0.00000000000E+00 0. -1.
         25    2    1    2    0    0  0.10102888211E+03  0.87803150218E+02  0.11314011755E+03  0.21527309791E+03  0.12500236908E+03 0.  0.
          2    1    1    2  501    0 -0.85368719029E+02 -0.48741753917E+00 -0.49630630694E+03  0.50359508146E+03  0.00000000000E+00 0. -1.
          1    1    1    2  502    0 -0.15660163077E+02 -0.87315732679E+02  0.13577630397E+04  0.13606578371E+04  0.00000000000E+00 0. -1.
         22    1    3    3    0    0  0.12240229011E+03  0.37598303807E+02  0.71688425001E+02  0.14674870818E+03  0.00000000000E+00 0. -1.
         22    1    3    3    0    0 -0.21373407999E+02  0.50204846411E+02  0.41451692550E+02  0.68524389731E+02  0.00000000000E+00 0. -1.
</event>
<event>
 7    1  0.6278987E-006  0.2528903E+02  0.7818608E-02  0.1658011E+00
          2   -1    0    0  502    0  0.00000000000E+00  0.00000000000E+00  0.39598767967E+03  0.39598767967E+03  0.00000000000E+00 0. -1.
          1   -1    0    0  501    0 -0.00000000000E+00 -0.00000000000E+00 -0.20291437891E+04  0.20291437891E+04  0.00000000000E+00 0. -1.
         25    2    1    2    0    0  0.36600477383E+01  0.61561090789E+00 -0.14610669259E+03  0.19231794156E+03  0.12500100041E+03 0.  0.
          2    1    1    2  501    0  0.38264411038E+01 -0.24837210464E+02 -0.18594155454E+04  0.18595853568E+04  0.00000000000E+00 0. -1.
          1    1    1    2  502    0 -0.74864888421E+01  0.24221599556E+02  0.37236612863E+03  0.37322817036E+03  0.00000000000E+00 0. -1.
         22    1    3    3    0    0  0.33758361697E+02 -0.49509408529E+02 -0.10483073788E+03  0.12074888041E+03  0.00000000000E+00 0. -1.
         22    1    3    3    0    0 -0.30098313958E+02  0.50125019437E+02 -0.41275954712E+02  0.71569061151E+02  0.00000000000E+00 0. -1.
</event>
<event>
 7    1  0.6278987E-006  0.5624138E+02  0.7818608E-02  0.1516455E+00
          2   -1    0    0  502    0  0.00000000000E+00  0.00000000000E+00  0.67884981010E+03  0.67884981010E+03  0.00000000000E+00 0. -1.
          1   -1    0    0  501    0 -0.00000000000E+00 -0.00000000000E+00 -0.32007266535E+03  0.32007266535E+03  0.00000000000E+00 0. -1.
         25    2    1    2    0    0  0.60212697358E+02  0.37953223016E+01 -0.15994825709E+03  0.21177320617E+03  0.12499789003E+03 0.  0.
          2    1    1    2  501    0 -0.48914733480E+02 -0.28216018287E+02 -0.12797991185E+03  0.13988442614E+03  0.00000000000E+00 0. -1.
          1    1    1    2  502    0 -0.11297963878E+02  0.24420695985E+02  0.64670531370E+03  0.64726484313E+03  0.00000000000E+00 0. -1.
         22    1    3    3    0    0  0.66914519055E+02 -0.16834168708E+02 -0.17314245088E+03  0.18638468390E+03  0.00000000000E+00 0.  1.
         22    1    3    3    0    0 -0.67018216972E+01  0.20629491009E+02  0.13194193788E+02  0.25388522270E+02  0.00000000000E+00 0.  1.
</event>
<event>
 7    1  0.6278987E-006  0.8703552E+02  0.7818608E-02  0.1320111E+00
          2   -1    0    0  502    0  0.00000000000E+00  0.00000000000E+00  0.10552238302E+04  0.10552238302E+04  0.00000000000E+00 0. -1.
          1   -1    0    0  501    0 -0.00000000000E+00 -0.00000000000E+00 -0.45803637116E+03  0.45803637116E+03  0.00000000000E+00 0. -1.
         25    2    1    2    0    0 -0.46502859008E+02 -0.10261692559E+03 -0.16364447135E+03  0.23474425594E+03  0.12503040982E+03 0.  0.
          2    1    1    2  501    0  0.81454429118E+02  0.31098512096E+02 -0.24989019178E+03  0.26466403122E+03  0.00000000000E+00 0. -1.
          1    1    1    2  502    0 -0.34951570110E+02  0.71518413494E+02  0.10107221221E+04  0.10138519142E+04  0.00000000000E+00 0. -1.
         22    1    3    3    0    0 -0.29432371219E+02 -0.11768657842E+01  0.11503830618E+02  0.31622580659E+02  0.00000000000E+00 0.  1.
         22    1    3    3    0    0 -0.17070487789E+02 -0.10144005981E+03 -0.17514830196E+03  0.20312167528E+03  0.00000000000E+00 0.  1.
</event>
<event>
 7    1  0.6278987E-006  0.1044266E+03  0.7818608E-02  0.1351805E+00
          2   -1    0    0  502    0  0.00000000000E+00  0.00000000000E+00  0.43248713392E+03  0.43248713392E+03  0.00000000000E+00 0. -1.
          1   -1    0    0  501    0 -0.00000000000E+00 -0.00000000000E+00 -0.31086940298E+03  0.31086940298E+03  0.00000000000E+00 0. -1.
         25    2    1    2    0    0 -0.73211192885E+02 -0.23460930304E+02 -0.12455703613E+03  0.19248218789E+03  0.12499857355E+03 0.  0.
          2    1    1    2  501    0  0.11515455424E+03  0.51277249647E+02 -0.12427896218E+03  0.17701747974E+03  0.00000000000E+00 0. -1.
          1    1    1    2  502    0 -0.41943361358E+02 -0.27816319343E+02  0.37045372925E+03  0.37385686926E+03  0.00000000000E+00 0. -1.
         22    1    3    3    0    0  0.27875595173E+02 -0.31821324370E+02 -0.55454036989E+02  0.69748087495E+02  0.00000000000E+00 0.  1.
         22    1    3    3    0    0 -0.10108678806E+03  0.83603940663E+01 -0.69102999140E+02  0.12273410039E+03  0.00000000000E+00 0.  1.
</event>
<event>
 7    1  0.6278987E-006  0.1217374E+03  0.7818608E-02  0.1392647E+00
          2   -1    0    0  502    0  0.00000000000E+00  0.00000000000E+00  0.30770961958E+04  0.30770961958E+04  0.00000000000E+00 0. -1.
          1   -1    0    0  501    0 -0.00000000000E+00 -0.00000000000E+00 -0.81686485823E+03  0.81686485823E+03  0.00000000000E+00 0. -1.
         25    2    1    2    0    0  0.15224236716E+03  0.70313127864E+01  0.15601046203E+04  0.15725056571E+04  0.12498174903E+03 0.  0.
          2    1    1    2  501    0 -0.12158723923E+03 -0.38483463643E+01 -0.80594217197E+03  0.81507119386E+03  0.00000000000E+00 0. -1.
          1    1    1    2  502    0 -0.30655127926E+02 -0.31829664220E+01  0.15060688892E+04  0.15063842030E+04  0.00000000000E+00 0. -1.
         22    1    3    3    0    0  0.85371880134E+02 -0.30069121029E+02  0.12437569840E+04  0.12470460878E+04  0.00000000000E+00 0. -1.
         22    1    3    3    0    0  0.66870487026E+02  0.37100433815E+02  0.31634763634E+03  0.32545956929E+03  0.00000000000E+00 0. -1.
</event>
<event>
 7    1  0.6278987E-006  0.1147181E+03  0.7818608E-02  0.1342500E+00
          2   -1    0    0  502    0  0.00000000000E+00  0.00000000000E+00  0.76752367360E+03  0.76752367360E+03  0.00000000000E+00 0. -1.
          1   -1    0    0  501    0 -0.00000000000E+00 -0.00000000000E+00 -0.24474081544E+03  0.24474081544E+03  0.00000000000E+00 0. -1.
         25    2    1    2    0    0 -0.93012045720E+02  0.13381385974E+03  0.53129492914E+03  0.56961097158E+03  0.12499987003E+03 0.  0.
          2    1    1    2  501    0  0.66930663431E+02 -0.91605833874E+02 -0.20808602034E+03  0.23700450284E+03  0.00000000000E+00 0. -1.
          1    1    1    2  502    0  0.26081382289E+02 -0.42208025862E+02  0.19957394936E+03  0.20564901462E+03  0.00000000000E+00 0. -1.
         22    1    3    3    0    0 -0.87523112514E+02  0.14831912712E+03  0.37623395381E+03  0.41377632447E+03  0.00000000000E+00 0.  1.
         22    1    3    3    0    0 -0.54889332066E+01 -0.14505267380E+02  0.15506097532E+03  0.15583464710E+03  0.00000000000E+00 0.  1.
</event>
<event>
 7    1  0.6278987E-006  0.1132188E+03  0.7818608E-02  0.1273544E+00
          2   -1    0    0  502    0  0.00000000000E+00  0.00000000000E+00  0.68319989740E+03  0.68319989740E+03  0.00000000000E+00 0. -1.
          1   -1    0    0  501    0 -0.00000000000E+00 -0.00000000000E+00 -0.20250845794E+03  0.20250845794E+03  0.00000000000E+00 0. -1.
         25    2    1    2    0    0 -0.43278252321E+02  0.67577235683E+02  0.24067052384E+02  0.15047813526E+03  0.12499902509E+03 0.  0.
          2    1    1    2  501    0  0.82803567372E+02  0.44946537890E+02 -0.11649932770E+03  0.14982895378E+03  0.00000000000E+00 0. -1.
          1    1    1    2  502    0 -0.39525315051E+02 -0.11252377357E+03  0.57312371478E+03  0.58540126630E+03  0.00000000000E+00 0. -1.
         22    1    3    3    0    0 -0.18734013387E+02 -0.33625551418E+02  0.25779745514E+02  0.46327489081E+02  0.00000000000E+00 0. -1.
         22    1    3    3    0    0 -0.24544238934E+02  0.10120278710E+03 -0.17126931298E+01  0.10415064618E+03  0.00000000000E+00 0. -1.
</event>
<event>
 7    1  0.6278987E-006  0.1218123E+03  0.7818608E-02  0.1299529E+00
          2   -1    0    0  502    0  0.00000000000E+00  0.00000000000E+00  0.16619273426E+04  0.16619273426E+04  0.00000000000E+00 0. -1.
          1   -1    0    0  501    0 -0.00000000000E+00 -0.00000000000E+00 -0.45123988645E+03  0.45123988645E+03  0.00000000000E+00 0. -1.
         25    2    1    2    0    0 -0.16073144355E+02  0.13965502420E+03  0.21771650166E+03  0.28772814675E+03  0.12500055832E+03 0.  0.
          2    1    1    2  501    0 -0.46832332033E+02 -0.11238964899E+03 -0.40647280514E+03  0.42431691204E+03  0.00000000000E+00 0. -1.
          1    1    1    2  502    0  0.62905476388E+02 -0.27265375206E+02  0.13994437596E+04  0.14011221702E+04  0.00000000000E+00 0. -1.
         22    1    3    3    0    0 -0.19968661749E+02  0.12243454200E+02  0.13212996345E+03  0.13419007737E+03  0.00000000000E+00 0.  1.
         22    1    3    3    0    0  0.38955173943E+01  0.12741157000E+03  0.85586538211E+02  0.15353806938E+03  0.00000000000E+00 0.  1.
</event>
<event>
 7    1  0.6278987E-006  0.9989478E+02  0.7818608E-02  0.1472663E+00
          2   -1    0    0  502    0  0.00000000000E+00  0.00000000000E+00  0.13514282962E+04  0.13514282962E+04  0.00000000000E+00 0. -1.
          1   -1    0    0  501    0 -0.00000000000E+00 -0.00000000000E+00 -0.12972054683E+03  0.12972054683E+03  0.00000000000E+00 0. -1.
         25    2    1    2    0    0  0.76247771418E+02  0.49982142382E+02  0.74331665937E+02  0.17164774985E+03  0.12500326501E+03 0.  0.
          2    1    1    2  501    0 -0.74480411668E+02 -0.70421157093E+02 -0.48536948890E+02  0.11341210912E+03  0.00000000000E+00 0. -1.
          1    1    1    2  502    0 -0.17673597498E+01  0.20439014710E+02  0.11959130323E+04  0.11960889841E+04  0.00000000000E+00 0. -1.
         22    1    3    3    0    0  0.70079091782E+02 -0.26691147145E+02  0.20436795983E+02  0.77724893509E+02  0.00000000000E+00 0. -1.
         22    1    3    3    0    0  0.61686796359E+01  0.76673289528E+02  0.53894869954E+02  0.93922856339E+02  0.00000000000E+00 0. -1.
</event>
<event>
 7    1  0.6278987E-006  0.1204877E+03  0.7818608E-02  0.1278333E+00
          2   -1    0    0  502    0  0.00000000000E+00  0.00000000000E+00  0.36736496506E+03  0.36736496506E+03  0.00000000000E+00 0. -1.
          1   -1    0    0  501    0 -0.00000000000E+00 -0.00000000000E+00 -0.24704335035E+03  0.24704335035E+03  0.00000000000E+00 0. -1.
         25    2    1    2    0    0  0.28683713088E+02  0.99742546790E+02  0.21251370203E+03  0.26750468119E+03  0.12500139948E+03 0.  0.
          2    1    1    2  501    0 -0.55628639118E+02  0.63689170732E+02 -0.14939400559E+03  0.17166660964E+03  0.00000000000E+00 0. -1.
          1    1    1    2  502    0  0.26944926030E+02 -0.16343171752E+03  0.57201918263E+02  0.17523702458E+03  0.00000000000E+00 0. -1.
         22    1    3    3    0    0  0.41404304138E+02  0.96835262528E+02  0.22563290477E+03  0.24900118912E+03  0.00000000000E+00 0.  1.
         22    1    3    3    0    0 -0.12720591050E+02  0.29072842620E+01 -0.13119202736E+02  0.18503492072E+02  0.00000000000E+00 0.  1.
</event>
<event>
 7    1  0.6278987E-006  0.5108482E+02  0.7818608E-02  0.1444728E+00
          2   -1    0    0  502    0  0.00000000000E+00  0.00000000000E+00  0.19801273170E+04  0.19801273170E+04  0.00000000000E+00 0. -1.
          1   -1    0    0  501    0 -0.00000000000E+00 -0.00000000000E+00 -0.54134096477E+02  0.54134096477E+02  0.00000000000E+00 0. -1.
         25    2    1    2    0    0  0.20141653551E+02  0.97105185130E+02  0.16171641573E+03  0.22718462696E+03  0.12500220967E+03 0.  0.
          2    1    1    2  501    0 -0.15029137265E+02 -0.46808061296E+02  0.76863028978E+01  0.49758906956E+02  0.00000000000E+00 0. -1.
          1    1    1    2  502    0 -0.51125162857E+01 -0.50297123834E+02  0.17565905019E+04  0.17573178796E+04  0.00000000000E+00 0. -1.
         22    1    3    3    0    0  0.28797650037E+02 -0.24401808724E+02  0.38862300947E+02  0.54175929632E+02  0.00000000000E+00 0.  1.
         22    1    3    3    0    0 -0.86559964860E+01  0.12150699385E+03  0.12285411478E+03  0.17300869732E+03  0.00000000000E+00 0.  1.
</event>
<event>
 7    1  0.6278987E-006  0.1412294E+03  0.7818608E-02  0.1240271E+00
          2   -1    0    0  502    0  0.00000000000E+00  0.00000000000E+00  0.10155967492E+04  0.10155967492E+04  0.00000000000E+00 0. -1.
          1   -1    0    0  501    0 -0.00000000000E+00 -0.00000000000E+00 -0.10984532981E+04  0.10984532981E+04  0.00000000000E+00 0. -1.
         25    2    1    2    0    0 -0.31209227628E+02  0.22111570402E+03 -0.25428813300E+03  0.36076839275E+03  0.12500083268E+03 0.  0.
          2    1    1    2  501    0  0.58769874169E+02 -0.11987870644E+03 -0.78239362060E+03  0.79370308045E+03  0.00000000000E+00 0. -1.
          1    1    1    2  502    0 -0.27560646541E+02 -0.10123699758E+03  0.95382520470E+03  0.95957857419E+03  0.00000000000E+00 0. -1.
         22    1    3    3    0    0 -0.75464760767E+02  0.17881894971E+03 -0.20359622374E+03  0.28128734279E+03  0.00000000000E+00 0. -1.
         22    1    3    3    0    0  0.44255533139E+02  0.42296754314E+02 -0.50691909258E+02  0.79481049962E+02  0.00000000000E+00 0. -1.
</event>
<event>
 7    1  0.6278987E-006  0.5719042E+02  0.7818608E-02  0.1477860E+00
          2   -1    0    0  502    0  0.00000000000E+00  0.00000000000E+00  0.28191456596E+04  0.28191456596E+04  0.00000000000E+00 0. -1.
          1   -1    0    0  501    0 -0.00000000000E+00 -0.00000000000E+00 -0.65878977809E+03  0.65878977809E+03  0.00000000000E+00 0. -1.
         25    2    1    2    0    0 -0.31044746840E+02  0.47234167802E+01  0.17333058001E+04  0.17380910856E+04  0.12500215304E+03 0.  0.
          2    1    1    2  501    0  0.43789772692E+02 -0.36819799111E+02 -0.65487443540E+03  0.65736882185E+03  0.00000000000E+00 0. -1.
          1    1    1    2  502    0 -0.12745025853E+02  0.32096382331E+02  0.10819245168E+04  0.10824755302E+04  0.00000000000E+00 0. -1.
         22    1    3    3    0    0  0.21061344783E+02  0.13767137734E+02  0.14291730895E+04  0.14293945690E+04  0.00000000000E+00 0. -1.
         22    1    3    3    0    0 -0.52106091622E+02 -0.90437209541E+01  0.30413271058E+03  0.30869651653E+03  0.00000000000E+00 0. -1.
</event>
<event>
 7    1  0.6278987E-006  0.1918909E+03  0.7818608E-02  0.1181769E+00
          2   -1    0    0  502    0  0.00000000000E+00  0.00000000000E+00  0.59658628485E+03  0.59658628485E+03  0.00000000000E+00 0. -1.
          1   -1    0    0  501    0 -0.00000000000E+00 -0.00000000000E+00 -0.16243259167E+04  0.16243259167E+04  0.00000000000E+00 0. -1.
         25    2    1    2    0    0 -0.15005648201E+03 -0.47496855096E+02  0.30825081725E+03  0.36799003288E+03  0.12500079569E+03 0.  0.
          2    1    1    2  501    0 -0.10433094429E+03 -0.99412516349E+02 -0.15064233705E+04  0.15133007518E+04  0.00000000000E+00 0. -1.
          1    1    1    2  502    0  0.25438742630E+03  0.14690937144E+03  0.17043292139E+03  0.33962141683E+03  0.00000000000E+00 0. -1.
         22    1    3    3    0    0 -0.33293434698E+02  0.41520482263E+02  0.66897606261E+02  0.85485045270E+02  0.00000000000E+00 0. -1.
         22    1    3    3    0    0 -0.11676304731E+03 -0.89017337359E+02  0.24135321099E+03  0.28250498761E+03  0.00000000000E+00 0. -1.
</event>
<event>
 7    1  0.6278987E-006  0.6609766E+02  0.7818608E-02  0.1488026E+00
          2   -1    0    0  502    0  0.00000000000E+00  0.00000000000E+00  0.30148539517E+03  0.30148539517E+03  0.00000000000E+00 0. -1.
          1   -1    0    0  501    0 -0.00000000000E+00 -0.00000000000E+00 -0.74984458389E+03  0.74984458389E+03  0.00000000000E+00 0. -1.
         25    2    1    2    0    0 -0.81987114071E+02 -0.39895226871E+02  0.14267439378E+03  0.21046197939E+03  0.12499898451E+03 0.  0.
          2    1    1    2  501    0  0.54286174790E+02  0.37343962884E+02 -0.71286365540E+03  0.71590233379E+03  0.00000000000E+00 0. -1.
          1    1    1    2  502    0  0.27700939281E+02  0.25512639868E+01  0.12183007289E+03  0.12496566587E+03  0.00000000000E+00 0. -1.
         22    1    3    3    0    0 -0.41762245009E+02  0.41968628379E+02  0.81095628110E+02  0.10040892278E+03  0.00000000000E+00 0.  1.
         22    1    3    3    0    0 -0.40224869062E+02 -0.81863855250E+02  0.61578765672E+02  0.11005305661E+03  0.00000000000E+00 0.  1.
</event>
<event>
 7    1  0.6278987E-006  0.6703000E+02  0.7818608E-02  0.1414071E+00
          2   -1    0    0  502    0  0.00000000000E+00  0.00000000000E+00  0.11480948826E+03  0.11480948826E+03  0.00000000000E+00 0. -1.
          1   -1    0    0  501    0 -0.00000000000E+00 -0.00000000000E+00 -0.47674597306E+03  0.47674597306E+03  0.00000000000E+00 0. -1.
         25    2    1    2    0    0 -0.21917601135E+02  0.41408213584E+02 -0.89889200583E+02  0.16093524625E+03  0.12500025485E+03 0.  0.
          2    1    1    2  501    0  0.38298909356E+02  0.27722657726E+02 -0.33340883700E+03  0.33674442059E+03  0.00000000000E+00 0. -1.
          1    1    1    2  502    0 -0.16381308221E+02 -0.69130871310E+02  0.61361552787E+02  0.93875794472E+02  0.00000000000E+00 0. -1.
         22    1    3    3    0    0  0.32354588070E+02  0.64947487521E+02 -0.62407717684E+02  0.95706419487E+02  0.00000000000E+00 0.  1.
         22    1    3    3    0    0 -0.54272189205E+02 -0.23539273936E+02 -0.27481482899E+02  0.65228826763E+02  0.00000000000E+00 0.  1.
</event>
<event>
 7    1  0.6278987E-006  0.1183029E+03  0.7818608E-02  0.1447750E+00
          2   -1    0    0  502    0  0.00000000000E+00  0.00000000000E+00  0.15417983944E+04  0.15417983944E+04  0.00000000000E+00 0. -1.
          1   -1    0    0  501    0 -0.00000000000E+00 -0.00000000000E+00 -0.80751113642E+02  0.80751113642E+02  0.00000000000E+00 0. -1.
         25    2    1    2    0    0  0.16884365375E+02  0.99238762550E+02  0.25846372923E+03  0.30424023795E+03  0.12500083711E+03 0.  0.
          2    1    1    2  501    0  0.97510155028E+01  0.18325998523E+02 -0.53016681139E+02  0.56935867467E+02  0.00000000000E+00 0. -1.
          1    1    1    2  502    0 -0.26635380878E+02 -0.11756476107E+03  0.12556002327E+04  0.12613734026E+04  0.00000000000E+00 0. -1.
         22    1    3    3    0    0  0.14940593432E+02 -0.77118500115E+01  0.15335309391E+03  0.15427204988E+03  0.00000000000E+00 0. -1.
         22    1    3    3    0    0  0.19437719427E+01  0.10695061256E+03  0.10511063531E+03  0.14996818807E+03  0.00000000000E+00 0. -1.
</event>
<event>
 7    1  0.6278987E-006  0.5649653E+02  0.7818608E-02  0.1517696E+00
          2   -1    0    0  502    0  0.00000000000E+00  0.00000000000E+00  0.28103658409E+03  0.28103658409E+03  0.00000000000E+00 0. -1.
          1   -1    0    0  501    0 -0.00000000000E+00 -0.00000000000E+00 -0.87960507938E+03  0.87960507938E+03  0.00000000000E+00 0. -1.
         25    2    1    2    0    0 -0.58768637619E+02  0.54170410916E+02  0.50401928759E+02  0.15669425820E+03  0.12499819976E+03 0.  0.
          2    1    1    2  501    0  0.33845094409E+02 -0.44980260876E+02 -0.82449990321E+03  0.82641926688E+03  0.00000000000E+00 0. -1.
          1    1    1    2  502    0  0.24923543210E+02 -0.91901500405E+01  0.17552947916E+03  0.17752813839E+03  0.00000000000E+00 0. -1.
         22    1    3    3    0    0 -0.18997122557E+02  0.16465649773E+02  0.87154656489E+02  0.90708006458E+02  0.00000000000E+00 0. -1.
         22    1    3    3    0    0 -0.39771515062E+02  0.37704761143E+02 -0.36752727730E+02  0.65986251741E+02  0.00000000000E+00 0. -1.
</event>
<event>
 7    1  0.6278987E-006  0.8291479E+02  0.7818608E-02  0.1342724E+00
          2   -1    0    0  502    0  0.00000000000E+00  0.00000000000E+00  0.18671515743E+04  0.18671515743E+04  0.00000000000E+00 0. -1.
          1   -1    0    0  501    0 -0.00000000000E+00 -0.00000000000E+00 -0.41003214463E+03  0.41003214463E+03  0.00000000000E+00 0. -1.
         25    2    1    2    0    0  0.56996774633E+02  0.93209417117E+02  0.21906829344E+03  0.27487023147E+03  0.12500439673E+03 0.  0.
          2    1    1    2  501    0 -0.77994355563E+02 -0.27991340616E+02 -0.37690392729E+03  0.38590569451E+03  0.00000000000E+00 0. -1.
          1    1    1    2  502    0  0.20997580930E+02 -0.65218076501E+02  0.16149550635E+04  0.16164077929E+04  0.00000000000E+00 0. -1.
         22    1    3    3    0    0  0.53448684486E+02  0.59777802162E+02  0.22664096245E+03  0.24040855510E+03  0.00000000000E+00 0. -1.
         22    1    3    3    0    0  0.35480901473E+01  0.33431614955E+02 -0.75726690157E+01  0.34461676370E+02  0.00000000000E+00 0. -1.
</event>
<event>
 7    1  0.6278987E-006  0.1557651E+03  0.7818608E-02  0.1253508E+00
          2   -1    0    0  502    0  0.00000000000E+00  0.00000000000E+00  0.98667802264E+03  0.98667802264E+03  0.00000000000E+00 0. -1.
          1   -1    0    0  501    0 -0.00000000000E+00 -0.00000000000E+00 -0.10967267424E+04  0.10967267424E+04  0.00000000000E+00 0. -1.
         25    2    1    2    0    0  0.14239927253E+03 -0.11438711553E+02  0.59493367055E+02  0.19892769088E+03  0.12499747412E+03 0.  0.
          2    1    1    2  501    0 -0.36021046779E+00  0.83291157023E+02 -0.10179064488E+04  0.10213085161E+04  0.00000000000E+00 0. -1.
          1    1    1    2  502    0 -0.14203906206E+03 -0.71852445471E+02  0.84836436194E+03  0.86316855809E+03  0.00000000000E+00 0. -1.
         22    1    3    3    0    0  0.64761839281E+02  0.54550893744E+02  0.88307846888E+01  0.85134473590E+02  0.00000000000E+00 0.  1.
         22    1    3    3    0    0  0.77637433248E+02 -0.65989605296E+02  0.50662582367E+02  0.11379321729E+03  0.00000000000E+00 0.  1.
</event>
<event>
 7    1  0.6278987E-006  0.4432031E+02  0.7818608E-02  0.1484118E+00
          2   -1    0    0  502    0  0.00000000000E+00  0.00000000000E+00  0.11756271990E+03  0.11756271990E+03  0.00000000000E+00 0. -1.
          1   -1    0    0  501    0 -0.00000000000E+00 -0.00000000000E+00 -0.19733912526E+04  0.19733912526E+04  0.00000000000E+00 0. -1.
         25    2    1    2    0    0 -0.60280333715E+02  0.18724569234E+02 -0.12562484787E+03  0.18812677348E+03  0.12500300945E+03 0.  0.
          2    1    1    2  501    0  0.40096155069E+02  0.18833527692E+02 -0.18109621702E+04  0.18115039016E+04  0.00000000000E+00 0. -1.
          1    1    1    2  502    0  0.20184178647E+02 -0.37558096926E+02  0.80758485338E+02  0.91323297501E+02  0.00000000000E+00 0. -1.
         22    1    3    3    0    0  0.22233922937E+02  0.25872372143E+01 -0.96632288319E+02  0.99190928373E+02  0.00000000000E+00 0. -1.
         22    1    3    3    0    0 -0.82514256652E+02  0.16137332020E+02 -0.28992559554E+02  0.88935845108E+02  0.00000000000E+00 0. -1.
</event>
