<event>
 7    1  0.2895750E-005  0.2677413E+03  0.7818608E-02  0.1227262E+00
          2   -1    0    0  502    0  0.00000000000E+00  0.00000000000E+00  0.13969312804E+04  0.13969312804E+04  0.00000000000E+00 0. -1.
          1   -1    0    0  501    0 -0.00000000000E+00 -0.00000000000E+00 -0.93123732271E+03  0.93123732271E+03  0.00000000000E+00 0. -1.
         25    2    1    2    0    0 -0.23515119152E+03  0.10791694348E+02 -0.27450443646E+03  0.38260949021E+03  0.12499917129E+03 0.  0.
          2    1    1    2  501    0  0.28840104012E+03  0.23336475892E+02 -0.56714364294E+03  0.63668804197E+03  0.00000000000E+00 0. -1.
          1    1    1    2  502    0 -0.53249848603E+02 -0.34128170240E+02  0.13073420371E+04  0.13088710710E+04  0.00000000000E+00 0. -1.
         22    1    3    3    0    0 -0.18663382645E+03 -0.29057801162E+02 -0.14307463293E+03  0.23695335316E+03  0.00000000000E+00 0.  1.
         22    1    3    3    0    0 -0.48517365068E+02  0.39849495511E+02 -0.13142980353E+03  0.14565613705E+03  0.00000000000E+00 0.  1.
</event>
<event>
 7    1  0.2895750E-005  0.2633324E+03  0.7818608E-02  0.1309663E+00
          2   -1    0    0  502    0  0.00000000000E+00  0.00000000000E+00  0.13626647819E+04  0.13626647819E+04  0.00000000000E+00 0. -1.
          1   -1    0    0  501    0 -0.00000000000E+00 -0.00000000000E+00 -0.12948175853E+04  0.12948175853E+04  0.00000000000E+00 0. -1.
         25    2    1    2    0    0 -0.26120788870E+03  0.36548858915E+02 -0.46934706658E+03  0.55269920424E+03  0.12499744499E+03 0.  0.
          2    1    1    2  501    0  0.59518152438E+01  0.28285951822E+02 -0.77039433470E+03  0.77093641120E+03  0.00000000000E+00 0. -1.
          1    1    1    2  502    0  0.25525607346E+03 -0.64834810738E+02  0.13075885979E+04  0.13338467518E+04  0.00000000000E+00 0. -1.
         22    1    3    3    0    0 -0.70323061149E+02 -0.44941105950E+02 -0.15443088837E+03  0.17553898489E+03  0.00000000000E+00 0. -1.
         22    1    3    3    0    0 -0.19088482755E+03  0.81489964865E+02 -0.31491617821E+03  0.37716021935E+03  0.00000000000E+00 0. -1.
</event>
<event>
 7    1  0.2895750E-005  0.2289125E+03  0.7818608E-02  0.1210458E+00
          2   -1    0    0  502    0  0.00000000000E+00  0.00000000000E+00  0.29921127158E+03  0.29921127158E+03  0.00000000000E+00 0. -1.
          1   -1    0    0  501    0 -0.00000000000E+00 -0.00000000000E+00 -0.11459938036E+04  0.11459938036E+04  0.00000000000E+00 0. -1.
         25    2    1    2    0    0 -0.23301989778E+03 -0.10857298529E+03 -0.81543376207E+03  0.86408508486E+03  0.12499779062E+03 0.  0.
          2    1    1    2  501    0  0.58304980344E+01  0.88085938425E+02 -0.25000727064E+03  0.26513536661E+03  0.00000000000E+00 0. -1.
          1    1    1    2  502    0  0.22718939974E+03  0.20487046860E+02  0.21865850073E+03  0.31598462366E+03  0.00000000000E+00 0. -1.
         22    1    3    3    0    0 -0.75604149764E+01 -0.28797784978E+02 -0.22643721578E+03  0.22838626269E+03  0.00000000000E+00 0. -1.
         22    1    3    3    0    0 -0.22545948280E+03 -0.79775200308E+02 -0.58899654629E+03  0.63569882217E+03  0.00000000000E+00 0. -1.
</event>
<event>
 7    1  0.2895750E-005  0.9329395E+02  0.7818608E-02  0.1320418E+00
          2   -1    0    0  502    0  0.00000000000E+00  0.00000000000E+00  0.26073875945E+03  0.26073875945E+03  0.00000000000E+00 0. -1.
          1   -1    0    0  501    0 -0.00000000000E+00 -0.00000000000E+00 -0.18641861938E+03  0.18641861938E+03  0.00000000000E+00 0. -1.
         25    2    1    2    0    0  0.23000311952E+02 -0.14915413140E+03  0.10621807569E+02  0.19624987129E+03  0.12500087968E+03 0.  0.
          2    1    1    2  501    0  0.86274561630E+01  0.82188296333E+02 -0.63161065549E+02  0.10401283217E+03  0.00000000000E+00 0. -1.
          1    1    1    2  502    0 -0.31627768115E+02  0.66965835064E+02  0.12685939805E+03  0.14689467538E+03  0.00000000000E+00 0. -1.
         22    1    3    3    0    0  0.37129531989E+02 -0.11522902057E+03  0.59663287653E+02  0.13496680044E+03  0.00000000000E+00 0. -1.
         22    1    3    3    0    0 -0.14129220036E+02 -0.33925110830E+02 -0.49041480084E+02  0.61283070848E+02  0.00000000000E+00 0. -1.
</event>
<event>
 7    1  0.2895750E-005  0.2016104E+03  0.7818608E-02  0.1326500E+00
          2   -1    0    0  502    0  0.00000000000E+00  0.00000000000E+00  0.11213831018E+04  0.11213831018E+04  0.00000000000E+00 0. -1.
          1   -1    0    0  501    0 -0.00000000000E+00 -0.00000000000E+00 -0.82285141866E+02  0.82285141866E+02  0.00000000000E+00 0. -1.
         25    2    1    2    0    0 -0.84207208308E+02 -0.19176597759E+03  0.63958644166E+03  0.68451601033E+03  0.12500523173E+03 0.  0.
          2    1    1    2  501    0 -0.19260853916E+02  0.26137342775E+02 -0.31950053170E+02  0.45551587003E+02  0.00000000000E+00 0. -1.
          1    1    1    2  502    0  0.10346806222E+03  0.16562863481E+03  0.43146157148E+03  0.47360064636E+03  0.00000000000E+00 0. -1.
         22    1    3    3    0    0 -0.28230123479E+02  0.84967234458E+01  0.14549387040E+03  0.14845066691E+03  0.00000000000E+00 0. -1.
         22    1    3    3    0    0 -0.55977084829E+02 -0.20026270104E+03  0.49409257125E+03  0.53606534342E+03  0.00000000000E+00 0. -1.
</event>
<event>
 7    1  0.2895750E-005  0.5483620E+03  0.7818608E-02  0.1018701E+00
          2   -1    0    0  502    0  0.00000000000E+00  0.00000000000E+00  0.13680404688E+04  0.13680404688E+04  0.00000000000E+00 0. -1.
          1   -1    0    0  501    0 -0.00000000000E+00 -0.00000000000E+00 -0.11019209370E+04  0.11019209370E+04  0.00000000000E+00 0. -1.
         25    2    1    2    0    0 -0.23044259483E+03  0.51586491902E+03  0.99166712224E+03  0.11481488854E+04  0.12498710982E+03 0.  0.
          2    1    1    2  501    0 -0.31797031788E+03 -0.27887417379E+03 -0.56019736080E+03  0.70192379281E+03  0.00000000000E+00 0. -1.
          1    1    1    2  502    0  0.54841291270E+03 -0.23699074523E+03 -0.16535022959E+03  0.61988872757E+03  0.00000000000E+00 0. -1.
         22    1    3    3    0    0 -0.21048813051E+03  0.34407922329E+03  0.73996714979E+03  0.84276161977E+03  0.00000000000E+00 0.  1.
         22    1    3    3    0    0 -0.19954464317E+02  0.17178569573E+03  0.25169997245E+03  0.30538726568E+03  0.00000000000E+00 0.  1.
</event>
<event>
 7    1  0.2895750E-005  0.2198530E+03  0.7818608E-02  0.1332355E+00
          2   -1    0    0  502    0  0.00000000000E+00  0.00000000000E+00  0.26825670587E+04  0.26825670587E+04  0.00000000000E+00 0. -1.
          1   -1    0    0  501    0 -0.00000000000E+00 -0.00000000000E+00 -0.12316242822E+04  0.12316242822E+04  0.00000000000E+00 0. -1.
         25    2    1    2    0    0  0.17365093877E+03 -0.82893286222E+02  0.11758940641E+04  0.11980714660E+04  0.12498976821E+03 0.  0.
          2    1    1    2  501    0 -0.20123711005E+03  0.89107401706E+02 -0.12104787750E+04  0.12303232779E+04  0.00000000000E+00 0. -1.
          1    1    1    2  502    0  0.27586171280E+02 -0.62141154835E+01  0.14855274873E+04  0.14857965970E+04  0.00000000000E+00 0. -1.
         22    1    3    3    0    0  0.56465260293E+02  0.94514073508E+01  0.61548286305E+03  0.61813979764E+03  0.00000000000E+00 0.  1.
         22    1    3    3    0    0  0.11718567848E+03 -0.92344693573E+02  0.56041120106E+03  0.57993166834E+03  0.00000000000E+00 0.  1.
</event>
<event>
 7    1  0.2895750E-005  0.1977264E+03  0.7818608E-02  0.1340400E+00
          2   -1    0    0  502    0  0.00000000000E+00  0.00000000000E+00  0.34493740256E+04  0.34493740256E+04  0.00000000000E+00 0. -1.
          1   -1    0    0  501    0 -0.00000000000E+00 -0.00000000000E+00 -0.30404898879E+02  0.30404898879E+02  0.00000000000E+00 0. -1.
         25    2    1    2    0    0  0.15542150946E+03  0.73685208571E+02  0.28785353811E+04  0.28863775553E+04  0.12499638439E+03 0.  0.
          2    1    1    2  501    0 -0.18185820705E+03 -0.86350219248E+02  0.37724746937E+03  0.42760311152E+03  0.00000000000E+00 0. -1.
          1    1    1    2  502    0  0.26436697596E+02  0.12665010677E+02  0.16318627625E+03  0.16579825762E+03  0.00000000000E+00 0. -1.
         22    1    3    3    0    0  0.43417758877E+02 -0.25377832045E+02  0.12442849470E+04  0.12453008333E+04  0.00000000000E+00 0.  1.
         22    1    3    3    0    0  0.11200375058E+03  0.99063040616E+02  0.16342504341E+04  0.16410767220E+04  0.00000000000E+00 0.  1.
</event>
<event>
 7    1  0.2895750E-005  0.3657404E+03  0.7818608E-02  0.1134158E+00
          2   -1    0    0  502    0  0.00000000000E+00  0.00000000000E+00  0.40254074094E+03  0.40254074094E+03  0.00000000000E+00 0. -1.
          1   -1    0    0  501    0 -0.00000000000E+00 -0.00000000000E+00 -0.14687100281E+04  0.14687100281E+04  0.00000000000E+00 0. -1.
         25    2    1    2    0    0 -0.27235169772E+03  0.22372818983E+03  0.84224447481E+02  0.38333996351E+03  0.12500407952E+03 0.  0.
          2    1    1    2  501    0  0.35046149725E+03 -0.11745364704E+03 -0.12620753460E+04  0.13150866129E+04  0.00000000000E+00 0. -1.
          1    1    1    2  502    0 -0.78109799532E+02 -0.10627454279E+03  0.11168161143E+03  0.17282419263E+03  0.00000000000E+00 0. -1.
         22    1    3    3    0    0 -0.65411586579E+02  0.25628863252E+01  0.41373740314E+02  0.77440496077E+02  0.00000000000E+00 0.  1.
         22    1    3    3    0    0 -0.20694011114E+03  0.22116530350E+03  0.42850707167E+02  0.30589946743E+03  0.00000000000E+00 0.  1.
</event>
<event>
 7    1  0.2895750E-005  0.3003515E+03  0.7818608E-02  0.1162627E+00
          2   -1    0    0  502    0  0.00000000000E+00  0.00000000000E+00  0.10625214744E+04  0.10625214744E+04  0.00000000000E+00 0. -1.
          1   -1    0    0  501    0 -0.00000000000E+00 -0.00000000000E+00 -0.98386592607E+03  0.98386592607E+03  0.00000000000E+00 0. -1.
         25    2    1    2    0    0  0.37566794076E+03  0.11226615988E+03 -0.14712855215E+03  0.43703729378E+03  0.12499877168E+03 0.  0.
          2    1    1    2  501    0 -0.26128319965E+03 -0.10693841786E+03 -0.65913549913E+03  0.71705253771E+03  0.00000000000E+00 0. -1.
          1    1    1    2  502    0 -0.11438474111E+03 -0.53277420246E+01  0.88491959960E+03  0.89229756897E+03  0.00000000000E+00 0. -1.
         22    1    3    3    0    0  0.87474410798E+02  0.82180666996E+02 -0.61663977390E+02  0.13493658021E+03  0.00000000000E+00 0. -1.
         22    1    3    3    0    0  0.28819352996E+03  0.30085492886E+02 -0.85464574764E+02  0.30210071356E+03  0.00000000000E+00 0. -1.
</event>
<event>
 7    1  0.2895750E-005  0.3146403E+03  0.7818608E-02  0.1293697E+00
          2   -1    0    0  502    0  0.00000000000E+00  0.00000000000E+00  0.95259610974E+03  0.95259610974E+03  0.00000000000E+00 0. -1.
          1   -1    0    0  501    0 -0.00000000000E+00 -0.00000000000E+00 -0.17514271730E+04  0.17514271730E+04  0.00000000000E+00 0. -1.
         25    2    1    2    0    0 -0.21322931412E+03 -0.19609315466E+03 -0.46928118797E+02  0.31897691137E+03  0.12499902378E+03 0.  0.
          2    1    1    2  501    0  0.23555028529E+03  0.21302591962E+03 -0.15521502380E+04  0.15843087895E+04  0.00000000000E+00 0. -1.
          1    1    1    2  502    0 -0.22320971168E+02 -0.16932764964E+02  0.80024729349E+03  0.80073758187E+03  0.00000000000E+00 0. -1.
         22    1    3    3    0    0 -0.33004525789E+02 -0.96212695069E+02  0.17236779411E+02  0.10316631223E+03  0.00000000000E+00 0.  1.
         22    1    3    3    0    0 -0.18022478833E+03 -0.99880459589E+02 -0.64164898208E+02  0.21581059914E+03  0.00000000000E+00 0.  1.
</event>
<event>
 7    1  0.2895750E-005  0.9317167E+03  0.7818608E-02  0.1058507E+00
          2   -1    0    0  502    0  0.00000000000E+00  0.00000000000E+00  0.11400685653E+04  0.11400685653E+04  0.00000000000E+00 0. -1.
          1   -1    0    0  501    0 -0.00000000000E+00 -0.00000000000E+00 -0.17164584713E+04  0.17164584713E+04  0.00000000000E+00 0. -1.
         25    2    1    2    0    0 -0.10982146049E+03  0.84243330483E+03 -0.12936920493E+04  0.15527456605E+04  0.12500136578E+03 0.  0.
          2    1    1    2  501    0 -0.11596045345E+03  0.77092259011E+02  0.62840058956E+02  0.15277079620E+03  0.00000000000E+00 0. -1.
          1    1    1    2  502    0  0.22578191393E+03 -0.91952556384E+03  0.65446208432E+03  0.11510105799E+04  0.00000000000E+00 0. -1.
         22    1    3    3    0    0  0.27688205629E+02  0.11878744950E+03 -0.19378565103E+03  0.22897592327E+03  0.00000000000E+00 0. -1.
         22    1    3    3    0    0 -0.13750966612E+03  0.72364585534E+03 -0.10999063983E+04  0.13237697373E+04  0.00000000000E+00 0. -1.
</event>
<event>
 7    1  0.2895750E-005  0.1340338E+03  0.7818608E-02  0.1281057E+00
          2   -1    0    0  502    0  0.00000000000E+00  0.00000000000E+00  0.18189849286E+04  0.18189849286E+04  0.00000000000E+00 0. -1.
          1   -1    0    0  501    0 -0.00000000000E+00 -0.00000000000E+00 -0.48348572695E+03  0.48348572695E+03  0.00000000000E+00 0. -1.
         25    2    1    2    0    0  0.77961743471E+02  0.18398854825E+03  0.70663492735E+03  0.74490873818E+03  0.12500515325E+03 0.  0.
          2    1    1    2  501    0 -0.26712393462E+02 -0.13051064454E+03 -0.45350241525E+03  0.47266375039E+03  0.00000000000E+00 0. -1.
          1    1    1    2  502    0 -0.51249350009E+02 -0.53477903712E+02  0.10823666895E+04  0.10848981670E+04  0.00000000000E+00 0. -1.
         22    1    3    3    0    0  0.62687010664E+01  0.30595572215E+02  0.33577797396E+03  0.33722727269E+03  0.00000000000E+00 0. -1.
         22    1    3    3    0    0  0.71693042405E+02  0.15339297603E+03  0.37085695339E+03  0.40768146549E+03  0.00000000000E+00 0. -1.
</event>
<event>
 7    1  0.2895750E-005  0.3557483E+02  0.7818608E-02  0.1544057E+00
          2   -1    0    0  502    0  0.00000000000E+00  0.00000000000E+00  0.69880115350E+03  0.69880115350E+03  0.00000000000E+00 0. -1.
          1   -1    0    0  501    0 -0.00000000000E+00 -0.00000000000E+00 -0.14187511041E+03  0.14187511041E+03  0.00000000000E+00 0. -1.
         25    2    1    2    0    0  0.37631736740E+02 -0.16872246370E+02  0.10782132514E+03  0.17015023438E+03  0.12499937518E+03 0.  0.
          2    1    1    2  501    0 -0.66797355060E+01  0.34824468145E+02 -0.10728185705E+03  0.11299008496E+03  0.00000000000E+00 0. -1.
          1    1    1    2  502    0 -0.30952001234E+02 -0.17952221775E+02  0.55638657499E+03  0.55753594456E+03  0.00000000000E+00 0. -1.
         22    1    3    3    0    0  0.18266870540E+02 -0.24501594370E+02 -0.22643270647E+02  0.38035830365E+02  0.00000000000E+00 0. -1.
         22    1    3    3    0    0  0.19364866199E+02  0.76293479996E+01  0.13046459579E+03  0.13211440401E+03  0.00000000000E+00 0. -1.
</event>
<event>
 7    1  0.2895750E-005  0.2144827E+03  0.7818608E-02  0.1264818E+00
          2   -1    0    0  502    0  0.00000000000E+00  0.00000000000E+00  0.17436401337E+03  0.17436401337E+03  0.00000000000E+00 0. -1.
          1   -1    0    0  501    0 -0.00000000000E+00 -0.00000000000E+00 -0.10574321356E+04  0.10574321356E+04  0.00000000000E+00 0. -1.
         25    2    1    2    0    0 -0.12375128657E+03  0.14115174712E+03 -0.35594925979E+03  0.42138262568E+03  0.12500098016E+03 0.  0.
          2    1    1    2  501    0  0.15543353956E+02  0.51837613388E+02 -0.58033151919E+03  0.58284938550E+03  0.00000000000E+00 0. -1.
          1    1    1    2  502    0  0.10820793261E+03 -0.19298936051E+03  0.53212656775E+02  0.22756413775E+03  0.00000000000E+00 0. -1.
         22    1    3    3    0    0 -0.44486121166E+02 -0.60880539580E+01 -0.27061933741E+02  0.52425448355E+02  0.00000000000E+00 0. -1.
         22    1    3    3    0    0 -0.79265165401E+02  0.14723980108E+03 -0.32888732605E+03  0.36895717733E+03  0.00000000000E+00 0. -1.
</event>
<event>
 7    1  0.2895750E-005  0.5582294E+02  0.7818608E-02  0.1468679E+00
          2   -1    0    0  502    0  0.00000000000E+00  0.00000000000E+00  0.16608972086E+04  0.16608972086E+04  0.00000000000E+00 0. -1.
          1   -1    0    0  501    0 -0.00000000000E+00 -0.00000000000E+00 -0.13128738831E+02  0.13128738831E+02  0.00000000000E+00 0. -1.
         25    2    1    2    0    0 -0.37964062058E+01  0.45690026583E+02  0.89736597357E+03  0.90718882909E+03  0.12499555938E+03 0.  0.
          2    1    1    2  501    0  0.41293577412E+02 -0.41128441018E+02  0.10309488899E+03  0.11842830883E+03  0.00000000000E+00 0. -1.
          1    1    1    2  502    0 -0.37497171206E+02 -0.45615855650E+01  0.64730760719E+03  0.64840880950E+03  0.00000000000E+00 0. -1.
         22    1    3    3    0    0  0.52238580359E+02  0.54497291784E+02  0.56433778123E+03  0.56936451892E+03  0.00000000000E+00 0. -1.
         22    1    3    3    0    0 -0.56034986564E+02 -0.88072652003E+01  0.33302819235E+03  0.33782431016E+03  0.00000000000E+00 0. -1.
</event>
<event>
 7    1  0.2895750E-005  0.5651061E+02  0.7818608E-02  0.1523596E+00
          2   -1    0    0  502    0  0.00000000000E+00  0.00000000000E+00  0.18667164559E+04  0.18667164559E+04  0.00000000000E+00 0. -1.
          1   -1    0    0  501    0 -0.00000000000E+00 -0.00000000000E+00 -0.15745573559E+02  0.15745573559E+02  0.00000000000E+00 0. -1.
         25    2    1    2    0    0 -0.52480332301E+02  0.55547063657E+02  0.11531846613E+04  0.11624544473E+04  0.12500326978E+03 0.  0.
          2    1    1    2  501    0  0.46020110618E+02 -0.30847115447E+02  0.59833200355E+02  0.81543896015E+02  0.00000000000E+00 0. -1.
          1    1    1    2  502    0  0.64602216827E+01 -0.24699948210E+02  0.63795302067E+03  0.63846368611E+03  0.00000000000E+00 0. -1.
         22    1    3    3    0    0 -0.58491980258E+02  0.90198255150E+02  0.73886530054E+03  0.74664514284E+03  0.00000000000E+00 0. -1.
         22    1    3    3    0    0  0.60116479576E+01 -0.34651191493E+02  0.41431936079E+03  0.41580930450E+03  0.00000000000E+00 0. -1.
</event>
<event>
 7    1  0.2895750E-005  0.1204163E+03  0.7818608E-02  0.1301764E+00
          2   -1    0    0  502    0  0.00000000000E+00  0.00000000000E+00  0.29339358113E+02  0.29339358113E+02  0.00000000000E+00 0. -1.
          1   -1    0    0  501    0 -0.00000000000E+00 -0.00000000000E+00 -0.13824468376E+04  0.13824468376E+04  0.00000000000E+00 0. -1.
         25    2    1    2    0    0 -0.48100059099E+02 -0.13867823304E+03 -0.47500523887E+03  0.51263967963E+03  0.12499678467E+03 0.  0.
          2    1    1    2  501    0 -0.15777616757E+02  0.11553263260E+03 -0.67456770529E+03  0.68457162620E+03  0.00000000000E+00 0. -1.
          1    1    1    2  502    0  0.63877675856E+02  0.23145600438E+02 -0.20353453533E+03  0.21457488987E+03  0.00000000000E+00 0. -1.
         22    1    3    3    0    0 -0.90245774882E+02 -0.10191917290E+03 -0.31555365215E+03  0.34366542607E+03  0.00000000000E+00 0. -1.
         22    1    3    3    0    0  0.42145715783E+02 -0.36759060137E+02 -0.15945158672E+03  0.16897425357E+03  0.00000000000E+00 0. -1.
</event>
<event>
 7    1  0.2895750E-005  0.1552043E+03  0.7818608E-02  0.1235651E+00
          2   -1    0    0  502    0  0.00000000000E+00  0.00000000000E+00  0.45150999236E+03  0.45150999236E+03  0.00000000000E+00 0. -1.
          1   -1    0    0  501    0 -0.00000000000E+00 -0.00000000000E+00 -0.11170830790E+04  0.11170830790E+04  0.00000000000E+00 0. -1.
         25    2    1    2    0    0 -0.22695970250E+03  0.30620162824E+02 -0.71333139877E+03  0.75954944536E+03  0.12500149818E+03 0.  0.
          2    1    1    2  501    0  0.90953964748E+02  0.41744322273E+02 -0.35973740612E+03  0.37339819698E+03  0.00000000000E+00 0. -1.
          1    1    1    2  502    0  0.13600573775E+03 -0.72364485097E+02  0.40749571826E+03  0.43564542900E+03  0.00000000000E+00 0. -1.
         22    1    3    3    0    0 -0.10615429505E+03  0.75772692625E+02 -0.31773433026E+03  0.34346082736E+03  0.00000000000E+00 0.  1.
         22    1    3    3    0    0 -0.12080540745E+03 -0.45152529801E+02 -0.39559706850E+03  0.41608861799E+03  0.00000000000E+00 0.  1.
</event>
<event>
 7    1  0.2895750E-005  0.2524853E+03  0.7818608E-02  0.1189227E+00
          2   -1    0    0  502    0  0.00000000000E+00  0.00000000000E+00  0.14802616046E+04  0.14802616046E+04  0.00000000000E+00 0. -1.
          1   -1    0    0  501    0 -0.00000000000E+00 -0.00000000000E+00 -0.42791445714E+04  0.42791445714E+04  0.00000000000E+00 0. -1.
         25    2    1    2    0    0  0.47981852291E+02  0.23560660311E+03  0.11662906179E+03  0.29502707854E+03  0.12500363770E+03 0.  0.
          2    1    1    2  501    0  0.97818251073E+02 -0.24328635382E+02 -0.41764047473E+04  0.41776209625E+04  0.00000000000E+00 0. -1.
          1    1    1    2  502    0 -0.14580010336E+03 -0.21127796773E+03  0.12608927188E+04  0.12867581350E+04  0.00000000000E+00 0. -1.
         22    1    3    3    0    0  0.89229327160E+02  0.17089179409E+03  0.97010835856E+02  0.21581700671E+03  0.00000000000E+00 0. -1.
         22    1    3    3    0    0 -0.41247474869E+02  0.64714809026E+02  0.19618225938E+02  0.79210071830E+02  0.00000000000E+00 0. -1.
</event>
<event>
 7    1  0.2895750E-005  0.5028986E+02  0.7818608E-02  0.1470380E+00
          2   -1    0    0  502    0  0.00000000000E+00  0.00000000000E+00  0.41150297526E+02  0.41150297526E+02  0.00000000000E+00 0. -1.
          1   -1    0    0  501    0 -0.00000000000E+00 -0.00000000000E+00 -0.10933814442E+04  0.10933814442E+04  0.00000000000E+00 0. -1.
         25    2    1    2    0    0 -0.19072857085E+02  0.80893390683E+02 -0.69241931233E+03  0.70850327788E+03  0.12499950460E+03 0.  0.
          2    1    1    2  501    0  0.21840834335E+02 -0.39564202323E+02 -0.37806983748E+03  0.38076127713E+03  0.00000000000E+00 0. -1.
          1    1    1    2  502    0 -0.27679772495E+01 -0.41329188360E+02  0.18258003181E+02  0.45267186667E+02  0.00000000000E+00 0. -1.
         22    1    3    3    0    0  0.10675085575E+01  0.38411884460E+02 -0.62572598370E+03  0.62690479271E+03  0.00000000000E+00 0. -1.
         22    1    3    3    0    0 -0.20140365643E+02  0.42481506222E+02 -0.66693328628E+02  0.81598485173E+02  0.00000000000E+00 0. -1.
</event>
<event>
 7    1  0.2895750E-005  0.8737791E+03  0.7818608E-02  0.1042613E+00
          2   -1    0    0  502    0  0.00000000000E+00  0.00000000000E+00  0.12101324361E+04  0.12101324361E+04  0.00000000000E+00 0. -1.
          1   -1    0    0  501    0 -0.00000000000E+00 -0.00000000000E+00 -0.10274893315E+04  0.10274893315E+04  0.00000000000E+00 0. -1.
         25    2    1    2    0    0 -0.28992188042E+03  0.78332246389E+03 -0.36204190271E+03  0.91888868039E+03  0.12503314940E+03 0.  0.
          2    1    1    2  501    0  0.15776748236E+03  0.98946232749E+02 -0.10623278940E+03  0.21439762361E+03  0.00000000000E+00 0. -1.
          1    1    1    2  502    0  0.13215439806E+03 -0.88226869664E+03  0.65091779673E+03  0.11043354636E+04  0.00000000000E+00 0. -1.
         22    1    3    3    0    0 -0.19425060011E+03  0.39796401853E+03 -0.23891661147E+03  0.50317969248E+03  0.00000000000E+00 0.  1.
         22    1    3    3    0    0 -0.95671280312E+02  0.38535844535E+03 -0.12312529124E+03  0.41570898790E+03  0.00000000000E+00 0.  1.
</event>
<event>
 7    1  0.2895750E-005  0.2704187E+03  0.7818608E-02  0.1182043E+00
          2   -1    0    0  502    0  0.00000000000E+00  0.00000000000E+00  0.71928784261E+03  0.71928784261E+03  0.00000000000E+00 0. -1.
          1   -1    0    0  501    0 -0.00000000000E+00 -0.00000000000E+00 -0.29305108355E+03  0.29305108355E+03  0.00000000000E+00 0. -1.
         25    2    1    2    0    0 -0.23628475512E+02  0.27277478582E+03 -0.19034857504E+02  0.30158085368E+03  0.12499718746E+03 0.  0.
          2    1    1    2  501    0  0.12252887304E+03 -0.24802890427E+03  0.24403195549E+02  0.27771780288E+03  0.00000000000E+00 0. -1.
          1    1    1    2  502    0 -0.98900397526E+02 -0.24745881543E+02  0.42086842101E+03  0.43304026960E+03  0.00000000000E+00 0. -1.
         22    1    3    3    0    0 -0.16422597097E+02  0.43248039941E+01  0.24212138183E+02  0.29574199235E+02  0.00000000000E+00 0. -1.
         22    1    3    3    0    0 -0.72058784148E+01  0.26844998182E+03 -0.43246995688E+02  0.27200665444E+03  0.00000000000E+00 0. -1.
</event>
<event>
 7    1  0.2895750E-005  0.1024622E+04  0.7818608E-02  0.1080949E+00
          2   -1    0    0  502    0  0.00000000000E+00  0.00000000000E+00  0.22309112067E+04  0.22309112067E+04  0.00000000000E+00 0. -1.
          1   -1    0    0  501    0 -0.00000000000E+00 -0.00000000000E+00 -0.13723139445E+04  0.13723139445E+04  0.00000000000E+00 0. -1.
         25    2    1    2    0    0  0.44161232115E+03  0.87080630416E+03  0.23862435558E+03  0.10128632454E+04  0.12500123709E+03 0.  0.
          2    1    1    2  501    0  0.87296214780E+02  0.32163552918E+02 -0.81169630242E+03  0.81701041035E+03  0.00000000000E+00 0. -1.
          1    1    1    2  502    0 -0.52890853593E+03 -0.90296985707E+03  0.14316692091E+04  0.17733514954E+04  0.00000000000E+00 0. -1.
         22    1    3    3    0    0  0.19699719768E+03  0.44707821992E+03  0.17746335363E+03  0.51978848823E+03  0.00000000000E+00 0. -1.
         22    1    3    3    0    0  0.24461512347E+03  0.42372808424E+03  0.61161001948E+02  0.49307475717E+03  0.00000000000E+00 0. -1.
</event>
<event>
 7    1  0.2895750E-005  0.1885723E+03  0.7818608E-02  0.1174675E+00
          2   -1    0    0  502    0  0.00000000000E+00  0.00000000000E+00  0.10701273311E+04  0.10701273311E+04  0.00000000000E+00 0. -1.
          1   -1    0    0  501    0 -0.00000000000E+00 -0.00000000000E+00 -0.95103313027E+03  0.95103313027E+03  0.00000000000E+00 0. -1.
         25    2    1    2    0    0  0.20347210333E+03 -0.19486677512E+03 -0.45592855298E+02  0.31157447471E+03  0.12500395177E+03 0.  0.
          2    1    1    2  501    0 -0.15818063357E+03  0.14654483354E+02 -0.75488956951E+03  0.77142344330E+03  0.00000000000E+00 0. -1.
          1    1    1    2  502    0 -0.45291469760E+02  0.18021229176E+03  0.91957662562E+03  0.93816254334E+03  0.00000000000E+00 0. -1.
         22    1    3    3    0    0  0.10656992589E+03 -0.84082850021E+02  0.39738676769E+02  0.14144340636E+03  0.00000000000E+00 0.  1.
         22    1    3    3    0    0  0.96902177447E+02 -0.11078392510E+03 -0.85331532067E+02  0.17013106835E+03  0.00000000000E+00 0.  1.
</event>
<event>
 7    1  0.2895750E-005  0.1767822E+03  0.7818608E-02  0.1234361E+00
          2   -1    0    0  502    0  0.00000000000E+00  0.00000000000E+00  0.15561246023E+04  0.15561246023E+04  0.00000000000E+00 0. -1.
          1   -1    0    0  501    0 -0.00000000000E+00 -0.00000000000E+00 -0.15123610882E+03  0.15123610882E+03  0.00000000000E+00 0. -1.
         25    2    1    2    0    0 -0.18092453436E+03 -0.64735003469E+01  0.59003521228E+03  0.62971600859E+03  0.12500042561E+03 0.  0.
          2    1    1    2  501    0  0.15336436716E+03  0.91129520462E+02 -0.67553383754E+02  0.19075816699E+03  0.00000000000E+00 0. -1.
          1    1    1    2  502    0  0.27560167200E+02 -0.84656020115E+02  0.88240666501E+03  0.88688653559E+03  0.00000000000E+00 0. -1.
         22    1    3    3    0    0 -0.12430986408E+03 -0.61926306218E+02  0.33483895876E+03  0.36249819036E+03  0.00000000000E+00 0.  1.
         22    1    3    3    0    0 -0.56614670284E+02  0.55452805871E+02  0.25519625352E+03  0.26721781823E+03  0.00000000000E+00 0.  1.
</event>
<event>
 7    1  0.2895750E-005  0.7805770E+03  0.7818608E-02  0.1086568E+00
          2   -1    0    0  502    0  0.00000000000E+00  0.00000000000E+00  0.14475368296E+04  0.14475368296E+04  0.00000000000E+00 0. -1.
          1   -1    0    0  501    0 -0.00000000000E+00 -0.00000000000E+00 -0.27972850032E+04  0.27972850032E+04  0.00000000000E+00 0. -1.
         25    2    1    2    0    0 -0.65180186087E+03 -0.26387634192E+03 -0.48135921226E+03  0.86128322256E+03  0.12500283429E+03 0.  0.
          2    1    1    2  501    0  0.74030963475E+03  0.33457543477E+03 -0.20455336935E+04  0.22009559669E+04  0.00000000000E+00 0. -1.
          1    1    1    2  502    0 -0.88507773881E+02 -0.70699092849E+02  0.11771447322E+04  0.11825826433E+04  0.00000000000E+00 0. -1.
         22    1    3    3    0    0 -0.54313647040E+03 -0.16628610267E+03 -0.37601684680E+03  0.68120258551E+03  0.00000000000E+00 0.  1.
         22    1    3    3    0    0 -0.10866539046E+03 -0.97590239243E+02 -0.10534236546E+03  0.18008063705E+03  0.00000000000E+00 0.  1.
</event>
<event>
 7    1  0.2895750E-005  0.1305782E+03  0.7818608E-02  0.1247450E+00
          2   -1    0    0  502    0  0.00000000000E+00  0.00000000000E+00  0.61712894281E+02  0.61712894281E+02  0.00000000000E+00 0. -1.
          1   -1    0    0  501    0 -0.00000000000E+00 -0.00000000000E+00 -0.85959553296E+03  0.85959553296E+03  0.00000000000E+00 0. -1.
         25    2    1    2    0    0 -0.14765928704E+03 -0.10125478423E+02 -0.34977952464E+03  0.39984566910E+03  0.12500021149E+03 0.  0.
          2    1    1    2  501    0  0.91709517765E+02  0.99626715928E+02 -0.35775872515E+03  0.38252767690E+03  0.00000000000E+00 0. -1.
          1    1    1    2  502    0  0.55949769274E+02 -0.89501237504E+02 -0.90344388885E+02  0.13893508124E+03  0.00000000000E+00 0. -1.
         22    1    3    3    0    0 -0.89263494780E+02  0.41309257264E+02 -0.10906815031E+03  0.14686826631E+03  0.00000000000E+00 0.  1.
         22    1    3    3    0    0 -0.58395792259E+02 -0.51434735687E+02 -0.24071137433E+03  0.25297740279E+03  0.00000000000E+00 0.  1.
</event>
<event>
 7    1  0.2895750E-005  0.2111056E+03  0.7818608E-02  0.1159153E+00
          2   -1    0    0  502    0  0.00000000000E+00  0.00000000000E+00  0.42919481363E+03  0.42919481363E+03  0.00000000000E+00 0. -1.
          1   -1    0    0  501    0 -0.00000000000E+00 -0.00000000000E+00 -0.37241391938E+03  0.37241391938E+03  0.00000000000E+00 0. -1.
         25    2    1    2    0    0  0.17620893820E+03  0.18046144966E+03  0.19397644226E+03  0.34185389962E+03  0.12498521441E+03 0.  0.
          2    1    1    2  501    0 -0.21285514301E+03 -0.14837179079E+02 -0.18619557581E+03  0.28318941760E+03  0.00000000000E+00 0. -1.
          1    1    1    2  502    0  0.36646204808E+02 -0.16562427058E+03  0.49000027806E+02  0.17656541580E+03  0.00000000000E+00 0. -1.
         22    1    3    3    0    0  0.77264723010E+02  0.18463003079E+02  0.10644373306E+03  0.13281938191E+03  0.00000000000E+00 0. -1.
         22    1    3    3    0    0  0.98944215190E+02  0.16199844658E+03  0.87532709202E+02  0.20903451771E+03  0.00000000000E+00 0. -1.
</event>
<event>
 7    1  0.2895750E-005  0.1483067E+03  0.7818608E-02  0.1411421E+00
          2   -1    0    0  502    0  0.00000000000E+00  0.00000000000E+00  0.37914082265E+02  0.37914082265E+02  0.00000000000E+00 0. -1.
          1   -1    0    0  501    0 -0.00000000000E+00 -0.00000000000E+00 -0.19096169722E+04  0.19096169722E+04  0.00000000000E+00 0. -1.
         25    2    1    2    0    0  0.84282536823E+02 -0.12172983369E+03 -0.37143740133E+03  0.41894234555E+03  0.12500098947E+03 0.  0.
          2    1    1    2  501    0 -0.18107166273E+02 -0.12163908449E+02 -0.11175501995E+04  0.11177630690E+04  0.00000000000E+00 0. -1.
          1    1    1    2  502    0 -0.66175370550E+02  0.13389374213E+03 -0.38271528912E+03  0.41082563987E+03  0.00000000000E+00 0. -1.
         22    1    3    3    0    0  0.13379675870E+02  0.24460218464E+02 -0.87145183525E+02  0.91496453621E+02  0.00000000000E+00 0. -1.
         22    1    3    3    0    0  0.70902860953E+02 -0.14619005215E+03 -0.28429221780E+03  0.32744589193E+03  0.00000000000E+00 0. -1.
</event>
<event>
 7    1  0.2895750E-005  0.3660979E+03  0.7818608E-02  0.1137042E+00
          2   -1    0    0  502    0  0.00000000000E+00  0.00000000000E+00  0.81331710364E+03  0.81331710364E+03  0.00000000000E+00 0. -1.
          1   -1    0    0  501    0 -0.00000000000E+00 -0.00000000000E+00 -0.47894634836E+03  0.47894634836E+03  0.00000000000E+00 0. -1.
         25    2    1    2    0    0  0.16807075960E+03  0.36736014969E+03  0.37470624369E+03  0.56500577922E+03  0.12500200671E+03 0.  0.
          2    1    1    2  501    0  0.57075415921E+02 -0.11370221846E+03 -0.28295959990E+03  0.31024495606E+03  0.00000000000E+00 0. -1.
          1    1    1    2  502    0 -0.22514617552E+03 -0.25365793123E+03  0.24262411149E+03  0.41701271672E+03  0.00000000000E+00 0. -1.
         22    1    3    3    0    0  0.17350941715E+02 -0.95753798900E+00 -0.14058911130E+01  0.17434121349E+02  0.00000000000E+00 0.  1.
         22    1    3    3    0    0  0.15071981788E+03  0.36831768768E+03  0.37611213480E+03  0.54757165787E+03  0.00000000000E+00 0.  1.
</event>
<event>
 7    1  0.2895750E-005  0.2340154E+03  0.7818608E-02  0.1147104E+00
          2   -1    0    0  502    0  0.00000000000E+00  0.00000000000E+00  0.86075455761E+03  0.86075455761E+03  0.00000000000E+00 0. -1.
          1   -1    0    0  501    0 -0.00000000000E+00 -0.00000000000E+00 -0.63645008560E+03  0.63645008560E+03  0.00000000000E+00 0. -1.
         25    2    1    2    0    0 -0.55056652965E+02  0.21733868323E+03  0.36421465053E+03  0.44558354288E+03  0.12500017504E+03 0.  0.
          2    1    1    2  501    0 -0.16720607346E+03 -0.56094847664E+02 -0.53903954738E+03  0.56715794677E+03  0.00000000000E+00 0. -1.
          1    1    1    2  502    0  0.22226272643E+03 -0.16124383557E+03  0.39912936887E+03  0.48446315357E+03  0.00000000000E+00 0. -1.
         22    1    3    3    0    0  0.20131099259E+02  0.13317055882E+03  0.13829351417E+03  0.19304081164E+03  0.00000000000E+00 0. -1.
         22    1    3    3    0    0 -0.75187752224E+02  0.84168124407E+02  0.22592113636E+03  0.25254273124E+03  0.00000000000E+00 0. -1.
</event>
<event>
 7    1  0.2895750E-005  0.6102758E+03  0.7818608E-02  0.1166903E+00
          2   -1    0    0  502    0  0.00000000000E+00  0.00000000000E+00  0.11313234430E+04  0.11313234430E+04  0.00000000000E+00 0. -1.
          1   -1    0    0  501    0 -0.00000000000E+00 -0.00000000000E+00 -0.19687697768E+04  0.19687697768E+04  0.00000000000E+00 0. -1.
         25    2    1    2    0    0  0.64694148726E+03  0.57640247217E-01  0.14693085131E+03  0.67509052081E+03  0.12500097987E+03 0.  0.
          2    1    1    2  501    0 -0.53639388761E+02  0.56195275133E+00 -0.15819863425E+04  0.15828955391E+04  0.00000000000E+00 0. -1.
          1    1    1    2  502    0 -0.59330209849E+03 -0.61959299855E+00  0.59760915734E+03  0.84210715999E+03  0.00000000000E+00 0. -1.
         22    1    3    3    0    0  0.12407499245E+03  0.34114945431E+02  0.66926427545E+02  0.14504337268E+03  0.00000000000E+00 0.  1.
         22    1    3    3    0    0  0.52286649480E+03 -0.34057305184E+02  0.80004423768E+02  0.53004714814E+03  0.00000000000E+00 0.  1.
</event>
<event>
 7    1  0.2895750E-005  0.1240397E+03  0.7818608E-02  0.1288070E+00
          2   -1    0    0  502    0  0.00000000000E+00  0.00000000000E+00  0.15757165864E+04  0.15757165864E+04  0.00000000000E+00 0. -1.
          1   -1    0    0  501    0 -0.00000000000E+00 -0.00000000000E+00 -0.41781922292E+03  0.41781922292E+03  0.00000000000E+00 0. -1.
         25    2    1    2    0    0 -0.64854791526E+02 -0.31972922183E+02 -0.41738072634E+02  0.15031786393E+03  0.12499992709E+03 0.  0.
          2    1    1    2  501    0 -0.60255850881E+02  0.44501662642E+02 -0.31479099284E+03  0.32358080091E+03  0.00000000000E+00 0. -1.
          1    1    1    2  502    0  0.12511064241E+03 -0.12528740459E+02  0.15144264289E+04  0.15196371445E+04  0.00000000000E+00 0. -1.
         22    1    3    3    0    0 -0.88114709722E+02  0.70319749842E+00 -0.59631440460E+02  0.10639833292E+03  0.00000000000E+00 0. -1.
         22    1    3    3    0    0  0.23259918196E+02 -0.32676119681E+02  0.17893367826E+02  0.43919531009E+02  0.00000000000E+00 0. -1.
</event>
<event>
 7    1  0.2895750E-005  0.3015669E+03  0.7818608E-02  0.1236871E+00
          2   -1    0    0  502    0  0.00000000000E+00  0.00000000000E+00  0.21282890990E+04  0.21282890990E+04  0.00000000000E+00 0. -1.
          1   -1    0    0  501    0 -0.00000000000E+00 -0.00000000000E+00 -0.35175069923E+03  0.35175069923E+03  0.00000000000E+00 0. -1.
         25    2    1    2    0    0 -0.26044785644E+03 -0.12574241294E+03  0.20850711451E+03  0.37781693142E+03  0.12500470602E+03 0.  0.
          2    1    1    2  501    0  0.25072976979E+03  0.17567237531E+03 -0.17887667514E+03  0.35457448557E+03  0.00000000000E+00 0. -1.
          1    1    1    2  502    0  0.97180866434E+01 -0.49929962364E+02  0.17469079604E+04  0.17476483812E+04  0.00000000000E+00 0. -1.
         22    1    3    3    0    0 -0.43331807011E+02 -0.81526523316E+02  0.76497741507E+02  0.11990047522E+03  0.00000000000E+00 0.  1.
         22    1    3    3    0    0 -0.21711604943E+03 -0.44215889628E+02  0.13200937300E+03  0.25791645619E+03  0.00000000000E+00 0.  1.
</event>
<event>
 7    1  0.3579758E-005  0.1243954E+03  0.7818608E-02  0.1310263E+00
          2   -1    0    0  502    0  0.00000000000E+00  0.00000000000E+00  0.17911785815E+04  0.17911785815E+04  0.00000000000E+00 0. -1.
          1   -1    0    0  501    0 -0.00000000000E+00 -0.00000000000E+00 -0.11369584778E+04  0.11369584778E+04  0.00000000000E+00 0. -1.
         25    2    1    2    0    0  0.64779351495E+02 -0.31340229678E+02 -0.94234368367E+03  0.95331765707E+03  0.12499745097E+03 0.  0.
          2    1    1    2  501    0  0.58771393341E+02  0.15798116223E+02 -0.18199813890E+03  0.19190356879E+03  0.00000000000E+00 0. -1.
          1    1    1    2  502    0 -0.12355074484E+03  0.15542113455E+02  0.17785619262E+04  0.17829158335E+04  0.00000000000E+00 0. -1.
         22    1    3    3    0    0  0.45078644408E+01  0.38418472120E+02 -0.12650705611E+03  0.13228883206E+03  0.00000000000E+00 0. -1.
         22    1    3    3    0    0  0.60271487055E+02 -0.69758701798E+02 -0.81583662756E+03  0.82102882501E+03  0.00000000000E+00 0. -1.
</event>
<event>
 7    1  0.3518584E-005  0.1657165E+03  0.7818608E-02  0.1268733E+00
          2   -1    0    0  502    0  0.00000000000E+00  0.00000000000E+00  0.12911085259E+04  0.12911085259E+04  0.00000000000E+00 0. -1.
          1   -1    0    0  501    0 -0.00000000000E+00 -0.00000000000E+00 -0.72578955149E+03  0.72578955149E+03  0.00000000000E+00 0. -1.
         25    2    1    2    0    0  0.20314539960E+03 -0.76427378778E+01 -0.23711666938E+03  0.33641651115E+03  0.12500115699E+03 0.  0.
          2    1    1    2  501    0 -0.47557779587E+02 -0.47800162133E+02 -0.43089558653E+03  0.43613943228E+03  0.00000000000E+00 0. -1.
          1    1    1    2  502    0 -0.15558762002E+03  0.55442900011E+02  0.12333312303E+04  0.12443421340E+04  0.00000000000E+00 0. -1.
         22    1    3    3    0    0  0.18398704547E+03  0.30443092826E+02 -0.14963586998E+03  0.23910020574E+03  0.00000000000E+00 0. -1.
         22    1    3    3    0    0  0.19158354135E+02 -0.38085830704E+02 -0.87480799399E+02  0.97316305402E+02  0.00000000000E+00 0. -1.
</event>
<event>
 7    1  0.2895750E-005  0.4665796E+03  0.7818608E-02  0.1206104E+00
          2   -1    0    0  502    0  0.00000000000E+00  0.00000000000E+00  0.32855421701E+03  0.32855421701E+03  0.00000000000E+00 0. -1.
          1   -1    0    0  501    0 -0.00000000000E+00 -0.00000000000E+00 -0.37076601666E+04  0.37076601666E+04  0.00000000000E+00 0. -1.
         25    2    1    2    0    0 -0.14441942896E+02 -0.11825514925E+02  0.11848539610E+03  0.17324056742E+03  0.12500037037E+03 0.  0.
          2    1    1    2  501    0  0.14122267733E+03 -0.44469388723E+03 -0.33267612786E+04  0.33593209288E+04  0.00000000000E+00 0. -1.
          1    1    1    2  502    0 -0.12678073444E+03  0.45651940215E+03 -0.17083006713E+03  0.50365288742E+03  0.00000000000E+00 0. -1.
         22    1    3    3    0    0 -0.65225846834E+02  0.13002378490E+02  0.44050872766E+02  0.79774383940E+02  0.00000000000E+00 0.  1.
         22    1    3    3    0    0  0.50783903938E+02 -0.24827893415E+02  0.74434523333E+02  0.93466183481E+02  0.00000000000E+00 0.  1.
</event>
<event>
 7    1  0.2895750E-005  0.1994021E+03  0.7818608E-02  0.1310579E+00
          2   -1    0    0  502    0  0.00000000000E+00  0.00000000000E+00  0.97431116375E+03  0.97431116375E+03  0.00000000000E+00 0. -1.
          1   -1    0    0  501    0 -0.00000000000E+00 -0.00000000000E+00 -0.94870849455E+03  0.94870849455E+03  0.00000000000E+00 0. -1.
         25    2    1    2    0    0 -0.20386091045E+03  0.41755290490E+02  0.66278562435E+03  0.70584155774E+03  0.12499898277E+03 0.  0.
          2    1    1    2  501    0  0.19927452232E+03 -0.41770169048E+01 -0.91517074811E+03  0.93662440760E+03  0.00000000000E+00 0. -1.
          1    1    1    2  502    0  0.45863881347E+01 -0.37578273585E+02  0.27798779296E+03  0.28055369297E+03  0.00000000000E+00 0. -1.
         22    1    3    3    0    0 -0.97147533738E+02 -0.34975427275E+01  0.47743768049E+03  0.48723363479E+03  0.00000000000E+00 0.  1.
         22    1    3    3    0    0 -0.10671337671E+03  0.45252833217E+02  0.18534794385E+03  0.21860792295E+03  0.00000000000E+00 0.  1.
</event>
<event>
 7    1  0.2895750E-005  0.9108925E+02  0.7818608E-02  0.1469624E+00
          2   -1    0    0  502    0  0.00000000000E+00  0.00000000000E+00  0.34880092124E+03  0.34880092124E+03  0.00000000000E+00 0. -1.
          1   -1    0    0  501    0 -0.00000000000E+00 -0.00000000000E+00 -0.27581114280E+03  0.27581114280E+03  0.00000000000E+00 0. -1.
         25    2    1    2    0    0 -0.50157170938E+02  0.81962734607E+02 -0.34711800022E+02  0.16144202811E+03  0.12499995088E+03 0.  0.
          2    1    1    2  501    0  0.22519198388E+02  0.46428399212E+01 -0.16970083951E+03  0.17125140931E+03  0.00000000000E+00 0. -1.
          1    1    1    2  502    0  0.27637972551E+02 -0.86605574529E+02  0.27740241797E+03  0.29191862661E+03  0.00000000000E+00 0. -1.
         22    1    3    3    0    0 -0.20373016858E+02  0.11286682933E+03 -0.27151541692E+02  0.11786088069E+03  0.00000000000E+00 0.  1.
         22    1    3    3    0    0 -0.29784154080E+02 -0.30904094727E+02 -0.75602583298E+01  0.43581147428E+02  0.00000000000E+00 0.  1.
</event>
<event>
 7    1  0.2895750E-005  0.3838153E+03  0.7818608E-02  0.1223691E+00
          2   -1    0    0  502    0  0.00000000000E+00  0.00000000000E+00  0.21909098653E+04  0.21909098653E+04  0.00000000000E+00 0. -1.
          1   -1    0    0  501    0 -0.00000000000E+00 -0.00000000000E+00 -0.32248002823E+03  0.32248002823E+03  0.00000000000E+00 0. -1.
         25    2    1    2    0    0  0.36815887647E+03 -0.20057976837E+03  0.73998760621E+03  0.85963949945E+03  0.12500083944E+03 0.  0.
          2    1    1    2  501    0 -0.34029303672E+03  0.16424527833E+03 -0.12612271404E+03  0.39835009889E+03  0.00000000000E+00 0. -1.
          1    1    1    2  502    0 -0.27865839752E+02  0.36334490036E+02  0.12545649449E+04  0.12554002952E+04  0.00000000000E+00 0. -1.
         22    1    3    3    0    0  0.14957275870E+03 -0.11011329221E+03  0.21697767835E+03  0.28561558110E+03  0.00000000000E+00 0.  1.
         22    1    3    3    0    0  0.21858611777E+03 -0.90466476163E+02  0.52300992786E+03  0.57402391835E+03  0.00000000000E+00 0.  1.
</event>
<event>
 7    1  0.2895750E-005  0.3091364E+03  0.7818608E-02  0.1117621E+00
          2   -1    0    0  502    0  0.00000000000E+00  0.00000000000E+00  0.44290829821E+03  0.44290829821E+03  0.00000000000E+00 0. -1.
          1   -1    0    0  501    0 -0.00000000000E+00 -0.00000000000E+00 -0.78064486465E+03  0.78064486465E+03  0.00000000000E+00 0. -1.
         25    2    1    2    0    0 -0.11179896384E+03 -0.32383909303E+03  0.23267770557E+03  0.43259235410E+03  0.12500585451E+03 0.  0.
          2    1    1    2  501    0 -0.78348703330E+02  0.30140059275E+03 -0.49575654899E+03  0.58545315141E+03  0.00000000000E+00 0. -1.
          1    1    1    2  502    0  0.19014766717E+03  0.22438500282E+02 -0.74657723012E+02  0.20550765735E+03  0.00000000000E+00 0. -1.
         22    1    3    3    0    0 -0.74089540132E+02 -0.27218108549E+03  0.12764886747E+03  0.30962240975E+03  0.00000000000E+00 0.  1.
         22    1    3    3    0    0 -0.37709423708E+02 -0.51658007544E+02  0.10502883810E+03  0.12296994434E+03  0.00000000000E+00 0.  1.
</event>
<event>
 7    1  0.2895750E-005  0.5282370E+02  0.7818608E-02  0.1556809E+00
          2   -1    0    0  502    0  0.00000000000E+00  0.00000000000E+00  0.11192355120E+04  0.11192355120E+04  0.00000000000E+00 0. -1.
          1   -1    0    0  501    0 -0.00000000000E+00 -0.00000000000E+00 -0.71200882746E+03  0.71200882746E+03  0.00000000000E+00 0. -1.
         25    2    1    2    0    0 -0.50175019126E+02  0.60217536616E+01  0.12531829270E+03  0.18407740814E+03  0.12500409449E+03 0.  0.
          2    1    1    2  501    0  0.50395526727E+02  0.15980708106E+02 -0.68147980921E+03  0.68352748482E+03  0.00000000000E+00 0. -1.
          1    1    1    2  502    0 -0.22050760085E+00 -0.22002461767E+02  0.96338820106E+03  0.96363944652E+03  0.00000000000E+00 0. -1.
         22    1    3    3    0    0  0.20008072695E+02 -0.44163054525E+02  0.42280067880E+02  0.64329639342E+02  0.00000000000E+00 0. -1.
         22    1    3    3    0    0 -0.70183091821E+02  0.50184808186E+02  0.83038224825E+02  0.11974776880E+03  0.00000000000E+00 0. -1.
</event>
<event>
 7    1  0.2895750E-005  0.2111993E+03  0.7818608E-02  0.1174478E+00
          2   -1    0    0  502    0  0.00000000000E+00  0.00000000000E+00  0.16122425865E+04  0.16122425865E+04  0.00000000000E+00 0. -1.
          1   -1    0    0  501    0 -0.00000000000E+00 -0.00000000000E+00 -0.14267846451E+04  0.14267846451E+04  0.00000000000E+00 0. -1.
         25    2    1    2    0    0  0.12593845318E+03  0.29147728299E+03 -0.98796331800E+03  0.10452349329E+04  0.12500018693E+03 0.  0.
          2    1    1    2  501    0  0.20994753860E+02 -0.14059711912E+03 -0.39059536386E+03  0.41565979823E+03  0.00000000000E+00 0. -1.
          1    1    1    2  502    0 -0.14693320704E+03 -0.15088016388E+03  0.15640166233E+04  0.15781325005E+04  0.00000000000E+00 0. -1.
         22    1    3    3    0    0  0.84229609566E+02  0.15021688783E+03 -0.34474669146E+03  0.38536998039E+03  0.00000000000E+00 0.  1.
         22    1    3    3    0    0  0.41708843616E+02  0.14126039517E+03 -0.64321662654E+03  0.65986495250E+03  0.00000000000E+00 0.  1.
</event>
<event>
 7    1  0.2895750E-005  0.8607078E+03  0.7818608E-02  0.1099734E+00
          2   -1    0    0  502    0  0.00000000000E+00  0.00000000000E+00  0.18617551326E+04  0.18617551326E+04  0.00000000000E+00 0. -1.
          1   -1    0    0  501    0 -0.00000000000E+00 -0.00000000000E+00 -0.93332969858E+03  0.93332969858E+03  0.00000000000E+00 0. -1.
         25    2    1    2    0    0  0.23692552367E+02  0.88877765243E+03 -0.11539022293E+03  0.90522170953E+03  0.12499754937E+03 0.  0.
          2    1    1    2  501    0  0.40923495640E+02 -0.83140415105E+03 -0.10039462751E+02  0.83247125217E+03  0.00000000000E+00 0. -1.
          1    1    1    2  502    0 -0.64616048007E+02 -0.57373501386E+02  0.10538551197E+04  0.10573918694E+04  0.00000000000E+00 0. -1.
         22    1    3    3    0    0  0.25589704059E+01  0.74333212751E+03 -0.51975131647E+02  0.74515140369E+03  0.00000000000E+00 0. -1.
         22    1    3    3    0    0  0.21133581961E+02  0.14544552492E+03 -0.63415091285E+02  0.16007030583E+03  0.00000000000E+00 0. -1.
</event>
<event>
 7    1  0.2895750E-005  0.8220916E+02  0.7818608E-02  0.1404156E+00
          2   -1    0    0  502    0  0.00000000000E+00  0.00000000000E+00  0.28222523485E+03  0.28222523485E+03  0.00000000000E+00 0. -1.
          1   -1    0    0  501    0 -0.00000000000E+00 -0.00000000000E+00 -0.36281765431E+03  0.36281765431E+03  0.00000000000E+00 0. -1.
         25    2    1    2    0    0  0.88444373646E+02  0.83717856260E+02 -0.12198114043E+03  0.21292127517E+03  0.12499993644E+03 0.  0.
          2    1    1    2  501    0 -0.26606568453E+02 -0.32050392951E+02 -0.18614047429E+03  0.19074436648E+03  0.00000000000E+00 0. -1.
          1    1    1    2  502    0 -0.61837805192E+02 -0.51667463309E+02  0.22752919527E+03  0.24137724751E+03  0.00000000000E+00 0. -1.
         22    1    3    3    0    0  0.71323459095E+02  0.63342921553E+02 -0.78328197882E+01  0.95711622042E+02  0.00000000000E+00 0.  1.
         22    1    3    3    0    0  0.17120914551E+02  0.20374934707E+02 -0.11414832064E+03  0.11720965312E+03  0.00000000000E+00 0.  1.
</event>
<event>
 7    1  0.2895750E-005  0.2220083E+03  0.7818608E-02  0.1217058E+00
          2   -1    0    0  502    0  0.00000000000E+00  0.00000000000E+00  0.10730221648E+04  0.10730221648E+04  0.00000000000E+00 0. -1.
          1   -1    0    0  501    0 -0.00000000000E+00 -0.00000000000E+00 -0.19493469943E+03  0.19493469943E+03  0.00000000000E+00 0. -1.
         25    2    1    2    0    0  0.11478268236E+03 -0.12279184630E+03  0.14737025591E+03  0.25611652519E+03  0.12499912184E+03 0.  0.
          2    1    1    2  501    0 -0.17197567976E+03  0.18549436804E+03 -0.22415032794E+02  0.25394138831E+03  0.00000000000E+00 0. -1.
          1    1    1    2  502    0  0.57192997397E+02 -0.62702521738E+02  0.75313224227E+03  0.75789895074E+03  0.00000000000E+00 0. -1.
         22    1    3    3    0    0 -0.78931381975E+01  0.84034669438E+01  0.50988885392E+02  0.52276058773E+02  0.00000000000E+00 0. -1.
         22    1    3    3    0    0  0.12267582056E+03 -0.13119531324E+03  0.96381370521E+02  0.20384046642E+03  0.00000000000E+00 0. -1.
</event>
<event>
 7    1  0.2895750E-005  0.3706951E+03  0.7818608E-02  0.1124053E+00
          2   -1    0    0  502    0  0.00000000000E+00  0.00000000000E+00  0.99674008478E+03  0.99674008478E+03  0.00000000000E+00 0. -1.
          1   -1    0    0  501    0 -0.00000000000E+00 -0.00000000000E+00 -0.15038570573E+04  0.15038570573E+04  0.00000000000E+00 0. -1.
         25    2    1    2    0    0 -0.34514618288E+03  0.12697974630E+03  0.75674982560E+02  0.39572969272E+03  0.12500217275E+03 0.  0.
          2    1    1    2  501    0  0.68264542459E+02  0.13058326475E+03 -0.12924074676E+04  0.13007801886E+04  0.00000000000E+00 0. -1.
          1    1    1    2  502    0  0.27688164042E+03 -0.25756301105E+03  0.70961551245E+03  0.80408726080E+03  0.00000000000E+00 0. -1.
         22    1    3    3    0    0 -0.34947015420E+03  0.10588091136E+03  0.62459456019E+02  0.37046098271E+03  0.00000000000E+00 0.  1.
         22    1    3    3    0    0  0.43239713205E+01  0.21098834941E+02  0.13215526542E+02  0.25268710011E+02  0.00000000000E+00 0.  1.
</event>
<event>
 7    1  0.2895750E-005  0.8950554E+02  0.7818608E-02  0.1409768E+00
          2   -1    0    0  502    0  0.00000000000E+00  0.00000000000E+00  0.30868030702E+02  0.30868030702E+02  0.00000000000E+00 0. -1.
          1   -1    0    0  501    0 -0.00000000000E+00 -0.00000000000E+00 -0.76429209515E+03  0.76429209515E+03  0.00000000000E+00 0. -1.
         25    2    1    2    0    0  0.43656529986E+02  0.70312652041E+02 -0.45761292450E+03  0.48154380151E+03  0.12500032981E+03 0.  0.
          2    1    1    2  501    0  0.32374782017E+02 -0.17098921971E+02 -0.16530392011E+03  0.16931002819E+03  0.00000000000E+00 0. -1.
          1    1    1    2  502    0 -0.76031312003E+02 -0.53213730070E+02 -0.11050721984E+03  0.14430629615E+03  0.00000000000E+00 0. -1.
         22    1    3    3    0    0  0.45207907040E+02  0.35544291956E+02 -0.62618073688E+02  0.85018672666E+02  0.00000000000E+00 0.  1.
         22    1    3    3    0    0 -0.15513770534E+01  0.34768360086E+02 -0.39499485081E+03  0.39652512884E+03  0.00000000000E+00 0.  1.
</event>
<event>
 7    1  0.2895750E-005  0.4202830E+03  0.7818608E-02  0.1213994E+00
          2   -1    0    0  502    0  0.00000000000E+00  0.00000000000E+00  0.13369372950E+04  0.13369372950E+04  0.00000000000E+00 0. -1.
          1   -1    0    0  501    0 -0.00000000000E+00 -0.00000000000E+00 -0.11276215208E+04  0.11276215208E+04  0.00000000000E+00 0. -1.
         25    2    1    2    0    0  0.37719165095E+03  0.10102847059E+03 -0.23535604368E+03  0.47275592655E+03  0.12500162149E+03 0.  0.
          2    1    1    2  501    0 -0.41808482159E+03 -0.12275680670E+03 -0.71170527081E+03  0.83449897791E+03  0.00000000000E+00 0. -1.
          1    1    1    2  502    0  0.40893170639E+02  0.21728336109E+02  0.11563770887E+04  0.11573039114E+04  0.00000000000E+00 0. -1.
         22    1    3    3    0    0  0.16233048967E+03  0.56186150723E+01 -0.15443363563E+03  0.22412609069E+03  0.00000000000E+00 0.  1.
         22    1    3    3    0    0  0.21486116128E+03  0.95409855521E+02 -0.80922408046E+02  0.24862983586E+03  0.00000000000E+00 0.  1.
</event>
<event>
 7    1  0.2895750E-005  0.3667718E+02  0.7818608E-02  0.1536634E+00
          2   -1    0    0  502    0  0.00000000000E+00  0.00000000000E+00  0.13052450561E+04  0.13052450561E+04  0.00000000000E+00 0. -1.
          1   -1    0    0  501    0 -0.00000000000E+00 -0.00000000000E+00 -0.12769216719E+04  0.12769216719E+04  0.00000000000E+00 0. -1.
         25    2    1    2    0    0  0.77180415229E+01  0.14696553222E+02  0.29512607171E+03  0.32092709842E+03  0.12497698770E+03 0.  0.
          2    1    1    2  501    0 -0.34005529531E+02  0.12103133996E+02 -0.12634100167E+04  0.12639255248E+04  0.00000000000E+00 0. -1.
          1    1    1    2  502    0  0.26287488008E+02 -0.26799687218E+02  0.99660732912E+03  0.99731410484E+03  0.00000000000E+00 0. -1.
         22    1    3    3    0    0  0.49511941029E+02  0.32577471774E+02  0.24979239742E+03  0.25672741533E+03  0.00000000000E+00 0. -1.
         22    1    3    3    0    0 -0.41793899506E+02 -0.17880918552E+02  0.45333674283E+02  0.64199683085E+02  0.00000000000E+00 0. -1.
</event>
<event>
 7    1  0.2895750E-005  0.1026424E+03  0.7818608E-02  0.1351972E+00
          2   -1    0    0  502    0  0.00000000000E+00  0.00000000000E+00  0.90464296413E+03  0.90464296413E+03  0.00000000000E+00 0. -1.
          1   -1    0    0  501    0 -0.00000000000E+00 -0.00000000000E+00 -0.21650075335E+03  0.21650075335E+03  0.00000000000E+00 0. -1.
         25    2    1    2    0    0  0.42795965231E+02 -0.49377584034E+02  0.34747003913E+03  0.37500684080E+03  0.12500024843E+03 0.  0.
          2    1    1    2  501    0 -0.93778535691E+02  0.45484915812E+02 -0.18802088857E+03  0.21497708218E+03  0.00000000000E+00 0. -1.
          1    1    1    2  502    0  0.50982570460E+02  0.38926682223E+01  0.52869306023E+03  0.53115979450E+03  0.00000000000E+00 0. -1.
         22    1    3    3    0    0  0.48295992765E+02 -0.63682062532E+02  0.35040366685E+03  0.35940316881E+03  0.00000000000E+00 0.  1.
         22    1    3    3    0    0 -0.55000275345E+01  0.14304478498E+02 -0.29336277220E+01  0.15603671991E+02  0.00000000000E+00 0.  1.
</event>
<event>
 7    1  0.2895750E-005  0.3605932E+03  0.7818608E-02  0.1186446E+00
          2   -1    0    0  502    0  0.00000000000E+00  0.00000000000E+00  0.23725908734E+04  0.23725908734E+04  0.00000000000E+00 0. -1.
          1   -1    0    0  501    0 -0.00000000000E+00 -0.00000000000E+00 -0.27473764246E+03  0.27473764246E+03  0.00000000000E+00 0. -1.
         25    2    1    2    0    0 -0.19157082330E+03  0.24164188819E+03  0.68523400667E+03  0.76174859625E+03  0.12500039006E+03 0.  0.
          2    1    1    2  501    0  0.26060514290E+03 -0.26471697386E+03 -0.89174047049E+02  0.38202372625E+03  0.00000000000E+00 0. -1.
          1    1    1    2  502    0 -0.69034319598E+02  0.23075085671E+02  0.15017932713E+04  0.15035561934E+04  0.00000000000E+00 0. -1.
         22    1    3    3    0    0 -0.17338941086E+03  0.24383354219E+03  0.55753542054E+03  0.63274357306E+03  0.00000000000E+00 0. -1.
         22    1    3    3    0    0 -0.18181412438E+02 -0.21916540076E+01  0.12769858614E+03  0.12900502318E+03  0.00000000000E+00 0. -1.
</event>
<event>
 7    1  0.2895750E-005  0.1777299E+03  0.7818608E-02  0.1252539E+00
          2   -1    0    0  502    0  0.00000000000E+00  0.00000000000E+00  0.31338542601E+03  0.31338542601E+03  0.00000000000E+00 0. -1.
          1   -1    0    0  501    0 -0.00000000000E+00 -0.00000000000E+00 -0.14941670108E+04  0.14941670108E+04  0.00000000000E+00 0. -1.
         25    2    1    2    0    0 -0.70882457590E+02 -0.20154667896E+03 -0.52585905559E+03  0.58120436858E+03  0.12500154046E+03 0.  0.
          2    1    1    2  501    0 -0.38363503866E+02  0.62933326921E+02 -0.91175063682E+03  0.91472486891E+03  0.00000000000E+00 0. -1.
          1    1    1    2  502    0  0.10924596146E+03  0.13861335204E+03  0.25682810765E+03  0.31162319929E+03  0.00000000000E+00 0. -1.
         22    1    3    3    0    0 -0.90294263502E+02 -0.70661922713E+02 -0.26363380154E+03  0.28748729130E+03  0.00000000000E+00 0.  1.
         22    1    3    3    0    0  0.19411805912E+02 -0.13088475625E+03 -0.26222525405E+03  0.29371707729E+03  0.00000000000E+00 0.  1.
</event>
<event>
 7    1  0.2895750E-005  0.2326164E+03  0.7818608E-02  0.1184118E+00
          2   -1    0    0  502    0  0.00000000000E+00  0.00000000000E+00  0.21846839241E+04  0.21846839241E+04  0.00000000000E+00 0. -1.
          1   -1    0    0  501    0 -0.00000000000E+00 -0.00000000000E+00 -0.20099545302E+03  0.20099545302E+03  0.00000000000E+00 0. -1.
         25    2    1    2    0    0 -0.10398382387E+03  0.25699335581E+03  0.81223656186E+03  0.86730094329E+03  0.12499789298E+03 0.  0.
          2    1    1    2  501    0  0.16644648377E+03 -0.15948606644E+03 -0.93044369018E+02  0.24859101342E+03  0.00000000000E+00 0. -1.
          1    1    1    2  502    0 -0.62462659902E+02 -0.97507289378E+02  0.12644962782E+04  0.12697874204E+04  0.00000000000E+00 0. -1.
         22    1    3    3    0    0 -0.91458900518E+02  0.26397515096E+03  0.69280492409E+03  0.74701156192E+03  0.00000000000E+00 0. -1.
         22    1    3    3    0    0 -0.12524923353E+02 -0.69817951434E+01  0.11943163777E+03  0.12028938137E+03  0.00000000000E+00 0. -1.
</event>
<event>
 7    1  0.2895750E-005  0.2736091E+03  0.7818608E-02  0.1285309E+00
          2   -1    0    0  502    0  0.00000000000E+00  0.00000000000E+00  0.35380967151E+03  0.35380967151E+03  0.00000000000E+00 0. -1.
          1   -1    0    0  501    0 -0.00000000000E+00 -0.00000000000E+00 -0.10135070600E+04  0.10135070600E+04  0.00000000000E+00 0. -1.
         25    2    1    2    0    0 -0.24393673619E+03 -0.18510404813E+03  0.20147081970E+03  0.38727749126E+03  0.12499889660E+03 0.  0.
          2    1    1    2  501    0  0.21566409553E+03  0.16472241749E+03 -0.89270142183E+03  0.93303821222E+03  0.00000000000E+00 0. -1.
          1    1    1    2  502    0  0.28272640663E+02  0.20381630641E+02  0.31533213617E+02  0.47001028060E+02  0.00000000000E+00 0. -1.
         22    1    3    3    0    0 -0.17886893801E+03 -0.87237850165E+02  0.17891439370E+03  0.26760960326E+03  0.00000000000E+00 0. -1.
         22    1    3    3    0    0 -0.65067798177E+02 -0.97866197966E+02  0.22556426000E+02  0.11966788800E+03  0.00000000000E+00 0. -1.
</event>
<event>
 7    1  0.2895750E-005  0.3856760E+03  0.7818608E-02  0.1129110E+00
          2   -1    0    0  502    0  0.00000000000E+00  0.00000000000E+00  0.10604415752E+04  0.10604415752E+04  0.00000000000E+00 0. -1.
          1   -1    0    0  501    0 -0.00000000000E+00 -0.00000000000E+00 -0.62755310536E+03  0.62755310536E+03  0.00000000000E+00 0. -1.
         25    2    1    2    0    0 -0.49032590479E+03  0.12363840827E+03  0.57883027755E+03  0.77870184137E+03  0.12500447449E+03 0.  0.
          2    1    1    2  501    0  0.35854872237E+03 -0.10529606242E+03 -0.44552442234E+03  0.58149501974E+03  0.00000000000E+00 0. -1.
          1    1    1    2  502    0  0.13177718241E+03 -0.18342345857E+02  0.29958261468E+03  0.32779781951E+03  0.00000000000E+00 0. -1.
         22    1    3    3    0    0 -0.14624604848E+03  0.92287103332E+02  0.15832179715E+03  0.23445811479E+03  0.00000000000E+00 0. -1.
         22    1    3    3    0    0 -0.34407985631E+03  0.31351304943E+02  0.42050848039E+03  0.54424372658E+03  0.00000000000E+00 0. -1.
</event>
<event>
 7    1  0.2895750E-005  0.5861976E+02  0.7818608E-02  0.1433273E+00
          2   -1    0    0  502    0  0.00000000000E+00  0.00000000000E+00  0.53639590573E+03  0.53639590573E+03  0.00000000000E+00 0. -1.
          1   -1    0    0  501    0 -0.00000000000E+00 -0.00000000000E+00 -0.18925903613E+03  0.18925903613E+03  0.00000000000E+00 0. -1.
         25    2    1    2    0    0 -0.30198028137E+02  0.86547743906E+02 -0.17847137390E+02  0.15603034558E+03  0.12499806219E+03 0.  0.
          2    1    1    2  501    0  0.36727947350E+02 -0.28806131125E+02 -0.95072460848E+02  0.10591273823E+03  0.00000000000E+00 0. -1.
          1    1    1    2  502    0 -0.65299192124E+01 -0.57741612781E+02  0.46005646784E+03  0.46371185804E+03  0.00000000000E+00 0. -1.
         22    1    3    3    0    0  0.32218786253E+02  0.86794915928E+02 -0.11391658563E+02  0.93280102398E+02  0.00000000000E+00 0. -1.
         22    1    3    3    0    0 -0.62416814391E+02 -0.24717202145E+00 -0.64554788271E+01  0.62750243183E+02  0.00000000000E+00 0. -1.
</event>
<event>
 7    1  0.2895750E-005  0.8159814E+02  0.7818608E-02  0.1411420E+00
          2   -1    0    0  502    0  0.00000000000E+00  0.00000000000E+00  0.41892135936E+03  0.41892135936E+03  0.00000000000E+00 0. -1.
          1   -1    0    0  501    0 -0.00000000000E+00 -0.00000000000E+00 -0.24641703283E+03  0.24641703283E+03  0.00000000000E+00 0. -1.
         25    2    1    2    0    0  0.60464197746E+02 -0.77589780601E+02  0.33883844580E+03  0.37431211252E+03  0.12498788727E+03 0.  0.
          2    1    1    2  501    0 -0.71221575560E+02  0.39430147259E+02 -0.21403858020E+03  0.22899729945E+03  0.00000000000E+00 0. -1.
          1    1    1    2  502    0  0.10757377814E+02  0.38159633342E+02  0.47704460937E+02  0.62028980223E+02  0.00000000000E+00 0. -1.
         22    1    3    3    0    0  0.82376392243E+02 -0.98597112875E+02  0.28149902290E+03  0.30943328935E+03  0.00000000000E+00 0.  1.
         22    1    3    3    0    0 -0.21912194497E+02  0.21007332274E+02  0.57339422905E+02  0.64878823171E+02  0.00000000000E+00 0.  1.
</event>
<event>
 7    1  0.2895750E-005  0.1052146E+03  0.7818608E-02  0.1331123E+00
          2   -1    0    0  502    0  0.00000000000E+00  0.00000000000E+00  0.27144486938E+03  0.27144486938E+03  0.00000000000E+00 0. -1.
          1   -1    0    0  501    0 -0.00000000000E+00 -0.00000000000E+00 -0.41523144410E+03  0.41523144410E+03  0.00000000000E+00 0. -1.
         25    2    1    2    0    0  0.66066256753E+01 -0.88823590213E+02 -0.44868954284E+02  0.15990873437E+03  0.12499721032E+03 0.  0.
          2    1    1    2  501    0 -0.59333654746E+02 -0.68659479010E+01 -0.29570958180E+03  0.30168158809E+03  0.00000000000E+00 0. -1.
          1    1    1    2  502    0  0.52727029071E+02  0.95689538114E+02  0.19679196136E+03  0.22508599102E+03  0.00000000000E+00 0. -1.
         22    1    3    3    0    0 -0.21400402219E+02  0.10787868165E+02 -0.50899456083E+02  0.56259309845E+02  0.00000000000E+00 0.  1.
         22    1    3    3    0    0  0.28007027894E+02 -0.99611458377E+02  0.60305017987E+01  0.10364942452E+03  0.00000000000E+00 0.  1.
</event>
<event>
 7    1  0.2895750E-005  0.1330693E+04  0.7818608E-02  0.1064405E+00
          2   -1    0    0  502    0  0.00000000000E+00  0.00000000000E+00  0.17431820132E+04  0.17431820132E+04  0.00000000000E+00 0. -1.
          1   -1    0    0  501    0 -0.00000000000E+00 -0.00000000000E+00 -0.17267659007E+04  0.17267659007E+04  0.00000000000E+00 0. -1.
         25    2    1    2    0    0 -0.38508313252E+03 -0.12366335614E+04  0.33736148820E+03  0.13442429583E+04  0.12499909238E+03 0.  0.
          2    1    1    2  501    0 -0.73021646261E+02 -0.52259346414E+02 -0.70042649527E+03  0.70615895901E+03  0.00000000000E+00 0. -1.
          1    1    1    2  502    0  0.45810477878E+03  0.12888929078E+04  0.37948111965E+03  0.14195459966E+04  0.00000000000E+00 0. -1.
         22    1    3    3    0    0 -0.21112154692E+03 -0.66915197175E+03  0.24691740571E+03  0.74384465724E+03  0.00000000000E+00 0. -1.
         22    1    3    3    0    0 -0.17396158560E+03 -0.56748158966E+03  0.90444082495E+02  0.60039830107E+03  0.00000000000E+00 0. -1.
</event>
<event>
 7    1  0.2895750E-005  0.2785825E+03  0.7818608E-02  0.1114197E+00
          2   -1    0    0  502    0  0.00000000000E+00  0.00000000000E+00  0.35649140396E+04  0.35649140396E+04  0.00000000000E+00 0. -1.
          1   -1    0    0  501    0 -0.00000000000E+00 -0.00000000000E+00 -0.13273618571E+03  0.13273618571E+03  0.00000000000E+00 0. -1.
         25    2    1    2    0    0 -0.10547180479E+03  0.38592652739E+02  0.75052342607E+03  0.76910588922E+03  0.12499904519E+03 0.  0.
          2    1    1    2  501    0  0.27439748524E+03 -0.18237656484E+03  0.11002153219E+03  0.34736138078E+03  0.00000000000E+00 0. -1.
          1    1    1    2  502    0 -0.16892568045E+03  0.14378391210E+03  0.25716328956E+04  0.25811829553E+04  0.00000000000E+00 0. -1.
         22    1    3    3    0    0  0.12477974064E+01  0.53614149733E+01  0.42298682785E+03  0.42302264515E+03  0.00000000000E+00 0. -1.
         22    1    3    3    0    0 -0.10671960220E+03  0.33231237766E+02  0.32753659822E+03  0.34608324407E+03  0.00000000000E+00 0. -1.
</event>
<event>
 7    1  0.2895750E-005  0.9779483E+03  0.7818608E-02  0.1160797E+00
          2   -1    0    0  502    0  0.00000000000E+00  0.00000000000E+00  0.24367879032E+04  0.24367879032E+04  0.00000000000E+00 0. -1.
          1   -1    0    0  501    0 -0.00000000000E+00 -0.00000000000E+00 -0.93779521514E+03  0.93779521514E+03  0.00000000000E+00 0. -1.
         25    2    1    2    0    0  0.22138906646E+03  0.97314702291E+03  0.75247645065E+03  0.12561351252E+04  0.12500558848E+03 0.  0.
          2    1    1    2  501    0  0.63210149733E+01 -0.35362839472E+02 -0.52274845998E+03  0.52398133369E+03  0.00000000000E+00 0. -1.
          1    1    1    2  502    0 -0.22771008144E+03 -0.93778418343E+03  0.12692646974E+04  0.15944666594E+04  0.00000000000E+00 0. -1.
         22    1    3    3    0    0  0.17140223925E+03  0.76286777986E+03  0.65071239259E+03  0.10172377279E+04  0.00000000000E+00 0.  1.
         22    1    3    3    0    0  0.49986827212E+02  0.21027924305E+03  0.10176405806E+03  0.23889739736E+03  0.00000000000E+00 0.  1.
</event>
<event>
 7    1  0.2895750E-005  0.2260541E+03  0.7818608E-02  0.1146676E+00
          2   -1    0    0  502    0  0.00000000000E+00  0.00000000000E+00  0.85940247924E+03  0.85940247924E+03  0.00000000000E+00 0. -1.
          1   -1    0    0  501    0 -0.00000000000E+00 -0.00000000000E+00 -0.35576644446E+03  0.35576644446E+03  0.00000000000E+00 0. -1.
         25    2    1    2    0    0 -0.31917122998E+03 -0.12929307720E+03  0.38331689699E+03  0.53022977292E+03  0.12499917888E+03 0.  0.
          2    1    1    2  501    0  0.21652103418E+03 -0.22819986216E+02 -0.21291099370E+03  0.30452126568E+03  0.00000000000E+00 0. -1.
          1    1    1    2  502    0  0.10265019580E+03  0.15211306341E+03  0.33323013150E+03  0.38041788510E+03  0.00000000000E+00 0. -1.
         22    1    3    3    0    0 -0.59291717902E+02 -0.59675577441E+02  0.37554004767E+02  0.92124837198E+02  0.00000000000E+00 0. -1.
         22    1    3    3    0    0 -0.25987951208E+03 -0.69617499754E+02  0.34576289222E+03  0.43810493573E+03  0.00000000000E+00 0. -1.
</event>
<event>
 7    1  0.2895750E-005  0.2353760E+03  0.7818608E-02  0.1154908E+00
          2   -1    0    0  502    0  0.00000000000E+00  0.00000000000E+00  0.56943624578E+03  0.56943624578E+03  0.00000000000E+00 0. -1.
          1   -1    0    0  501    0 -0.00000000000E+00 -0.00000000000E+00 -0.31864957433E+03  0.31864957433E+03  0.00000000000E+00 0. -1.
         25    2    1    2    0    0  0.20231950327E+03 -0.16526251815E+03 -0.18210379482E+03  0.34209825815E+03  0.12499817933E+03 0.  0.
          2    1    1    2  501    0 -0.16064070960E+03  0.10904274229E+02  0.28930329787E+03  0.33109022779E+03  0.00000000000E+00 0. -1.
          1    1    1    2  502    0 -0.41678793669E+02  0.15435824392E+03  0.14358716840E+03  0.21489733417E+03  0.00000000000E+00 0. -1.
         22    1    3    3    0    0  0.10977529685E+03 -0.23697892359E+02 -0.11324298171E+03  0.15948723713E+03  0.00000000000E+00 0. -1.
         22    1    3    3    0    0  0.92544206423E+02 -0.14156462579E+03 -0.68860813103E+02  0.18261102102E+03  0.00000000000E+00 0. -1.
</event>
<event>
 7    1  0.2895750E-005  0.1099479E+03  0.7818608E-02  0.1290652E+00
          2   -1    0    0  502    0  0.00000000000E+00  0.00000000000E+00  0.21048834704E+04  0.21048834704E+04  0.00000000000E+00 0. -1.
          1   -1    0    0  501    0 -0.00000000000E+00 -0.00000000000E+00 -0.27258482539E+03  0.27258482539E+03  0.00000000000E+00 0. -1.
         25    2    1    2    0    0 -0.13063391588E+03 -0.77912996120E+02 -0.63491413619E+02  0.20685709230E+03  0.12499216811E+03 0.  0.
          2    1    1    2  501    0  0.49075697292E+02  0.90260478221E+02 -0.11724304382E+03  0.15588877226E+03  0.00000000000E+00 0. -1.
          1    1    1    2  502    0  0.81558218592E+02 -0.12347482101E+02  0.20130331025E+04  0.20147224313E+04  0.00000000000E+00 0. -1.
         22    1    3    3    0    0 -0.12931532848E+03 -0.80080446482E+02 -0.92312905558E+02  0.17792415413E+03  0.00000000000E+00 0.  1.
         22    1    3    3    0    0 -0.13185874039E+01  0.21674503622E+01  0.28821491939E+02  0.28932938174E+02  0.00000000000E+00 0.  1.
</event>
<event>
 7    1  0.2895750E-005  0.2104795E+03  0.7818608E-02  0.1238017E+00
          2   -1    0    0  502    0  0.00000000000E+00  0.00000000000E+00  0.14002959424E+04  0.14002959424E+04  0.00000000000E+00 0. -1.
          1   -1    0    0  501    0 -0.00000000000E+00 -0.00000000000E+00 -0.26586390490E+03  0.26586390490E+03  0.00000000000E+00 0. -1.
         25    2    1    2    0    0 -0.20217046574E+03  0.17996010714E+03  0.29437853876E+03  0.41897752751E+03  0.12499962840E+03 0.  0.
          2    1    1    2  501    0  0.63263063067E+02 -0.34447608388E+02 -0.18711408469E+03  0.20050070713E+03  0.00000000000E+00 0. -1.
          1    1    1    2  502    0  0.13890740267E+03 -0.14551249875E+03  0.10271675834E+04  0.10466816126E+04  0.00000000000E+00 0. -1.
         22    1    3    3    0    0 -0.18866668754E+03  0.12650793387E+03  0.28264333608E+03  0.36261085442E+03  0.00000000000E+00 0.  1.
         22    1    3    3    0    0 -0.13503778205E+02  0.53452173270E+02  0.11735202682E+02  0.56366673088E+02  0.00000000000E+00 0.  1.
</event>
<event>
 7    1  0.2895750E-005  0.1502309E+03  0.7818608E-02  0.1204176E+00
          2   -1    0    0  502    0  0.00000000000E+00  0.00000000000E+00  0.17358267401E+04  0.17358267401E+04  0.00000000000E+00 0. -1.
          1   -1    0    0  501    0 -0.00000000000E+00 -0.00000000000E+00 -0.42462751200E+03  0.42462751200E+03  0.00000000000E+00 0. -1.
         25    2    1    2    0    0  0.12874655994E+02  0.17860972118E+02  0.47013897164E+02  0.13534781869E+03  0.12499581755E+03 0.  0.
          2    1    1    2  501    0 -0.31779194637E+02 -0.16689773076E+03 -0.35784779162E+03  0.39613105371E+03  0.00000000000E+00 0. -1.
          1    1    1    2  502    0  0.18904538643E+02  0.14903675865E+03  0.16220331226E+04  0.16289753797E+04  0.00000000000E+00 0. -1.
         22    1    3    3    0    0  0.24672493437E+02  0.18871545726E+02  0.87665938515E+02  0.93006365084E+02  0.00000000000E+00 0.  1.
         22    1    3    3    0    0 -0.11797837442E+02 -0.10105736075E+01 -0.40652041351E+02  0.42341453604E+02  0.00000000000E+00 0.  1.
</event>
<event>
 7    1  0.2895750E-005  0.1063041E+03  0.7818608E-02  0.1296618E+00
          2   -1    0    0  502    0  0.00000000000E+00  0.00000000000E+00  0.25421893157E+03  0.25421893157E+03  0.00000000000E+00 0. -1.
          1   -1    0    0  501    0 -0.00000000000E+00 -0.00000000000E+00 -0.23802841837E+03  0.23802841837E+03  0.00000000000E+00 0. -1.
         25    2    1    2    0    0 -0.27109174333E+02  0.49116537721E+02 -0.12831539277E+03  0.18771501183E+03  0.12499897613E+03 0.  0.
          2    1    1    2  501    0  0.53306550505E+02  0.60595201418E+02 -0.38608706026E+02  0.89465071076E+02  0.00000000000E+00 0. -1.
          1    1    1    2  502    0 -0.26197376173E+02 -0.10971173914E+03  0.18311461200E+03  0.21506726703E+03  0.00000000000E+00 0. -1.
         22    1    3    3    0    0 -0.23093030549E+02  0.74918856424E+02 -0.13893307614E+03  0.15952593129E+03  0.00000000000E+00 0.  1.
         22    1    3    3    0    0 -0.40161437834E+01 -0.25802318703E+02  0.10617683373E+02  0.28189080538E+02  0.00000000000E+00 0.  1.
</event>
<event>
 7    1  0.2895750E-005  0.3685694E+03  0.7818608E-02  0.1219545E+00
          2   -1    0    0  502    0  0.00000000000E+00  0.00000000000E+00  0.60348995526E+03  0.60348995526E+03  0.00000000000E+00 0. -1.
          1   -1    0    0  501    0 -0.00000000000E+00 -0.00000000000E+00 -0.56846312930E+03  0.56846312930E+03  0.00000000000E+00 0. -1.
         25    2    1    2    0    0 -0.36802467559E+03  0.70230540631E+02 -0.25513462969E+03  0.47020512928E+03  0.12499877462E+03 0.  0.
          2    1    1    2  501    0  0.18945390569E+02  0.46055151931E+02 -0.13239488946E+03  0.14145109261E+03  0.00000000000E+00 0. -1.
          1    1    1    2  502    0  0.34907928502E+03 -0.11628569256E+03  0.42255634511E+03  0.56029686267E+03  0.00000000000E+00 0. -1.
         22    1    3    3    0    0 -0.10562720977E+03  0.66344499163E+01 -0.14287131194E+03  0.17780139241E+03  0.00000000000E+00 0.  1.
         22    1    3    3    0    0 -0.26239746582E+03  0.63596090715E+02 -0.11226331776E+03  0.29240373687E+03  0.00000000000E+00 0.  1.
</event>
<event>
 7    1  0.2895750E-005  0.3323148E+03  0.7818608E-02  0.1305702E+00
          2   -1    0    0  502    0  0.00000000000E+00  0.00000000000E+00  0.13835213252E+03  0.13835213252E+03  0.00000000000E+00 0. -1.
          1   -1    0    0  501    0 -0.00000000000E+00 -0.00000000000E+00 -0.12558187391E+04  0.12558187391E+04  0.00000000000E+00 0. -1.
         25    2    1    2    0    0  0.30272558454E+03 -0.11770885412E+03 -0.88670021896E+03  0.95255466978E+03  0.12499986699E+03 0.  0.
          2    1    1    2  501    0  0.16482445796E+02  0.17094754312E+02 -0.62808135548E+02  0.67147327090E+02  0.00000000000E+00 0. -1.
          1    1    1    2  502    0 -0.31920803033E+03  0.10061409981E+03 -0.16795825205E+03  0.37446887473E+03  0.00000000000E+00 0. -1.
         22    1    3    3    0    0  0.27067724700E+03 -0.13334534440E+03 -0.84724558547E+03  0.89937324567E+03  0.00000000000E+00 0.  1.
         22    1    3    3    0    0  0.32048337539E+02  0.15636490282E+02 -0.39454633484E+02  0.53181424113E+02  0.00000000000E+00 0.  1.
</event>
<event>
 7    1  0.2895750E-005  0.3868126E+03  0.7818608E-02  0.1277518E+00
          2   -1    0    0  502    0  0.00000000000E+00  0.00000000000E+00  0.44295521748E+03  0.44295521748E+03  0.00000000000E+00 0. -1.
          1   -1    0    0  501    0 -0.00000000000E+00 -0.00000000000E+00 -0.11629007386E+04  0.11629007386E+04  0.00000000000E+00 0. -1.
         25    2    1    2    0    0  0.91929762645E+02 -0.37549611428E+03  0.27343616370E+03  0.48973504985E+03  0.12499868131E+03 0.  0.
          2    1    1    2  501    0 -0.25417571878E+02 -0.76579080611E+01 -0.43418357825E+03  0.43499434035E+03  0.00000000000E+00 0. -1.
          1    1    1    2  502    0 -0.66512190767E+02  0.38315402234E+03 -0.55919810661E+03  0.68112656591E+03  0.00000000000E+00 0. -1.
         22    1    3    3    0    0 -0.31215657239E+02 -0.74123469512E+02  0.61821194438E+02  0.10144242737E+03  0.00000000000E+00 0. -1.
         22    1    3    3    0    0  0.12314541988E+03 -0.30137264477E+03  0.21161496926E+03  0.38829262248E+03  0.00000000000E+00 0. -1.
</event>
<event>
 7    1  0.2895750E-005  0.3242589E+03  0.7818608E-02  0.1125490E+00
          2   -1    0    0  502    0  0.00000000000E+00  0.00000000000E+00  0.10466775704E+04  0.10466775704E+04  0.00000000000E+00 0. -1.
          1   -1    0    0  501    0 -0.00000000000E+00 -0.00000000000E+00 -0.17741833617E+04  0.17741833617E+04  0.00000000000E+00 0. -1.
         25    2    1    2    0    0  0.28657706860E+03 -0.19649912002E+03 -0.16892202695E+03  0.40607598655E+03  0.12499894097E+03 0.  0.
          2    1    1    2  501    0  0.37197506443E+02  0.16124278656E+03 -0.14532710770E+04  0.14626618590E+04  0.00000000000E+00 0. -1.
          1    1    1    2  502    0 -0.32377457504E+03  0.35256333465E+02  0.89468731265E+03  0.95212308653E+03  0.00000000000E+00 0. -1.
         22    1    3    3    0    0  0.25982244926E+03 -0.11747069062E+03 -0.14094139344E+03  0.31807474701E+03  0.00000000000E+00 0. -1.
         22    1    3    3    0    0  0.26754619337E+02 -0.79028429400E+02 -0.27980633506E+02  0.88001239541E+02  0.00000000000E+00 0. -1.
</event>
<event>
 7    1  0.2895750E-005  0.6237915E+02  0.7818608E-02  0.1541052E+00
          2   -1    0    0  502    0  0.00000000000E+00  0.00000000000E+00  0.26921507071E+03  0.26921507071E+03  0.00000000000E+00 0. -1.
          1   -1    0    0  501    0 -0.00000000000E+00 -0.00000000000E+00 -0.61348216072E+03  0.61348216072E+03  0.00000000000E+00 0. -1.
         25    2    1    2    0    0 -0.59371088008E+02 -0.39675739076E+02 -0.27224049163E+03  0.30796093734E+03  0.12500385307E+03 0.  0.
          2    1    1    2  501    0  0.39909313407E+02  0.46490464106E+02 -0.32004750976E+03  0.32585967079E+03  0.00000000000E+00 0. -1.
          1    1    1    2  502    0  0.19461774601E+02 -0.68147250295E+01  0.24802091137E+03  0.24887662330E+03  0.00000000000E+00 0. -1.
         22    1    3    3    0    0 -0.40768661577E+02 -0.61617502973E+02 -0.26905957488E+03  0.27901945321E+03  0.00000000000E+00 0.  1.
         22    1    3    3    0    0 -0.18602426431E+02  0.21941763897E+02 -0.31809167544E+01  0.28941484126E+02  0.00000000000E+00 0.  1.
</event>
<event>
 7    1  0.2895750E-005  0.2559221E+03  0.7818608E-02  0.1212741E+00
          2   -1    0    0  502    0  0.00000000000E+00  0.00000000000E+00  0.66296330653E+03  0.66296330653E+03  0.00000000000E+00 0. -1.
          1   -1    0    0  501    0 -0.00000000000E+00 -0.00000000000E+00 -0.31011549728E+03  0.31011549728E+03  0.00000000000E+00 0. -1.
         25    2    1    2    0    0  0.22847929637E+03 -0.86313267294E+02 -0.95076641194E+02  0.29037408186E+03  0.12499908293E+03 0.  0.
          2    1    1    2  501    0 -0.28095513649E+03  0.29874368611E+02  0.62131441831E+02  0.28928979015E+03  0.00000000000E+00 0. -1.
          1    1    1    2  502    0  0.52475840119E+02  0.56438898683E+02  0.38579300861E+03  0.39341493181E+03  0.00000000000E+00 0. -1.
         22    1    3    3    0    0  0.87467808712E+02 -0.99798026730E+02 -0.47167485232E+02  0.14083691051E+03  0.00000000000E+00 0. -1.
         22    1    3    3    0    0  0.14101148766E+03  0.13484759436E+02 -0.47909155961E+02  0.14953717134E+03  0.00000000000E+00 0. -1.
</event>
<event>
 7    1  0.2895750E-005  0.4500042E+03  0.7818608E-02  0.1102043E+00
          2   -1    0    0  502    0  0.00000000000E+00  0.00000000000E+00  0.42370068235E+04  0.42370068235E+04  0.00000000000E+00 0. -1.
          1   -1    0    0  501    0 -0.00000000000E+00 -0.00000000000E+00 -0.39706698523E+03  0.39706698523E+03  0.00000000000E+00 0. -1.
         25    2    1    2    0    0  0.38652732530E+03  0.33995220989E+03  0.11110303161E+04  0.12308465070E+04  0.12499552851E+03 0.  0.
          2    1    1    2  501    0 -0.40601961473E+03 -0.18073321822E+03 -0.18753474292E+03  0.48237506519E+03  0.00000000000E+00 0. -1.
          1    1    1    2  502    0  0.19492289428E+02 -0.15921899166E+03  0.29164442651E+04  0.29208522366E+04  0.00000000000E+00 0. -1.
         22    1    3    3    0    0 -0.93747297164E+01  0.49268380291E+01  0.30693968882E+02  0.32469663009E+02  0.00000000000E+00 0.  1.
         22    1    3    3    0    0  0.39590205501E+03  0.33502537186E+03  0.10803363472E+04  0.11983768440E+04  0.00000000000E+00 0.  1.
</event>
<event>
 7    1  0.2895750E-005  0.5747876E+02  0.7818608E-02  0.1453411E+00
          2   -1    0    0  502    0  0.00000000000E+00  0.00000000000E+00  0.14138661644E+04  0.14138661644E+04  0.00000000000E+00 0. -1.
          1   -1    0    0  501    0 -0.00000000000E+00 -0.00000000000E+00 -0.77603288136E+03  0.77603288136E+03  0.00000000000E+00 0. -1.
         25    2    1    2    0    0 -0.66581016148E+02 -0.14997364768E+01  0.96769263931E+03  0.97800321938E+03  0.12500388804E+03 0.  0.
          2    1    1    2  501    0  0.20037595925E+02  0.35749045720E+02 -0.76843627922E+03  0.76952830666E+03  0.00000000000E+00 0. -1.
          1    1    1    2  502    0  0.46543420223E+02 -0.34249309244E+02  0.43857692299E+03  0.44236751975E+03  0.00000000000E+00 0. -1.
         22    1    3    3    0    0 -0.75769173252E+02  0.29790343024E+02  0.34575313027E+03  0.35520931750E+03  0.00000000000E+00 0. -1.
         22    1    3    3    0    0  0.91881571041E+01 -0.31290079501E+02  0.62193950905E+03  0.62279390188E+03  0.00000000000E+00 0. -1.
</event>
<event>
 7    1  0.2895750E-005  0.1407544E+03  0.7818608E-02  0.1315762E+00
          2   -1    0    0  502    0  0.00000000000E+00  0.00000000000E+00  0.22747823562E+03  0.22747823562E+03  0.00000000000E+00 0. -1.
          1   -1    0    0  501    0 -0.00000000000E+00 -0.00000000000E+00 -0.89128899091E+03  0.89128899091E+03  0.00000000000E+00 0. -1.
         25    2    1    2    0    0  0.49951658178E+02 -0.14727435707E+03 -0.53379960989E+02  0.20654090784E+03  0.12499928789E+03 0.  0.
          2    1    1    2  501    0 -0.85848771458E+02  0.11079633417E+03 -0.75030427200E+03  0.76328391822E+03  0.00000000000E+00 0. -1.
          1    1    1    2  502    0  0.35897113280E+02  0.36478022894E+02  0.13987347770E+03  0.14894240047E+03  0.00000000000E+00 0. -1.
         22    1    3    3    0    0  0.39371249780E+02 -0.93887437058E+02 -0.94047787879E+02  0.13859990098E+03  0.00000000000E+00 0. -1.
         22    1    3    3    0    0  0.10580408398E+02 -0.53386920009E+02  0.40667826890E+02  0.67941006865E+02  0.00000000000E+00 0. -1.
</event>
<event>
 7    1  0.2895750E-005  0.2460327E+03  0.7818608E-02  0.1119255E+00
          2   -1    0    0  502    0  0.00000000000E+00  0.00000000000E+00  0.17698219793E+04  0.17698219793E+04  0.00000000000E+00 0. -1.
          1   -1    0    0  501    0 -0.00000000000E+00 -0.00000000000E+00 -0.14485915296E+04  0.14485915296E+04  0.00000000000E+00 0. -1.
         25    2    1    2    0    0 -0.19076000422E+03 -0.32778087194E+03  0.16667693882E+03  0.43269678756E+03  0.12496250962E+03 0.  0.
          2    1    1    2  501    0 -0.28780782478E+02  0.24202069227E+03 -0.12946905399E+04  0.13174315705E+04  0.00000000000E+00 0. -1.
          1    1    1    2  502    0  0.21954078670E+03  0.85760179671E+02  0.14492440508E+04  0.14682851508E+04  0.00000000000E+00 0. -1.
         22    1    3    3    0    0 -0.11097647565E+03 -0.14064349433E+03  0.14031167405E+03  0.22756040191E+03  0.00000000000E+00 0. -1.
         22    1    3    3    0    0 -0.79783528571E+02 -0.18713737761E+03  0.26365264778E+02  0.20513638565E+03  0.00000000000E+00 0. -1.
</event>
<event>
 7    1  0.2895750E-005  0.1082816E+03  0.7818608E-02  0.1305160E+00
          2   -1    0    0  502    0  0.00000000000E+00  0.00000000000E+00  0.42928382923E+03  0.42928382923E+03  0.00000000000E+00 0. -1.
          1   -1    0    0  501    0 -0.00000000000E+00 -0.00000000000E+00 -0.12898846240E+04  0.12898846240E+04  0.00000000000E+00 0. -1.
         25    2    1    2    0    0 -0.77914107990E+02  0.12788375382E+03 -0.20033662827E+03  0.27961590943E+03  0.12500171784E+03 0.  0.
          2    1    1    2  501    0  0.70264319016E+02 -0.20664310935E+02 -0.10411838976E+04  0.10437566751E+04  0.00000000000E+00 0. -1.
          1    1    1    2  502    0  0.76497889742E+01 -0.10721944289E+03  0.38091973104E+03  0.39579586873E+03  0.00000000000E+00 0. -1.
         22    1    3    3    0    0 -0.14251234277E+02 -0.24106646243E+02 -0.45931183082E+02  0.53794996523E+02  0.00000000000E+00 0. -1.
         22    1    3    3    0    0 -0.63662873714E+02  0.15199040007E+03 -0.15440544519E+03  0.22582091290E+03  0.00000000000E+00 0. -1.
</event>
<event>
 7    1  0.2895750E-005  0.3029912E+03  0.7818608E-02  0.1123762E+00
          2   -1    0    0  502    0  0.00000000000E+00  0.00000000000E+00  0.63690485034E+03  0.63690485034E+03  0.00000000000E+00 0. -1.
          1   -1    0    0  501    0 -0.00000000000E+00 -0.00000000000E+00 -0.57237988265E+03  0.57237988265E+03  0.00000000000E+00 0. -1.
         25    2    1    2    0    0  0.20735430126E+03  0.21558994835E+03  0.47096994290E+03  0.57176284163E+03  0.12500091149E+03 0.  0.
          2    1    1    2  501    0 -0.50495539326E+02 -0.30575921766E+03 -0.26780730881E+03  0.40958424448E+03  0.00000000000E+00 0. -1.
          1    1    1    2  502    0 -0.15685876194E+03  0.90169269301E+02 -0.13863766640E+03  0.22793764688E+03  0.00000000000E+00 0. -1.
         22    1    3    3    0    0  0.86803752374E+02  0.97314538781E+02  0.10057317442E+03  0.16468143276E+03  0.00000000000E+00 0. -1.
         22    1    3    3    0    0  0.12055054889E+03  0.11827540957E+03  0.37039676848E+03  0.40708140887E+03  0.00000000000E+00 0. -1.
</event>
<event>
 7    1  0.2895750E-005  0.1065568E+03  0.7818608E-02  0.1438498E+00
          2   -1    0    0  502    0  0.00000000000E+00  0.00000000000E+00  0.11618064148E+04  0.11618064148E+04  0.00000000000E+00 0. -1.
          1   -1    0    0  501    0 -0.00000000000E+00 -0.00000000000E+00 -0.84076109280E+02  0.84076109280E+02  0.00000000000E+00 0. -1.
         25    2    1    2    0    0 -0.90681124939E+02 -0.15882660305E+02  0.22417801753E+03  0.27268286640E+03  0.12499934707E+03 0.  0.
          2    1    1    2  501    0 -0.11176218677E+02 -0.22014784633E+02 -0.53888013548E+02  0.59274586548E+02  0.00000000000E+00 0. -1.
          1    1    1    2  502    0  0.10185734362E+03  0.37897444938E+02  0.90744030158E+03  0.91392507117E+03  0.00000000000E+00 0. -1.
         22    1    3    3    0    0 -0.49238561274E+02 -0.66570571487E+02  0.83903489749E+02  0.11788075541E+03  0.00000000000E+00 0. -1.
         22    1    3    3    0    0 -0.41442563664E+02  0.50687911182E+02  0.14027452778E+03  0.15480211099E+03  0.00000000000E+00 0. -1.
</event>
<event>
 7    1  0.2895750E-005  0.5918013E+03  0.7818608E-02  0.1210415E+00
          2   -1    0    0  502    0  0.00000000000E+00  0.00000000000E+00  0.16103136623E+04  0.16103136623E+04  0.00000000000E+00 0. -1.
          1   -1    0    0  501    0 -0.00000000000E+00 -0.00000000000E+00 -0.62726235654E+03  0.62726235654E+03  0.00000000000E+00 0. -1.
         25    2    1    2    0    0  0.28902533381E+02 -0.59519915198E+03  0.12728976550E+04  0.14110246495E+04  0.12499893679E+03 0.  0.
          2    1    1    2  501    0 -0.26769303381E+02  0.21224596057E+02 -0.24877020022E+03  0.25110494141E+03  0.00000000000E+00 0. -1.
          1    1    1    2  502    0 -0.21332300002E+01  0.57397455592E+03 -0.41076149021E+02  0.57544642803E+03  0.00000000000E+00 0. -1.
         22    1    3    3    0    0 -0.59462623521E+00 -0.34996613360E+03  0.87879142891E+03  0.94591279924E+03  0.00000000000E+00 0.  1.
         22    1    3    3    0    0  0.29497159617E+02 -0.24523301838E+03  0.39410622614E+03  0.46511185021E+03  0.00000000000E+00 0.  1.
</event>
<event>
 7    1  0.2895750E-005  0.8348946E+02  0.7818608E-02  0.1457453E+00
          2   -1    0    0  502    0  0.00000000000E+00  0.00000000000E+00  0.13156637635E+04  0.13156637635E+04  0.00000000000E+00 0. -1.
          1   -1    0    0  501    0 -0.00000000000E+00 -0.00000000000E+00 -0.13708632944E+03  0.13708632944E+03  0.00000000000E+00 0. -1.
         25    2    1    2    0    0 -0.92224971152E+02  0.13860664129E+02  0.92168092379E+03  0.93478247702E+03  0.12499996301E+03 0.  0.
          2    1    1    2  501    0  0.82569037510E+02  0.11773608630E+02 -0.11666013126E+03  0.14340798458E+03  0.00000000000E+00 0. -1.
          1    1    1    2  502    0  0.96559336425E+01 -0.25634272758E+02  0.37355664157E+03  0.37455963138E+03  0.00000000000E+00 0. -1.
         22    1    3    3    0    0 -0.79648460101E+02 -0.33083747820E+02  0.78489664928E+03  0.78962089741E+03  0.00000000000E+00 0. -1.
         22    1    3    3    0    0 -0.12576511051E+02  0.46944411949E+02  0.13678427451E+03  0.14516157961E+03  0.00000000000E+00 0. -1.
</event>
<event>
 7    1  0.2895750E-005  0.7443040E+02  0.7818608E-02  0.1406163E+00
          2   -1    0    0  502    0  0.00000000000E+00  0.00000000000E+00  0.17567077628E+03  0.17567077628E+03  0.00000000000E+00 0. -1.
          1   -1    0    0  501    0 -0.00000000000E+00 -0.00000000000E+00 -0.83895645645E+03  0.83895645645E+03  0.00000000000E+00 0. -1.
         25    2    1    2    0    0 -0.66817408826E+02 -0.98550490157E+02 -0.60567670253E+03  0.62979904181E+03  0.12500319935E+03 0.  0.
          2    1    1    2  501    0  0.26675700167E+02  0.36598514765E+02 -0.21035729436E+03  0.21517721894E+03  0.00000000000E+00 0. -1.
          1    1    1    2  502    0  0.40141708658E+02  0.61951975392E+02  0.15274831672E+03  0.16965097197E+03  0.00000000000E+00 0. -1.
         22    1    3    3    0    0 -0.97167815833E+02 -0.10338929998E+03 -0.49442266725E+03  0.51437797938E+03  0.00000000000E+00 0. -1.
         22    1    3    3    0    0  0.30350407007E+02  0.48388098255E+01 -0.11125403528E+03  0.11542106243E+03  0.00000000000E+00 0. -1.
</event>
<event>
 7    1  0.2895750E-005  0.2503252E+03  0.7818608E-02  0.1200417E+00
          2   -1    0    0  502    0  0.00000000000E+00  0.00000000000E+00  0.46068086794E+03  0.46068086794E+03  0.00000000000E+00 0. -1.
          1   -1    0    0  501    0 -0.00000000000E+00 -0.00000000000E+00 -0.95101379589E+03  0.95101379589E+03  0.00000000000E+00 0. -1.
         25    2    1    2    0    0  0.30975382736E+03  0.11628426063E+03  0.10335730550E+00  0.35368432899E+03  0.12499252401E+03 0.  0.
          2    1    1    2  501    0 -0.22956286112E+03 -0.75562461458E+02 -0.74753640035E+03  0.78563316035E+03  0.00000000000E+00 0. -1.
          1    1    1    2  502    0 -0.80190966242E+02 -0.40721799171E+02  0.25710011510E+03  0.27237717448E+03  0.00000000000E+00 0. -1.
         22    1    3    3    0    0  0.10166496151E+03  0.67569488061E+02 -0.53607217255E+02  0.13332341826E+03  0.00000000000E+00 0. -1.
         22    1    3    3    0    0  0.20808886586E+03  0.48714772569E+02  0.53710574560E+02  0.22036091073E+03  0.00000000000E+00 0. -1.
</event>
<event>
 7    1  0.2895750E-005  0.1837962E+03  0.7818608E-02  0.1264441E+00
          2   -1    0    0  502    0  0.00000000000E+00  0.00000000000E+00  0.24625399606E+04  0.24625399606E+04  0.00000000000E+00 0. -1.
          1   -1    0    0  501    0 -0.00000000000E+00 -0.00000000000E+00 -0.12209013450E+03  0.12209013450E+03  0.00000000000E+00 0. -1.
         25    2    1    2    0    0  0.97737064073E+02 -0.18494435699E+03  0.18344865318E+03  0.30501304193E+03  0.12499039369E+03 0.  0.
          2    1    1    2  501    0 -0.63146526093E+02  0.55064593125E+01 -0.40050280262E+02  0.74978862361E+02  0.00000000000E+00 0. -1.
          1    1    1    2  502    0 -0.34590537980E+02  0.17943789768E+03  0.21970514531E+04  0.22046381908E+04  0.00000000000E+00 0. -1.
         22    1    3    3    0    0  0.11634350912E+03 -0.12825884455E+03  0.17237229653E+03  0.24433246188E+03  0.00000000000E+00 0. -1.
         22    1    3    3    0    0 -0.18606445048E+02 -0.56685512437E+02  0.11076356654E+02  0.60680580042E+02  0.00000000000E+00 0. -1.
</event>
<event>
 7    1  0.2895750E-005  0.3902433E+03  0.7818608E-02  0.1065374E+00
          2   -1    0    0  502    0  0.00000000000E+00  0.00000000000E+00  0.10374607547E+04  0.10374607547E+04  0.00000000000E+00 0. -1.
          1   -1    0    0  501    0 -0.00000000000E+00 -0.00000000000E+00 -0.77988858807E+03  0.77988858807E+03  0.00000000000E+00 0. -1.
         25    2    1    2    0    0 -0.54466079753E+03 -0.10487824426E+03  0.62430188348E+02  0.57199412914E+03  0.12499969949E+03 0.  0.
          2    1    1    2  501    0  0.19676789841E+03  0.22924369139E+03 -0.42623362757E+03  0.52244174906E+03  0.00000000000E+00 0. -1.
          1    1    1    2  502    0  0.34789289912E+03 -0.12436544714E+03  0.62137560581E+03  0.72291346453E+03  0.00000000000E+00 0. -1.
         22    1    3    3    0    0 -0.24855009747E+03 -0.72737057850E+02 -0.28587859004E+02  0.26054768512E+03  0.00000000000E+00 0.  1.
         22    1    3    3    0    0 -0.29611070006E+03 -0.32141186406E+02  0.91018047352E+02  0.31144644403E+03  0.00000000000E+00 0.  1.
</event>
<event>
 7    1  0.2895750E-005  0.1848324E+03  0.7818608E-02  0.1385431E+00
          2   -1    0    0  502    0  0.00000000000E+00  0.00000000000E+00  0.59042395054E+02  0.59042395054E+02  0.00000000000E+00 0. -1.
          1   -1    0    0  501    0 -0.00000000000E+00 -0.00000000000E+00 -0.11934581482E+04  0.11934581482E+04  0.00000000000E+00 0. -1.
         25    2    1    2    0    0  0.63528629057E+02  0.17841088789E+03 -0.93777466122E+03  0.96483811641E+03  0.12499977606E+03 0.  0.
          2    1    1    2  501    0 -0.44394885768E+02 -0.16857732875E+03 -0.20062793505E+03  0.26578335157E+03  0.00000000000E+00 0. -1.
          1    1    1    2  502    0 -0.19133743289E+02 -0.98335591306E+01  0.39868431098E+01  0.21879075287E+02  0.00000000000E+00 0. -1.
         22    1    3    3    0    0  0.73131960228E+02  0.18587578223E+03 -0.73377214187E+03  0.76047330408E+03  0.00000000000E+00 0.  1.
         22    1    3    3    0    0 -0.96033311717E+01 -0.74648943474E+01 -0.20400251935E+03  0.20436481233E+03  0.00000000000E+00 0.  1.
</event>
<event>
 7    1  0.2895750E-005  0.7372836E+02  0.7818608E-02  0.1478338E+00
          2   -1    0    0  502    0  0.00000000000E+00  0.00000000000E+00  0.19643882230E+04  0.19643882230E+04  0.00000000000E+00 0. -1.
          1   -1    0    0  501    0 -0.00000000000E+00 -0.00000000000E+00 -0.13887649239E+03  0.13887649239E+03  0.00000000000E+00 0. -1.
         25    2    1    2    0    0  0.14243216719E+02 -0.90122879409E+02  0.13162048748E+01  0.15476056482E+03  0.12499638960E+03 0.  0.
          2    1    1    2  501    0  0.28523394963E+01  0.69617047576E+02 -0.42502149605E+02  0.81615573727E+02  0.00000000000E+00 0. -1.
          1    1    1    2  502    0 -0.17095556215E+02  0.20505831832E+02  0.18666976754E+04  0.18668885769E+04  0.00000000000E+00 0. -1.
         22    1    3    3    0    0  0.52014425952E+02 -0.86354513763E+02  0.32197587548E+02  0.10582668472E+03  0.00000000000E+00 0.  1.
         22    1    3    3    0    0 -0.37771209233E+02 -0.37683656457E+01 -0.30881382673E+02  0.48933880108E+02  0.00000000000E+00 0.  1.
</event>
<event>
 7    1  0.2895750E-005  0.4771906E+03  0.7818608E-02  0.1067491E+00
          2   -1    0    0  502    0  0.00000000000E+00  0.00000000000E+00  0.23560554262E+04  0.23560554262E+04  0.00000000000E+00 0. -1.
          1   -1    0    0  501    0 -0.00000000000E+00 -0.00000000000E+00 -0.74030686802E+03  0.74030686802E+03  0.00000000000E+00 0. -1.
         25    2    1    2    0    0  0.57702871539E+03 -0.12421688161E+03  0.22152304519E+02  0.60374559401E+03  0.12500418244E+03 0.  0.
          2    1    1    2  501    0 -0.19123769395E+03 -0.14490960297E+03 -0.38786837363E+03  0.45608390004E+03  0.00000000000E+00 0. -1.
          1    1    1    2  502    0 -0.38579102144E+03  0.26912648458E+03  0.19814646273E+04  0.20365328001E+04  0.00000000000E+00 0. -1.
         22    1    3    3    0    0  0.40354622445E+03 -0.11709484752E+03 -0.33216905140E+02  0.42150221988E+03  0.00000000000E+00 0. -1.
         22    1    3    3    0    0  0.17348249094E+03 -0.71220340898E+01  0.55369209659E+02  0.18224337412E+03  0.00000000000E+00 0. -1.
</event>
<event>
 7    1  0.2895750E-005  0.2231637E+03  0.7818608E-02  0.1275673E+00
          2   -1    0    0  502    0  0.00000000000E+00  0.00000000000E+00  0.41751212196E+03  0.41751212196E+03  0.00000000000E+00 0. -1.
          1   -1    0    0  501    0 -0.00000000000E+00 -0.00000000000E+00 -0.22260182660E+03  0.22260182660E+03  0.00000000000E+00 0. -1.
         25    2    1    2    0    0 -0.96724349716E+02 -0.17397571602E+03  0.82585096828E+02  0.24913758277E+03  0.12500434928E+03 0.  0.
          2    1    1    2  501    0  0.92012563561E+02  0.22056987096E+03 -0.30256941832E+02  0.24090010867E+03  0.00000000000E+00 0. -1.
          1    1    1    2  502    0  0.47117861550E+01 -0.46594154939E+02  0.14258214036E+03  0.15007625713E+03  0.00000000000E+00 0. -1.
         22    1    3    3    0    0 -0.11750828156E+03 -0.11177607015E+03  0.85803517138E+02  0.18347841739E+03  0.00000000000E+00 0.  1.
         22    1    3    3    0    0  0.20783931848E+02 -0.62199645868E+02 -0.32184203098E+01  0.65659165381E+02  0.00000000000E+00 0.  1.
</event>
<event>
 7    1  0.2895750E-005  0.4277620E+03  0.7818608E-02  0.1042523E+00
          2   -1    0    0  502    0  0.00000000000E+00  0.00000000000E+00  0.40653318710E+04  0.40653318710E+04  0.00000000000E+00 0. -1.
          1   -1    0    0  501    0 -0.00000000000E+00 -0.00000000000E+00 -0.23663471419E+03  0.23663471419E+03  0.00000000000E+00 0. -1.
         25    2    1    2    0    0 -0.17845026037E+02  0.68217583389E+03  0.73851199748E+03  0.10132657616E+04  0.12500087970E+03 0.  0.
          2    1    1    2  501    0  0.20601476556E+03 -0.32037430813E+03  0.34665056807E+03  0.51502271531E+03  0.00000000000E+00 0. -1.
          1    1    1    2  502    0 -0.18816973952E+03 -0.36180152575E+03  0.27435345913E+04  0.27736781083E+04  0.00000000000E+00 0. -1.
         22    1    3    3    0    0  0.43149692314E+02  0.47410496667E+03  0.48350720523E+03  0.67854007463E+03  0.00000000000E+00 0.  1.
         22    1    3    3    0    0 -0.60994718351E+02  0.20807086721E+03  0.25500479225E+03  0.33472568698E+03  0.00000000000E+00 0.  1.
</event>
<event>
 7    1  0.2895750E-005  0.3177133E+03  0.7818608E-02  0.1195680E+00
          2   -1    0    0  502    0  0.00000000000E+00  0.00000000000E+00  0.94389590401E+03  0.94389590401E+03  0.00000000000E+00 0. -1.
          1   -1    0    0  501    0 -0.00000000000E+00 -0.00000000000E+00 -0.10856674120E+04  0.10856674120E+04  0.00000000000E+00 0. -1.
         25    2    1    2    0    0 -0.29377986574E+03 -0.18515944103E+03  0.74935959791E+02  0.37661257643E+03  0.12502402383E+03 0.  0.
          2    1    1    2  501    0  0.17020110885E+01  0.74595363393E+02 -0.89925625957E+03  0.90234648859E+03  0.00000000000E+00 0. -1.
          1    1    1    2  502    0  0.29207785466E+03  0.11056407764E+03  0.68254879179E+03  0.75060425100E+03  0.00000000000E+00 0. -1.
         22    1    3    3    0    0 -0.27820196046E+02 -0.54310662086E+02 -0.21835185631E+02  0.64810390030E+02  0.00000000000E+00 0.  1.
         22    1    3    3    0    0 -0.26595966970E+03 -0.13084877894E+03  0.96771145422E+02  0.31180218640E+03  0.00000000000E+00 0.  1.
</event>
<event>
 7    1  0.2895750E-005  0.2591221E+03  0.7818608E-02  0.1187420E+00
          2   -1    0    0  502    0  0.00000000000E+00  0.00000000000E+00  0.18690981381E+03  0.18690981381E+03  0.00000000000E+00 0. -1.
          1   -1    0    0  501    0 -0.00000000000E+00 -0.00000000000E+00 -0.32853706319E+04  0.32853706319E+04  0.00000000000E+00 0. -1.
         25    2    1    2    0    0  0.28230294333E+03 -0.17854328347E+03 -0.31531396448E+03  0.47604693030E+03  0.12500051106E+03 0.  0.
          2    1    1    2  501    0 -0.89640763768E+02  0.44779493873E+02 -0.27585865862E+04  0.27604058801E+04  0.00000000000E+00 0. -1.
          1    1    1    2  502    0 -0.19266217956E+03  0.13376378959E+03 -0.24560267455E+02  0.23582763531E+03  0.00000000000E+00 0. -1.
         22    1    3    3    0    0  0.10111074746E+03 -0.47921748979E+02 -0.34212908379E+02  0.11700598436E+03  0.00000000000E+00 0.  1.
         22    1    3    3    0    0  0.18119219587E+03 -0.13062153449E+03 -0.28110105611E+03  0.35904094594E+03  0.00000000000E+00 0.  1.
</event>
<event>
 7    1  0.3579873E-005  0.7686386E+02  0.7818608E-02  0.1403756E+00
          2   -1    0    0  502    0  0.00000000000E+00  0.00000000000E+00  0.93509730109E+03  0.93509730109E+03  0.00000000000E+00 0. -1.
          1   -1    0    0  501    0 -0.00000000000E+00 -0.00000000000E+00 -0.11471210197E+04  0.11471210197E+04  0.00000000000E+00 0. -1.
         25    2    1    2    0    0  0.98845700817E+02  0.36753070606E+02 -0.15482134254E+03  0.22520457046E+03  0.12500475864E+03 0.  0.
          2    1    1    2  501    0 -0.42144942835E+02  0.14873162589E+02 -0.95495091935E+03  0.95599616397E+03  0.00000000000E+00 0. -1.
          1    1    1    2  502    0 -0.56700757982E+02 -0.51626233195E+02  0.89774854329E+03  0.90101758634E+03  0.00000000000E+00 0. -1.
         22    1    3    3    0    0  0.71043739341E+02 -0.29369933839E+02 -0.12662010030E+03  0.14812986097E+03  0.00000000000E+00 0. -1.
         22    1    3    3    0    0  0.27801961476E+02  0.66123004445E+02 -0.28201242248E+02  0.77074709490E+02  0.00000000000E+00 0. -1.
</event>
<event>
 7    1  0.2895750E-005  0.2005979E+03  0.7818608E-02  0.1187675E+00
          2   -1    0    0  502    0  0.00000000000E+00  0.00000000000E+00  0.13580663754E+03  0.13580663754E+03  0.00000000000E+00 0. -1.
          1   -1    0    0  501    0 -0.00000000000E+00 -0.00000000000E+00 -0.37976348353E+04  0.37976348353E+04  0.00000000000E+00 0. -1.
         25    2    1    2    0    0 -0.35712632215E+01  0.28107004459E+03 -0.52503094739E+03  0.60851927441E+03  0.12500035092E+03 0.  0.
          2    1    1    2  501    0  0.81878869912E+02 -0.17846735203E+03 -0.31820842402E+04  0.31881365807E+04  0.00000000000E+00 0. -1.
          1    1    1    2  502    0 -0.78307606690E+02 -0.10260269256E+03  0.45286989830E+02  0.13678561779E+03  0.00000000000E+00 0. -1.
         22    1    3    3    0    0  0.27780205904E+02  0.27080178252E+03 -0.48900255834E+03  0.55966851557E+03  0.00000000000E+00 0. -1.
         22    1    3    3    0    0 -0.31351469126E+02  0.10268262071E+02 -0.36028389046E+02  0.48850758844E+02  0.00000000000E+00 0. -1.
</event>
<event>
 7    1  0.2895750E-005  0.3363620E+03  0.7818608E-02  0.1155971E+00
          2   -1    0    0  502    0  0.00000000000E+00  0.00000000000E+00  0.81536033035E+03  0.81536033035E+03  0.00000000000E+00 0. -1.
          1   -1    0    0  501    0 -0.00000000000E+00 -0.00000000000E+00 -0.42353956385E+03  0.42353956385E+03  0.00000000000E+00 0. -1.
         25    2    1    2    0    0 -0.30680676436E+03  0.21382681646E+03 -0.11872827175E+03  0.41179336944E+03  0.12500031402E+03 0.  0.
          2    1    1    2  501    0 -0.90378234531E+01 -0.11012677105E+03 -0.88787017240E+02  0.14174880029E+03  0.00000000000E+00 0. -1.
          1    1    1    2  502    0  0.31584458782E+03 -0.10370004541E+03  0.59933605550E+03  0.68535772447E+03  0.00000000000E+00 0. -1.
         22    1    3    3    0    0 -0.54860485006E+02  0.72890309773E+02  0.16987543712E+02  0.92796803368E+02  0.00000000000E+00 0. -1.
         22    1    3    3    0    0 -0.25194627936E+03  0.14093650668E+03 -0.13571581546E+03  0.31899656607E+03  0.00000000000E+00 0. -1.
</event>
<event>
 7    1  0.2895750E-005  0.5936044E+02  0.7818608E-02  0.1452864E+00
          2   -1    0    0  502    0  0.00000000000E+00  0.00000000000E+00  0.97259583047E+03  0.97259583047E+03  0.00000000000E+00 0. -1.
          1   -1    0    0  501    0 -0.00000000000E+00 -0.00000000000E+00 -0.78359727331E+03  0.78359727331E+03  0.00000000000E+00 0. -1.
         25    2    1    2    0    0  0.96189448707E+02 -0.51680126808E+01 -0.19338003743E+03  0.24959857649E+03  0.12499796842E+03 0.  0.
          2    1    1    2  501    0 -0.38756188135E+02 -0.92395122399E+01 -0.56047203581E+03  0.56188638854E+03  0.00000000000E+00 0. -1.
          1    1    1    2  502    0 -0.57433260573E+02  0.14407524921E+02  0.94285063040E+03  0.94470813876E+03  0.00000000000E+00 0. -1.
         22    1    3    3    0    0  0.37224464051E+02 -0.66421017830E+01 -0.18640814031E+03  0.19020455571E+03  0.00000000000E+00 0. -1.
         22    1    3    3    0    0  0.58964984656E+02  0.14740891022E+01 -0.69718971250E+01  0.59394020774E+02  0.00000000000E+00 0. -1.
</event>
<event>
 7    1  0.2895750E-005  0.2650842E+03  0.7818608E-02  0.1152277E+00
          2   -1    0    0  502    0  0.00000000000E+00  0.00000000000E+00  0.45094019039E+03  0.45094019039E+03  0.00000000000E+00 0. -1.
          1   -1    0    0  501    0 -0.00000000000E+00 -0.00000000000E+00 -0.36986427686E+03  0.36986427686E+03  0.00000000000E+00 0. -1.
         25    2    1    2    0    0  0.20940546278E+03 -0.16636578082E+03 -0.89037363228E+02  0.30834969550E+03  0.12499464705E+03 0.  0.
          2    1    1    2  501    0 -0.28136336751E+03  0.38831861359E+02 -0.51397397685E+01  0.28407688213E+03  0.00000000000E+00 0. -1.
          1    1    1    2  502    0  0.71957904732E+02  0.12753391946E+03  0.17525301652E+03  0.22837788962E+03  0.00000000000E+00 0. -1.
         22    1    3    3    0    0  0.58586178177E+02 -0.27921242420E+02 -0.80555953821E+02  0.10344659370E+03  0.00000000000E+00 0. -1.
         22    1    3    3    0    0  0.15081928460E+03 -0.13844453840E+03 -0.84814094068E+01  0.20490310180E+03  0.00000000000E+00 0. -1.
</event>
<event>
 7    1  0.2895750E-005  0.6575305E+02  0.7818608E-02  0.1390434E+00
          2   -1    0    0  502    0  0.00000000000E+00  0.00000000000E+00  0.21046583309E+04  0.21046583309E+04  0.00000000000E+00 0. -1.
          1   -1    0    0  501    0 -0.00000000000E+00 -0.00000000000E+00 -0.32669098184E+03  0.32669098184E+03  0.00000000000E+00 0. -1.
         25    2    1    2    0    0 -0.67790583335E+02 -0.22678364730E+02  0.41785142010E+02  0.14993835155E+03  0.12500255900E+03 0.  0.
          2    1    1    2  501    0  0.11444056771E+02  0.56943972747E+02 -0.26897239292E+03  0.27517218359E+03  0.00000000000E+00 0. -1.
          1    1    1    2  502    0  0.56346526564E+02 -0.34265608018E+02  0.20051546000E+04  0.20062387776E+04  0.00000000000E+00 0. -1.
         22    1    3    3    0    0 -0.92289531289E+02 -0.16428263532E+02 -0.80202992882E+01  0.94082786039E+02  0.00000000000E+00 0.  1.
         22    1    3    3    0    0  0.24498947954E+02 -0.62501011972E+01  0.49805441299E+02  0.55855565513E+02  0.00000000000E+00 0.  1.
</event>
<event>
 7    1  0.2895750E-005  0.3621994E+03  0.7818608E-02  0.1256463E+00
          2   -1    0    0  502    0  0.00000000000E+00  0.00000000000E+00  0.12603573326E+04  0.12603573326E+04  0.00000000000E+00 0. -1.
          1   -1    0    0  501    0 -0.00000000000E+00 -0.00000000000E+00 -0.77701307157E+03  0.77701307157E+03  0.00000000000E+00 0. -1.
         25    2    1    2    0    0  0.34864954834E+03  0.76203635760E+02 -0.26809449486E+03  0.46353352277E+03  0.12500066759E+03 0.  0.
          2    1    1    2  501    0 -0.35020506522E+03 -0.11095521597E+03 -0.32881372118E+03  0.49302445263E+03  0.00000000000E+00 0. -1.
          1    1    1    2  502    0  0.15555168755E+01  0.34751580213E+02  0.10802524771E+04  0.10808124288E+04  0.00000000000E+00 0. -1.
         22    1    3    3    0    0  0.10091599098E+03 -0.34649930962E+02 -0.72828140978E+02  0.12918433755E+03  0.00000000000E+00 0.  1.
         22    1    3    3    0    0  0.24773355736E+03  0.11085356672E+03 -0.19526635388E+03  0.33434918522E+03  0.00000000000E+00 0.  1.
</event>
<event>
 7    1  0.2895750E-005  0.2874353E+03  0.7818608E-02  0.1098908E+00
          2   -1    0    0  502    0  0.00000000000E+00  0.00000000000E+00  0.27162177639E+04  0.27162177639E+04  0.00000000000E+00 0. -1.
          1   -1    0    0  501    0 -0.00000000000E+00 -0.00000000000E+00 -0.17212364085E+04  0.17212364085E+04  0.00000000000E+00 0. -1.
         25    2    1    2    0    0 -0.45719535339E+03 -0.31378692403E+00 -0.58540933641E+03  0.75323084031E+03  0.12499967206E+03 0.  0.
          2    1    1    2  501    0  0.22916140440E+03  0.12840063934E+03 -0.10288769905E+04  0.10618801887E+04  0.00000000000E+00 0. -1.
          1    1    1    2  502    0  0.22803394899E+03 -0.12808685242E+03  0.26092676824E+04  0.26223431434E+04  0.00000000000E+00 0. -1.
         22    1    3    3    0    0 -0.32286551005E+03  0.45376199294E+02 -0.34970984120E+03  0.47811934710E+03  0.00000000000E+00 0.  1.
         22    1    3    3    0    0 -0.13432984334E+03 -0.45689986218E+02 -0.23569949521E+03  0.27511149321E+03  0.00000000000E+00 0.  1.
</event>
<event>
 7    1  0.2895750E-005  0.2087415E+03  0.7818608E-02  0.1162729E+00
          2   -1    0    0  502    0  0.00000000000E+00  0.00000000000E+00  0.32680159969E+04  0.32680159969E+04  0.00000000000E+00 0. -1.
          1   -1    0    0  501    0 -0.00000000000E+00 -0.00000000000E+00 -0.72945550518E+03  0.72945550518E+03  0.00000000000E+00 0. -1.
         25    2    1    2    0    0  0.23275889956E+03  0.59232047267E+02  0.20901802630E+03  0.34204458759E+03  0.12498329422E+03 0.  0.
          2    1    1    2  501    0 -0.46974790011E+02 -0.15772290490E+03 -0.64896490390E+03  0.66950623008E+03  0.00000000000E+00 0. -1.
          1    1    1    2  502    0 -0.18578410955E+03  0.98490857635E+02  0.29785073694E+04  0.29859206844E+04  0.00000000000E+00 0. -1.
         22    1    3    3    0    0  0.29050524551E+02 -0.29711111222E+02  0.65135456786E+02  0.77261315271E+02  0.00000000000E+00 0. -1.
         22    1    3    3    0    0  0.20370837501E+03  0.88943158489E+02  0.14388256951E+03  0.26478327232E+03  0.00000000000E+00 0. -1.
</event>
<event>
 7    1  0.2895750E-005  0.2492457E+03  0.7818608E-02  0.1180087E+00
          2   -1    0    0  502    0  0.00000000000E+00  0.00000000000E+00  0.11305431150E+04  0.11305431150E+04  0.00000000000E+00 0. -1.
          1   -1    0    0  501    0 -0.00000000000E+00 -0.00000000000E+00 -0.13717222847E+04  0.13717222847E+04  0.00000000000E+00 0. -1.
         25    2    1    2    0    0  0.22235278468E+03 -0.26657010375E+03  0.28399266504E+03  0.46559373685E+03  0.12500125171E+03 0.  0.
          2    1    1    2  501    0 -0.18831919892E+03  0.15875029433E+03 -0.12647453966E+04  0.12885056053E+04  0.00000000000E+00 0. -1.
          1    1    1    2  502    0 -0.34033585762E+02  0.10781980942E+03  0.73957356191E+03  0.74816605760E+03  0.00000000000E+00 0. -1.
         22    1    3    3    0    0  0.20467529013E+03 -0.23653602115E+03  0.29406223441E+03  0.42931790249E+03  0.00000000000E+00 0.  1.
         22    1    3    3    0    0  0.17677494547E+02 -0.30034082596E+02 -0.10069569373E+02  0.36275834356E+02  0.00000000000E+00 0.  1.
</event>
<event>
 7    1  0.2895750E-005  0.5397450E+02  0.7818608E-02  0.1492490E+00
          2   -1    0    0  502    0  0.00000000000E+00  0.00000000000E+00  0.25850232987E+02  0.25850232987E+02  0.00000000000E+00 0. -1.
          1   -1    0    0  501    0 -0.00000000000E+00 -0.00000000000E+00 -0.96828933614E+03  0.96828933614E+03  0.00000000000E+00 0. -1.
         25    2    1    2    0    0  0.17332805309E+02 -0.78713401799E+02 -0.38186166326E+03  0.40980531831E+03  0.12500337311E+03 0.  0.
          2    1    1    2  501    0  0.35593555273E+01  0.32831329442E+02 -0.51594709254E+03  0.51700286992E+03  0.00000000000E+00 0. -1.
          1    1    1    2  502    0 -0.20892160836E+02  0.45882072357E+02 -0.44630347353E+02  0.67331380894E+02  0.00000000000E+00 0. -1.
         22    1    3    3    0    0  0.28832811118E+02 -0.10716682944E+03 -0.23656116782E+03  0.26129915126E+03  0.00000000000E+00 0. -1.
         22    1    3    3    0    0 -0.11500005809E+02  0.28453427638E+02 -0.14530049544E+03  0.14850616706E+03  0.00000000000E+00 0. -1.
</event>
<event>
 7    1  0.2895750E-005  0.1471571E+03  0.7818608E-02  0.1346943E+00
          2   -1    0    0  502    0  0.00000000000E+00  0.00000000000E+00  0.63822751289E+03  0.63822751289E+03  0.00000000000E+00 0. -1.
          1   -1    0    0  501    0 -0.00000000000E+00 -0.00000000000E+00 -0.18526783079E+04  0.18526783079E+04  0.00000000000E+00 0. -1.
         25    2    1    2    0    0 -0.69907165232E+01 -0.15617343965E+03 -0.83540236830E+03  0.85904647724E+03  0.12499887886E+03 0.  0.
          2    1    1    2  501    0 -0.27352786301E+02  0.14180266863E+03 -0.99970747194E+03  0.10100847495E+04  0.00000000000E+00 0. -1.
          1    1    1    2  502    0  0.34343502825E+02  0.14370771023E+02  0.62065904528E+03  0.62177459399E+03  0.00000000000E+00 0. -1.
         22    1    3    3    0    0  0.10196184891E+02 -0.16966487207E+03 -0.79644607482E+03  0.81438104171E+03  0.00000000000E+00 0.  1.
         22    1    3    3    0    0 -0.17186901414E+02  0.13491432419E+02 -0.38956293489E+02  0.44665435533E+02  0.00000000000E+00 0.  1.
</event>
<event>
 7    1  0.2895750E-005  0.4763542E+03  0.7818608E-02  0.1137125E+00
          2   -1    0    0  502    0  0.00000000000E+00  0.00000000000E+00  0.14180750734E+04  0.14180750734E+04  0.00000000000E+00 0. -1.
          1   -1    0    0  501    0 -0.00000000000E+00 -0.00000000000E+00 -0.26946031361E+03  0.26946031361E+03  0.00000000000E+00 0. -1.
         25    2    1    2    0    0  0.19340794037E+02 -0.45590546463E+03  0.35792326580E+03  0.59326072282E+03  0.12500144815E+03 0.  0.
          2    1    1    2  501    0 -0.11257188996E+03  0.48504341833E+03  0.27382658637E+03  0.56826098535E+03  0.00000000000E+00 0. -1.
          1    1    1    2  502    0  0.93231095920E+02 -0.29137953693E+02  0.51686490765E+03  0.52601367886E+03  0.00000000000E+00 0. -1.
         22    1    3    3    0    0  0.33652336251E+01 -0.34552250125E+03  0.33106224345E+03  0.47853874733E+03  0.00000000000E+00 0.  1.
         22    1    3    3    0    0  0.15975560412E+02 -0.11038296339E+03  0.26861022353E+02  0.11472197548E+03  0.00000000000E+00 0.  1.
</event>
<event>
 7    1  0.2895750E-005  0.7053673E+02  0.7818608E-02  0.1419357E+00
          2   -1    0    0  502    0  0.00000000000E+00  0.00000000000E+00  0.14788454031E+04  0.14788454031E+04  0.00000000000E+00 0. -1.
          1   -1    0    0  501    0 -0.00000000000E+00 -0.00000000000E+00 -0.20665438893E+03  0.20665438893E+03  0.00000000000E+00 0. -1.
         25    2    1    2    0    0  0.95284523548E+02  0.26569636864E+02  0.38460641049E+02  0.16398086480E+03  0.12500166830E+03 0.  0.
          2    1    1    2  501    0 -0.54810688161E+02 -0.41474355495E+02 -0.13532724747E+03  0.15178207275E+03  0.00000000000E+00 0. -1.
          1    1    1    2  502    0 -0.40473835386E+02  0.14904718631E+02  0.13690576206E+04  0.13697368545E+04  0.00000000000E+00 0. -1.
         22    1    3    3    0    0  0.27439446361E+02 -0.49501538044E+02  0.22032949244E+02  0.60735297297E+02  0.00000000000E+00 0.  1.
         22    1    3    3    0    0  0.67845077186E+02  0.76071174908E+02  0.16427691805E+02  0.10324556750E+03  0.00000000000E+00 0.  1.
</event>
<event>
 7    1  0.2895750E-005  0.1121731E+03  0.7818608E-02  0.1379921E+00
          2   -1    0    0  502    0  0.00000000000E+00  0.00000000000E+00  0.15952761241E+04  0.15952761241E+04  0.00000000000E+00 0. -1.
          1   -1    0    0  501    0 -0.00000000000E+00 -0.00000000000E+00 -0.47528106697E+02  0.47528106697E+02  0.00000000000E+00 0. -1.
         25    2    1    2    0    0  0.11623008891E+03 -0.38445969666E+02  0.11606584333E+04  0.11737722228E+04  0.12500282476E+03 0.  0.
          2    1    1    2  501    0 -0.11182708579E+03  0.16383223161E+01  0.38206591070E+02  0.11818512942E+03  0.00000000000E+00 0. -1.
          1    1    1    2  502    0 -0.44030031257E+01  0.36807647350E+02  0.34888299304E+03  0.35084687853E+03  0.00000000000E+00 0. -1.
         22    1    3    3    0    0  0.15103356908E+02  0.18720833477E+02  0.63392189173E+03  0.63437807798E+03  0.00000000000E+00 0.  1.
         22    1    3    3    0    0  0.10112673200E+03 -0.57166803143E+02  0.52673654156E+03  0.53939414487E+03  0.00000000000E+00 0.  1.
</event>
<event>
 7    1  0.2895750E-005  0.1003184E+03  0.7818608E-02  0.1402303E+00
          2   -1    0    0  502    0  0.00000000000E+00  0.00000000000E+00  0.13673924156E+04  0.13673924156E+04  0.00000000000E+00 0. -1.
          1   -1    0    0  501    0 -0.00000000000E+00 -0.00000000000E+00 -0.11066979244E+03  0.11066979244E+03  0.00000000000E+00 0. -1.
         25    2    1    2    0    0 -0.10781265308E+03 -0.49923464041E+02  0.44242787812E+02  0.17804097770E+03  0.12500098016E+03 0.  0.
          2    1    1    2  501    0  0.73788131190E+02  0.56412042211E+02  0.60331534423E+01  0.93077418053E+02  0.00000000000E+00 0. -1.
          1    1    1    2  502    0  0.34024521892E+02 -0.64885781701E+01  0.12064466819E+04  0.12069438123E+04  0.00000000000E+00 0. -1.
         22    1    3    3    0    0 -0.89407158499E+02 -0.52326934084E+02  0.84515849032E+02  0.13369621071E+03  0.00000000000E+00 0. -1.
         22    1    3    3    0    0 -0.18405494583E+02  0.24034700426E+01 -0.40273061220E+02  0.44344766987E+02  0.00000000000E+00 0. -1.
</event>
<event>
 7    1  0.2895750E-005  0.1042307E+03  0.7818608E-02  0.1290577E+00
          2   -1    0    0  502    0  0.00000000000E+00  0.00000000000E+00  0.18048601322E+04  0.18048601322E+04  0.00000000000E+00 0. -1.
          1   -1    0    0  501    0 -0.00000000000E+00 -0.00000000000E+00 -0.11181215606E+03  0.11181215606E+03  0.00000000000E+00 0. -1.
         25    2    1    2    0    0 -0.10714758033E+01  0.40040008966E+02  0.11149052233E+03  0.17223456463E+03  0.12502103146E+03 0.  0.
          2    1    1    2  501    0 -0.55508551188E+01 -0.12686104571E+03 -0.30041974476E+02  0.13048776625E+03  0.00000000000E+00 0. -1.
          1    1    1    2  502    0  0.66223309221E+01  0.86821036744E+02  0.16115994283E+04  0.16139499574E+04  0.00000000000E+00 0. -1.
         22    1    3    3    0    0  0.55251598139E+02 -0.97500064282E+01  0.47602926415E+02  0.73578803507E+02  0.00000000000E+00 0. -1.
         22    1    3    3    0    0 -0.56323073943E+02  0.49790015394E+02  0.63887595918E+02  0.98655761126E+02  0.00000000000E+00 0. -1.
</event>
<event>
 7    1  0.2895750E-005  0.1278233E+03  0.7818608E-02  0.1354024E+00
          2   -1    0    0  502    0  0.00000000000E+00  0.00000000000E+00  0.27162912355E+04  0.27162912355E+04  0.00000000000E+00 0. -1.
          1   -1    0    0  501    0 -0.00000000000E+00 -0.00000000000E+00 -0.12523001609E+03  0.12523001609E+03  0.00000000000E+00 0. -1.
         25    2    1    2    0    0 -0.15892332660E+03  0.41918346026E+02  0.53716166642E+03  0.57548309516E+03  0.12499746185E+03 0.  0.
          2    1    1    2  501    0  0.12328462497E+03 -0.22999437048E+02 -0.68740167124E+02  0.14301497626E+03  0.00000000000E+00 0. -1.
          1    1    1    2  502    0  0.35638701633E+02 -0.18918908977E+02  0.21226397201E+04  0.21230231802E+04  0.00000000000E+00 0. -1.
         22    1    3    3    0    0 -0.26093911868E+02 -0.41118072065E+02  0.10317820165E+03  0.11409351157E+03  0.00000000000E+00 0. -1.
         22    1    3    3    0    0 -0.13282941474E+03  0.83036418091E+02  0.43398346478E+03  0.46138958359E+03  0.00000000000E+00 0. -1.
</event>
<event>
 7    1  0.2895750E-005  0.2727940E+03  0.7818608E-02  0.1276251E+00
          2   -1    0    0  502    0  0.00000000000E+00  0.00000000000E+00  0.10340672287E+04  0.10340672287E+04  0.00000000000E+00 0. -1.
          1   -1    0    0  501    0 -0.00000000000E+00 -0.00000000000E+00 -0.25238562381E+03  0.25238562381E+03  0.00000000000E+00 0. -1.
         25    2    1    2    0    0 -0.25085985454E+03 -0.13708717978E+03  0.11563008007E+03  0.33274379001E+03  0.12499821156E+03 0.  0.
          2    1    1    2  501    0 -0.81789998435E+00  0.38091285151E+02 -0.11817189946E+03  0.12416204246E+03  0.00000000000E+00 0. -1.
          1    1    1    2  502    0  0.25167775452E+03  0.98995894628E+02  0.78422342426E+03  0.82954702003E+03  0.00000000000E+00 0. -1.
         22    1    3    3    0    0 -0.12891979140E+03 -0.24784105184E+01  0.63804062825E+02  0.14386595694E+03  0.00000000000E+00 0. -1.
         22    1    3    3    0    0 -0.12194006313E+03 -0.13460876926E+03  0.51826017243E+02  0.18887783306E+03  0.00000000000E+00 0. -1.
</event>
<event>
 7    1  0.2904904E-005  0.6593681E+02  0.7818608E-02  0.1385552E+00
          2   -1    0    0  502    0  0.00000000000E+00  0.00000000000E+00  0.19630968484E+04  0.19630968484E+04  0.00000000000E+00 0. -1.
          1   -1    0    0  501    0 -0.00000000000E+00 -0.00000000000E+00 -0.43930727115E+03  0.43930727115E+03  0.00000000000E+00 0. -1.
         25    2    1    2    0    0 -0.57062998169E+02 -0.95312298954E+02  0.13947059598E+02  0.16780999408E+03  0.12500021420E+03 0.  0.
          2    1    1    2  501    0  0.15324774988E+01  0.60225293220E+02 -0.35929096926E+03  0.36430678696E+03  0.00000000000E+00 0. -1.
          1    1    1    2  502    0  0.55530520670E+02  0.35087005735E+02  0.18691334869E+04  0.18702873385E+04  0.00000000000E+00 0. -1.
         22    1    3    3    0    0  0.26466036838E+02 -0.70809833590E+02  0.25979119703E+02  0.79933711909E+02  0.00000000000E+00 0. -1.
         22    1    3    3    0    0 -0.83529035007E+02 -0.24502465364E+02 -0.12032060105E+02  0.87876282173E+02  0.00000000000E+00 0. -1.
</event>
<event>
 7    1  0.2895750E-005  0.5583117E+03  0.7818608E-02  0.1245371E+00
          2   -1    0    0  502    0  0.00000000000E+00  0.00000000000E+00  0.13440246912E+04  0.13440246912E+04  0.00000000000E+00 0. -1.
          1   -1    0    0  501    0 -0.00000000000E+00 -0.00000000000E+00 -0.75704567854E+03  0.75704567854E+03  0.00000000000E+00 0. -1.
         25    2    1    2    0    0 -0.20279058174E+03 -0.54105331277E+03 -0.20310746580E+03  0.62509243052E+03  0.12500078690E+03 0.  0.
          2    1    1    2  501    0 -0.20897142376E+01  0.25120499998E+02 -0.27433810703E+03  0.27549374475E+03  0.00000000000E+00 0. -1.
          1    1    1    2  502    0  0.20488029598E+03  0.51593281277E+03  0.10644245855E+04  0.12004841945E+04  0.00000000000E+00 0. -1.
         22    1    3    3    0    0  0.15628813998E+02 -0.67490166620E+02 -0.31252464513E+02  0.75999335230E+02  0.00000000000E+00 0. -1.
         22    1    3    3    0    0 -0.21841939574E+03 -0.47356314615E+03 -0.17185500129E+03  0.54909309529E+03  0.00000000000E+00 0. -1.
</event>
<event>
 7    1  0.2895750E-005  0.1330310E+03  0.7818608E-02  0.1375746E+00
          2   -1    0    0  502    0  0.00000000000E+00  0.00000000000E+00  0.10763776939E+04  0.10763776939E+04  0.00000000000E+00 0. -1.
          1   -1    0    0  501    0 -0.00000000000E+00 -0.00000000000E+00 -0.62278003401E+03  0.62278003401E+03  0.00000000000E+00 0. -1.
         25    2    1    2    0    0 -0.10639501415E+03 -0.86713385018E+02  0.20060585579E+03  0.27332538827E+03  0.12499979327E+03 0.  0.
          2    1    1    2  501    0 -0.13512562867E+02  0.29386087215E+02 -0.58070652615E+03  0.58160656890E+03  0.00000000000E+00 0. -1.
          1    1    1    2  502    0  0.11990757702E+03  0.57327297803E+02  0.83369833030E+03  0.84422577078E+03  0.00000000000E+00 0. -1.
         22    1    3    3    0    0  0.52958629011E+01 -0.13216929381E+02  0.11205859934E+03  0.11295956388E+03  0.00000000000E+00 0.  1.
         22    1    3    3    0    0 -0.11169087705E+03 -0.73496455637E+02  0.88547256450E+02  0.16036582439E+03  0.00000000000E+00 0.  1.
</event>
<event>
 7    1  0.2895750E-005  0.8546997E+03  0.7818608E-02  0.1200280E+00
          2   -1    0    0  502    0  0.00000000000E+00  0.00000000000E+00  0.16691638407E+04  0.16691638407E+04  0.00000000000E+00 0. -1.
          1   -1    0    0  501    0 -0.00000000000E+00 -0.00000000000E+00 -0.76099239976E+03  0.76099239976E+03  0.00000000000E+00 0. -1.
         25    2    1    2    0    0  0.68672269708E+03  0.49715350290E+03  0.34791645687E+03  0.92488934959E+03  0.12499911958E+03 0.  0.
          2    1    1    2  501    0 -0.68150867844E+03 -0.52301327761E+03 -0.81541271577E+02  0.86292870292E+03  0.00000000000E+00 0. -1.
          1    1    1    2  502    0 -0.52140186365E+01  0.25859774710E+02  0.64179625560E+03  0.64233818791E+03  0.00000000000E+00 0. -1.
         22    1    3    3    0    0  0.60855996199E+03  0.39412668042E+03  0.26865982424E+03  0.77321353371E+03  0.00000000000E+00 0.  1.
         22    1    3    3    0    0  0.78162735091E+02  0.10302682248E+03  0.79256632627E+02  0.15167581588E+03  0.00000000000E+00 0.  1.
</event>
<event>
 7    1  0.2895750E-005  0.7847385E+02  0.7818608E-02  0.1439739E+00
          2   -1    0    0  502    0  0.00000000000E+00  0.00000000000E+00  0.15874710678E+03  0.15874710678E+03  0.00000000000E+00 0. -1.
          1   -1    0    0  501    0 -0.00000000000E+00 -0.00000000000E+00 -0.39954799401E+03  0.39954799401E+03  0.00000000000E+00 0. -1.
         25    2    1    2    0    0 -0.46645555097E+02 -0.25567095542E+01  0.82579190050E+02  0.15693020151E+03  0.12500168376E+03 0.  0.
          2    1    1    2  501    0  0.79058975955E+02  0.98093687489E+01 -0.34990438760E+03  0.35885878261E+03  0.00000000000E+00 0. -1.
          1    1    1    2  502    0 -0.32413420858E+02 -0.72526591947E+01  0.26524310322E+02  0.42506116679E+02  0.00000000000E+00 0. -1.
         22    1    3    3    0    0 -0.25495527629E+02  0.21483930442E+02  0.10989542785E+03  0.11484157025E+03  0.00000000000E+00 0. -1.
         22    1    3    3    0    0 -0.21150027469E+02 -0.24040639996E+02 -0.27316237799E+02  0.42088631254E+02  0.00000000000E+00 0. -1.
</event>
<event>
 7    1  0.2895750E-005  0.2758441E+03  0.7818608E-02  0.1177452E+00
          2   -1    0    0  502    0  0.00000000000E+00  0.00000000000E+00  0.27424118783E+04  0.27424118783E+04  0.00000000000E+00 0. -1.
          1   -1    0    0  501    0 -0.00000000000E+00 -0.00000000000E+00 -0.37280941887E+03  0.37280941887E+03  0.00000000000E+00 0. -1.
         25    2    1    2    0    0 -0.30817765704E+03  0.11113966846E+03  0.11311179927E+04  0.11842205054E+04  0.12499919125E+03 0.  0.
          2    1    1    2  501    0  0.97775595904E+02  0.38924333820E+02 -0.32741827045E+03  0.34391553432E+03  0.00000000000E+00 0. -1.
          1    1    1    2  502    0  0.21040206114E+03 -0.15006400228E+03  0.15659027372E+04  0.15870852575E+04  0.00000000000E+00 0. -1.
         22    1    3    3    0    0 -0.10767608818E+03 -0.14848510579E+02  0.45607497870E+03  0.46884859435E+03  0.00000000000E+00 0. -1.
         22    1    3    3    0    0 -0.20050156886E+03  0.12598817904E+03  0.67504301403E+03  0.71537191108E+03  0.00000000000E+00 0. -1.
</event>
<event>
 7    1  0.2895750E-005  0.3871970E+03  0.7818608E-02  0.1139047E+00
          2   -1    0    0  502    0  0.00000000000E+00  0.00000000000E+00  0.21162917458E+04  0.21162917458E+04  0.00000000000E+00 0. -1.
          1   -1    0    0  501    0 -0.00000000000E+00 -0.00000000000E+00 -0.20890126047E+03  0.20890126047E+03  0.00000000000E+00 0. -1.
         25    2    1    2    0    0  0.25287405494E+03 -0.36385128260E+03  0.52538637862E+03  0.69856209140E+03  0.12500042074E+03 0.  0.
          2    1    1    2  501    0 -0.26811771184E+03  0.24743892834E+03  0.15897190508E+03  0.39797637777E+03  0.00000000000E+00 0. -1.
          1    1    1    2  502    0  0.15243656892E+02  0.11641235426E+03  0.12230322017E+04  0.12286545371E+04  0.00000000000E+00 0. -1.
         22    1    3    3    0    0  0.20685517108E+03 -0.34799698465E+03  0.42475409292E+03  0.58677679111E+03  0.00000000000E+00 0.  1.
         22    1    3    3    0    0  0.46018883870E+02 -0.15854297945E+02  0.10063228570E+03  0.11178530029E+03  0.00000000000E+00 0.  1.
</event>
<event>
 7    1  0.2895750E-005  0.9266252E+02  0.7818608E-02  0.1442652E+00
          2   -1    0    0  502    0  0.00000000000E+00  0.00000000000E+00  0.19011165501E+04  0.19011165501E+04  0.00000000000E+00 0. -1.
          1   -1    0    0  501    0 -0.00000000000E+00 -0.00000000000E+00 -0.16723146995E+03  0.16723146995E+03  0.00000000000E+00 0. -1.
         25    2    1    2    0    0  0.65504220187E+02 -0.12144373902E+01  0.11916431872E+04  0.11999713141E+04  0.12500156552E+03 0.  0.
          2    1    1    2  501    0 -0.92871293986E+02  0.41520761184E+01 -0.14952184407E+03  0.17606560946E+03  0.00000000000E+00 0. -1.
          1    1    1    2  502    0  0.27367073799E+02 -0.29376387282E+01  0.69176373699E+03  0.69231109645E+03  0.00000000000E+00 0. -1.
         22    1    3    3    0    0  0.85328268875E+02 -0.25973522738E+02  0.52109230465E+03  0.52867071729E+03  0.00000000000E+00 0. -1.
         22    1    3    3    0    0 -0.19824048688E+02  0.24759085348E+02  0.67055088258E+03  0.67130059686E+03  0.00000000000E+00 0. -1.
</event>
<event>
 7    1  0.2895750E-005  0.3820906E+03  0.7818608E-02  0.1059066E+00
          2   -1    0    0  502    0  0.00000000000E+00  0.00000000000E+00  0.60210166562E+03  0.60210166562E+03  0.00000000000E+00 0. -1.
          1   -1    0    0  501    0 -0.00000000000E+00 -0.00000000000E+00 -0.22553132748E+04  0.22553132748E+04  0.00000000000E+00 0. -1.
         25    2    1    2    0    0 -0.38235436696E+03  0.38100878352E+03 -0.10129439289E+03  0.56324670140E+03  0.12499495011E+03 0.  0.
          2    1    1    2  501    0  0.37501544423E+03 -0.44185949857E+02 -0.18230298680E+04  0.18617268546E+04  0.00000000000E+00 0. -1.
          1    1    1    2  502    0  0.73389227244E+01 -0.33682283367E+03  0.27111265169E+03  0.43244138443E+03  0.00000000000E+00 0. -1.
         22    1    3    3    0    0  0.36132689209E+01 -0.16150557797E+01 -0.11800109521E+02  0.12446152103E+02  0.00000000000E+00 0. -1.
         22    1    3    3    0    0 -0.38596763588E+03  0.38262383930E+03 -0.89494283366E+02  0.55080054929E+03  0.00000000000E+00 0. -1.
</event>
<event>
 7    1  0.2895750E-005  0.3771368E+03  0.7818608E-02  0.1277095E+00
          2   -1    0    0  502    0  0.00000000000E+00  0.00000000000E+00  0.13872606552E+04  0.13872606552E+04  0.00000000000E+00 0. -1.
          1   -1    0    0  501    0 -0.00000000000E+00 -0.00000000000E+00 -0.54803141891E+03  0.54803141891E+03  0.00000000000E+00 0. -1.
         25    2    1    2    0    0  0.16947002201E+03  0.34739256409E+03  0.44747207139E+03  0.60436575575E+03  0.12500012042E+03 0.  0.
          2    1    1    2  501    0 -0.14213912769E+03 -0.34798880682E+03 -0.39408287679E+03  0.54461092082E+03  0.00000000000E+00 0. -1.
          1    1    1    2  502    0 -0.27330894320E+02  0.59624272848E+00  0.78584004168E+03  0.78631539753E+03  0.00000000000E+00 0. -1.
         22    1    3    3    0    0 -0.69680865694E+01 -0.58222363345E+01  0.22617589503E+02  0.24372279772E+02  0.00000000000E+00 0. -1.
         22    1    3    3    0    0  0.17643810858E+03  0.35321480043E+03  0.42485448189E+03  0.57999347598E+03  0.00000000000E+00 0. -1.
</event>
<event>
 7    1  0.2895750E-005  0.7574249E+02  0.7818608E-02  0.1348457E+00
          2   -1    0    0  502    0  0.00000000000E+00  0.00000000000E+00  0.27098752885E+03  0.27098752885E+03  0.00000000000E+00 0. -1.
          1   -1    0    0  501    0 -0.00000000000E+00 -0.00000000000E+00 -0.67407928096E+03  0.67407928096E+03  0.00000000000E+00 0. -1.
         25    2    1    2    0    0 -0.74030861354E+01 -0.11244286865E+03 -0.11195579800E+03  0.20213406933E+03  0.12500350749E+03 0.  0.
          2    1    1    2  501    0 -0.43212503605E+02  0.56837486061E+02 -0.50821185964E+03  0.51320280063E+03  0.00000000000E+00 0. -1.
          1    1    1    2  502    0  0.50615589741E+02  0.55605382586E+02  0.21707590553E+03  0.22972993984E+03  0.00000000000E+00 0. -1.
         22    1    3    3    0    0  0.49493156066E+01 -0.15765405953E+02  0.27448217976E+02  0.32038233720E+02  0.00000000000E+00 0. -1.
         22    1    3    3    0    0 -0.12352401742E+02 -0.96677462694E+02 -0.13940401598E+03  0.17009583561E+03  0.00000000000E+00 0. -1.
</event>
<event>
 7    1  0.2895750E-005  0.1645167E+03  0.7818608E-02  0.1274655E+00
          2   -1    0    0  502    0  0.00000000000E+00  0.00000000000E+00  0.28335070067E+04  0.28335070067E+04  0.00000000000E+00 0. -1.
          1   -1    0    0  501    0 -0.00000000000E+00 -0.00000000000E+00 -0.14690868612E+03  0.14690868612E+03  0.00000000000E+00 0. -1.
         25    2    1    2    0    0  0.19601213673E+02 -0.21383568853E+03  0.11185536374E+04  0.11458172476E+04  0.12500006321E+03 0.  0.
          2    1    1    2  501    0  0.56884845583E+01  0.63897133874E+02 -0.12194128841E+03  0.13778563203E+03  0.00000000000E+00 0. -1.
          1    1    1    2  502    0 -0.25289698231E+02  0.14993855465E+03  0.16899859715E+04  0.16968128132E+04  0.00000000000E+00 0. -1.
         22    1    3    3    0    0 -0.31209195447E+02 -0.12520897032E+03  0.82418940100E+03  0.83422986571E+03  0.00000000000E+00 0. -1.
         22    1    3    3    0    0  0.50810409120E+02 -0.88626718201E+02  0.29436423641E+03  0.31158738185E+03  0.00000000000E+00 0. -1.
</event>
<event>
 7    1  0.2895750E-005  0.1965607E+03  0.7818608E-02  0.1164691E+00
          2   -1    0    0  502    0  0.00000000000E+00  0.00000000000E+00  0.24167639643E+03  0.24167639643E+03  0.00000000000E+00 0. -1.
          1   -1    0    0  501    0 -0.00000000000E+00 -0.00000000000E+00 -0.14324484837E+04  0.14324484837E+04  0.00000000000E+00 0. -1.
         25    2    1    2    0    0 -0.30473061085E+03 -0.66812951405E+01 -0.31426593486E+03  0.45528992065E+03  0.12498179521E+03 0.  0.
          2    1    1    2  501    0  0.14129184717E+03  0.96049311861E+02 -0.98738460578E+03  0.10020564935E+04  0.00000000000E+00 0. -1.
          1    1    1    2  502    0  0.16343876368E+03 -0.89368016720E+02  0.11087845340E+03  0.21677846598E+03  0.00000000000E+00 0. -1.
         22    1    3    3    0    0 -0.13276631373E+03  0.52790618366E+02 -0.10111798529E+03  0.17503882540E+03  0.00000000000E+00 0.  1.
         22    1    3    3    0    0 -0.17196429713E+03 -0.59471913506E+02 -0.21314794957E+03  0.28025109525E+03  0.00000000000E+00 0.  1.
</event>
<event>
 7    1  0.2895750E-005  0.1016835E+04  0.7818608E-02  0.1063109E+00
          2   -1    0    0  502    0  0.00000000000E+00  0.00000000000E+00  0.45670780885E+03  0.45670780885E+03  0.00000000000E+00 0. -1.
          1   -1    0    0  501    0 -0.00000000000E+00 -0.00000000000E+00 -0.30602091816E+04  0.30602091816E+04  0.00000000000E+00 0. -1.
         25    2    1    2    0    0 -0.25764889624E+03  0.99345639953E+03 -0.11013238523E+04  0.15105922446E+04  0.12504451403E+03 0.  0.
          2    1    1    2  501    0  0.36666249398E+03 -0.94414840535E+03 -0.15703263926E+04  0.18686312036E+04  0.00000000000E+00 0. -1.
          1    1    1    2  502    0 -0.10901359774E+03 -0.49307994184E+02  0.68148872154E+02  0.13769354218E+03  0.00000000000E+00 0. -1.
         22    1    3    3    0    0 -0.19147709479E+03  0.87682061519E+03 -0.92215466019E+03  0.12867972204E+04  0.00000000000E+00 0. -1.
         22    1    3    3    0    0 -0.66171801452E+02  0.11663578434E+03 -0.17916919208E+03  0.22379502427E+03  0.00000000000E+00 0. -1.
</event>
<event>
 7    1  0.2895750E-005  0.2090877E+03  0.7818608E-02  0.1251224E+00
          2   -1    0    0  502    0  0.00000000000E+00  0.00000000000E+00  0.11796839338E+04  0.11796839338E+04  0.00000000000E+00 0. -1.
          1   -1    0    0  501    0 -0.00000000000E+00 -0.00000000000E+00 -0.19615704287E+03  0.19615704287E+03  0.00000000000E+00 0. -1.
         25    2    1    2    0    0  0.42164445459E+02 -0.20058903317E+03  0.37781454287E+03  0.44763919751E+03  0.12499288642E+03 0.  0.
          2    1    1    2  501    0 -0.10345603484E+03  0.18407890065E+03 -0.90043642086E+02  0.22955620290E+03  0.00000000000E+00 0. -1.
          1    1    1    2  502    0  0.61291589385E+02  0.16510132521E+02  0.69575599019E+03  0.69864557631E+03  0.00000000000E+00 0. -1.
         22    1    3    3    0    0  0.71019024184E+02 -0.60411975856E+02  0.11186063254E+03  0.14562317719E+03  0.00000000000E+00 0.  1.
         22    1    3    3    0    0 -0.28854578724E+02 -0.14017705731E+03  0.26595391033E+03  0.30201602032E+03  0.00000000000E+00 0.  1.
</event>
<event>
 7    1  0.2895750E-005  0.1637182E+03  0.7818608E-02  0.1276702E+00
          2   -1    0    0  502    0  0.00000000000E+00  0.00000000000E+00  0.73940156958E+03  0.73940156958E+03  0.00000000000E+00 0. -1.
          1   -1    0    0  501    0 -0.00000000000E+00 -0.00000000000E+00 -0.19897067420E+04  0.19897067420E+04  0.00000000000E+00 0. -1.
         25    2    1    2    0    0 -0.19290259798E+03  0.72245388264E+02 -0.35432318774E+03  0.42848690364E+03  0.12500118715E+03 0.  0.
          2    1    1    2  501    0  0.59542740150E+02  0.21219776040E+02 -0.15882241882E+04  0.15894815786E+04  0.00000000000E+00 0. -1.
          1    1    1    2  502    0  0.13335985783E+03 -0.93465164304E+02  0.69224220348E+03  0.71113982935E+03  0.00000000000E+00 0. -1.
         22    1    3    3    0    0 -0.17228215273E+03  0.12687106100E+02 -0.29541558468E+03  0.34221699328E+03  0.00000000000E+00 0. -1.
         22    1    3    3    0    0 -0.20620445242E+02  0.59558282164E+02 -0.58907603054E+02  0.86269910362E+02  0.00000000000E+00 0. -1.
</event>
<event>
 7    1  0.2895750E-005  0.5518723E+03  0.7818608E-02  0.1104649E+00
          2   -1    0    0  502    0  0.00000000000E+00  0.00000000000E+00  0.15588577331E+04  0.15588577331E+04  0.00000000000E+00 0. -1.
          1   -1    0    0  501    0 -0.00000000000E+00 -0.00000000000E+00 -0.11631438576E+04  0.11631438576E+04  0.00000000000E+00 0. -1.
         25    2    1    2    0    0 -0.52409545544E+03  0.17169032061E+02  0.82559108102E+03  0.98599893885E+03  0.12498980869E+03 0.  0.
          2    1    1    2  501    0 -0.69003841272E+02  0.10599327819E+03 -0.93730587653E+03  0.94580040775E+03  0.00000000000E+00 0. -1.
          1    1    1    2  502    0  0.59309929671E+03 -0.12316231026E+03  0.50742867103E+03  0.79020224412E+03  0.00000000000E+00 0. -1.
         22    1    3    3    0    0 -0.50036160002E+03  0.33544280742E+02  0.81139277502E+03  0.95385805280E+03  0.00000000000E+00 0.  1.
         22    1    3    3    0    0 -0.23733855421E+02 -0.16375248681E+02  0.14198306001E+02  0.32140886046E+02  0.00000000000E+00 0.  1.
</event>
<event>
 7    1  0.2895750E-005  0.7306067E+03  0.7818608E-02  0.1037055E+00
          2   -1    0    0  502    0  0.00000000000E+00  0.00000000000E+00  0.24178450129E+04  0.24178450129E+04  0.00000000000E+00 0. -1.
          1   -1    0    0  501    0 -0.00000000000E+00 -0.00000000000E+00 -0.11457646023E+04  0.11457646023E+04  0.00000000000E+00 0. -1.
         25    2    1    2    0    0 -0.80930095223E+03 -0.34506252649E+03  0.98703082668E+03  0.13281160137E+04  0.12500445764E+03 0.  0.
          2    1    1    2  501    0  0.24095295764E+03  0.15977659961E+02 -0.87212596652E+03  0.90494050351E+03  0.00000000000E+00 0. -1.
          1    1    1    2  502    0  0.56834799460E+03  0.32908486653E+03  0.11571755504E+04  0.13305530981E+04  0.00000000000E+00 0. -1.
         22    1    3    3    0    0 -0.38027212534E+02  0.93981422227E+01  0.33859062488E+02  0.51776733027E+02  0.00000000000E+00 0.  1.
         22    1    3    3    0    0 -0.77127373970E+03 -0.35446066871E+03  0.95317176420E+03  0.12763392806E+04  0.00000000000E+00 0.  1.
</event>
<event>
 7    1  0.2895750E-005  0.1346737E+03  0.7818608E-02  0.1237117E+00
          2   -1    0    0  502    0  0.00000000000E+00  0.00000000000E+00  0.57334766136E+03  0.57334766136E+03  0.00000000000E+00 0. -1.
          1   -1    0    0  501    0 -0.00000000000E+00 -0.00000000000E+00 -0.55577162807E+03  0.55577162807E+03  0.00000000000E+00 0. -1.
         25    2    1    2    0    0  0.57258226235E+02 -0.88046398940E+02  0.13490833704E+03  0.21179232295E+03  0.12500022328E+03 0.  0.
          2    1    1    2  501    0 -0.92948183549E+02 -0.65342756985E+02 -0.49514059601E+03  0.50800910477E+03  0.00000000000E+00 0. -1.
          1    1    1    2  502    0  0.35689957314E+02  0.15338915592E+03  0.37780829226E+03  0.40931786171E+03  0.00000000000E+00 0. -1.
         22    1    3    3    0    0  0.18421748390E+01 -0.75412618041E+02  0.13535091766E+03  0.15495266206E+03  0.00000000000E+00 0. -1.
         22    1    3    3    0    0  0.55416051396E+02 -0.12633780899E+02 -0.44258062404E+00  0.56839660887E+02  0.00000000000E+00 0. -1.
</event>
<event>
 7    1  0.2895750E-005  0.2320673E+03  0.7818608E-02  0.1156376E+00
          2   -1    0    0  502    0  0.00000000000E+00  0.00000000000E+00  0.14535420607E+04  0.14535420607E+04  0.00000000000E+00 0. -1.
          1   -1    0    0  501    0 -0.00000000000E+00 -0.00000000000E+00 -0.29570095677E+03  0.29570095677E+03  0.00000000000E+00 0. -1.
         25    2    1    2    0    0 -0.10195258603E+03  0.29596712387E+03  0.10933505781E+04  0.11441292597E+04  0.12500163251E+03 0.  0.
          2    1    1    2  501    0  0.90628942628E+02 -0.13112565917E+03 -0.22265098743E+03  0.27382659830E+03  0.00000000000E+00 0. -1.
          1    1    1    2  502    0  0.11323643405E+02 -0.16484146470E+03  0.28714151330E+03  0.33128715949E+03  0.00000000000E+00 0. -1.
         22    1    3    3    0    0 -0.13670715355E+02  0.20973817917E+03  0.60672683707E+03  0.64210158626E+03  0.00000000000E+00 0. -1.
         22    1    3    3    0    0 -0.88281870678E+02  0.86228944699E+02  0.48662374098E+03  0.50202767343E+03  0.00000000000E+00 0. -1.
</event>
<event>
 7    1  0.2895750E-005  0.1618730E+03  0.7818608E-02  0.1218413E+00
          2   -1    0    0  502    0  0.00000000000E+00  0.00000000000E+00  0.31312838804E+03  0.31312838804E+03  0.00000000000E+00 0. -1.
          1   -1    0    0  501    0 -0.00000000000E+00 -0.00000000000E+00 -0.30615253831E+03  0.30615253831E+03  0.00000000000E+00 0. -1.
         25    2    1    2    0    0  0.23066874630E+03 -0.67782710883E+02  0.84720910505E+02  0.28391044537E+03  0.12499976759E+03 0.  0.
          2    1    1    2  501    0 -0.99378625294E+02  0.57363645567E+02 -0.14706898304E+03  0.18653681881E+03  0.00000000000E+00 0. -1.
          1    1    1    2  502    0 -0.13129012100E+03  0.10419065316E+02  0.69323922269E+02  0.14883366217E+03  0.00000000000E+00 0. -1.
         22    1    3    3    0    0  0.19663902068E+03 -0.42990254659E+01  0.45440491404E+02  0.20186684802E+03  0.00000000000E+00 0. -1.
         22    1    3    3    0    0  0.34029725624E+02 -0.63483685417E+02  0.39280419101E+02  0.82043597343E+02  0.00000000000E+00 0. -1.
</event>
<event>
 7    1  0.2895750E-005  0.1422284E+03  0.7818608E-02  0.1267247E+00
          2   -1    0    0  502    0  0.00000000000E+00  0.00000000000E+00  0.20978407555E+04  0.20978407555E+04  0.00000000000E+00 0. -1.
          1   -1    0    0  501    0 -0.00000000000E+00 -0.00000000000E+00 -0.60506605472E+03  0.60506605472E+03  0.00000000000E+00 0. -1.
         25    2    1    2    0    0 -0.69135302024E+02 -0.59571176711E+02  0.10368341306E+04  0.10483215966E+04  0.12499896143E+03 0.  0.
          2    1    1    2  501    0  0.44905456681E+02  0.13550352405E+03 -0.58928315356E+03  0.60632692513E+03  0.00000000000E+00 0. -1.
          1    1    1    2  502    0  0.24229845343E+02 -0.75932347341E+02  0.10452237237E+04  0.10482582885E+04  0.00000000000E+00 0. -1.
         22    1    3    3    0    0 -0.26496845261E+02  0.17296895834E+02  0.68299070861E+03  0.68372331646E+03  0.00000000000E+00 0.  1.
         22    1    3    3    0    0 -0.42638456763E+02 -0.76868072546E+02  0.35384342201E+03  0.36459828013E+03  0.00000000000E+00 0.  1.
</event>
<event>
 7    1  0.2895750E-005  0.1233296E+03  0.7818608E-02  0.1290823E+00
          2   -1    0    0  502    0  0.00000000000E+00  0.00000000000E+00  0.44733916677E+03  0.44733916677E+03  0.00000000000E+00 0. -1.
          1   -1    0    0  501    0 -0.00000000000E+00 -0.00000000000E+00 -0.10883852022E+03  0.10883852022E+03  0.00000000000E+00 0. -1.
         25    2    1    2    0    0 -0.76376244392E+02  0.10388430626E+03  0.29421880973E+03  0.34469478103E+03  0.12499801708E+03 0.  0.
          2    1    1    2  501    0 -0.40610688166E+02 -0.61165619137E+02  0.46525932515E+02  0.86920212575E+02  0.00000000000E+00 0. -1.
          1    1    1    2  502    0  0.11698693256E+03 -0.42718687121E+02 -0.22440956992E+01  0.12456269339E+03  0.00000000000E+00 0. -1.
         22    1    3    3    0    0 -0.78591542884E+02  0.88555647852E+02  0.11583410507E+03  0.16563898477E+03  0.00000000000E+00 0. -1.
         22    1    3    3    0    0  0.22152984918E+01  0.15328658406E+02  0.17838470466E+03  0.17905579625E+03  0.00000000000E+00 0. -1.
</event>
<event>
 7    1  0.2895750E-005  0.7431756E+03  0.7818608E-02  0.1223014E+00
          2   -1    0    0  502    0  0.00000000000E+00  0.00000000000E+00  0.13094553856E+04  0.13094553856E+04  0.00000000000E+00 0. -1.
          1   -1    0    0  501    0 -0.00000000000E+00 -0.00000000000E+00 -0.73762233876E+03  0.73762233876E+03  0.00000000000E+00 0. -1.
         25    2    1    2    0    0  0.30681745556E+03  0.69643071915E+03  0.61182982829E+03  0.98443609170E+03  0.12500392894E+03 0.  0.
          2    1    1    2  501    0 -0.29323157296E+03 -0.67686975801E+03 -0.30379908449E+03  0.79776644980E+03  0.00000000000E+00 0. -1.
          1    1    1    2  502    0 -0.13585882603E+02 -0.19560961141E+02  0.26380230300E+03  0.26487518282E+03  0.00000000000E+00 0. -1.
         22    1    3    3    0    0  0.25629316457E+03  0.58399323557E+03  0.44787445241E+03  0.77931111279E+03  0.00000000000E+00 0.  1.
         22    1    3    3    0    0  0.50524290991E+02  0.11243748358E+03  0.16395537588E+03  0.20512497891E+03  0.00000000000E+00 0.  1.
</event>
<event>
 7    1  0.2895750E-005  0.6006977E+02  0.7818608E-02  0.1495866E+00
          2   -1    0    0  502    0  0.00000000000E+00  0.00000000000E+00  0.86779203232E+03  0.86779203232E+03  0.00000000000E+00 0. -1.
          1   -1    0    0  501    0 -0.00000000000E+00 -0.00000000000E+00 -0.71199404714E+02  0.71199404714E+02  0.00000000000E+00 0. -1.
         25    2    1    2    0    0 -0.18922654096E+02  0.51338325682E+02  0.51936338335E+03  0.53698937956E+03  0.12500231704E+03 0.  0.
          2    1    1    2  501    0  0.45488101232E+02 -0.39739981361E+02 -0.46966312859E+02  0.76513188509E+02  0.00000000000E+00 0. -1.
          1    1    1    2  502    0 -0.26565447136E+02 -0.11598344321E+02  0.32419555711E+03  0.32548886897E+03  0.00000000000E+00 0. -1.
         22    1    3    3    0    0 -0.38490992188E+02  0.87030505758E+02  0.38566051167E+03  0.39722776297E+03  0.00000000000E+00 0. -1.
         22    1    3    3    0    0  0.19568338092E+02 -0.35692180076E+02  0.13370287169E+03  0.13976161659E+03  0.00000000000E+00 0. -1.
</event>
<event>
 7    1  0.2895750E-005  0.8238181E+02  0.7818608E-02  0.1342072E+00
          2   -1    0    0  502    0  0.00000000000E+00  0.00000000000E+00  0.12225289674E+04  0.12225289674E+04  0.00000000000E+00 0. -1.
          1   -1    0    0  501    0 -0.00000000000E+00 -0.00000000000E+00 -0.47360796226E+03  0.47360796226E+03  0.00000000000E+00 0. -1.
         25    2    1    2    0    0 -0.10734712091E+03  0.99676893137E+02  0.31307923692E+03  0.36756304728E+03  0.12500039096E+03 0.  0.
          2    1    1    2  501    0  0.56720775316E+02 -0.39896886618E+02 -0.44191771116E+03  0.44732568823E+03  0.00000000000E+00 0. -1.
          1    1    1    2  502    0  0.50626345595E+02 -0.59780006520E+02  0.87775947939E+03  0.88124819416E+03  0.00000000000E+00 0. -1.
         22    1    3    3    0    0  0.18676992248E+00 -0.24415160783E+02  0.19758331135E+02  0.31409021130E+02  0.00000000000E+00 0.  1.
         22    1    3    3    0    0 -0.10753389083E+03  0.12409205392E+03  0.29332090579E+03  0.33615402615E+03  0.00000000000E+00 0.  1.
</event>
<event>
 7    1  0.2895750E-005  0.1246869E+03  0.7818608E-02  0.1287612E+00
          2   -1    0    0  502    0  0.00000000000E+00  0.00000000000E+00  0.19293541737E+03  0.19293541737E+03  0.00000000000E+00 0. -1.
          1   -1    0    0  501    0 -0.00000000000E+00 -0.00000000000E+00 -0.53922456111E+03  0.53922456111E+03  0.00000000000E+00 0. -1.
         25    2    1    2    0    0  0.17478519872E+03  0.58675677412E+01 -0.11620588309E+03  0.24436620974E+03  0.12500697243E+03 0.  0.
          2    1    1    2  501    0 -0.62170032429E+02 -0.41664842188E+02 -0.32669564321E+03  0.33515834362E+03  0.00000000000E+00 0. -1.
          1    1    1    2  502    0 -0.11261516629E+03  0.35797274447E+02  0.96612382562E+02  0.15263542512E+03  0.00000000000E+00 0. -1.
         22    1    3    3    0    0  0.31897792944E+02 -0.30825892494E+02 -0.81538988716E+02  0.92824089134E+02  0.00000000000E+00 0. -1.
         22    1    3    3    0    0  0.14288740578E+03  0.36693460235E+02 -0.34666894373E+02  0.15154212061E+03  0.00000000000E+00 0. -1.
</event>
<event>
 7    1  0.2895750E-005  0.2484856E+03  0.7818608E-02  0.1272354E+00
          2   -1    0    0  502    0  0.00000000000E+00  0.00000000000E+00  0.32815708545E+04  0.32815708545E+04  0.00000000000E+00 0. -1.
          1   -1    0    0  501    0 -0.00000000000E+00 -0.00000000000E+00 -0.59167774375E+03  0.59167774375E+03  0.00000000000E+00 0. -1.
         25    2    1    2    0    0 -0.23295362612E+03  0.19519822345E+02 -0.51572431423E+03  0.57986671042E+03  0.12500167270E+03 0.  0.
          2    1    1    2  501    0 -0.14774133027E+02 -0.40831555225E+02 -0.27055104183E+02  0.51161211588E+02  0.00000000000E+00 0. -1.
          1    1    1    2  502    0  0.24772775915E+03  0.21311732880E+02  0.32326725292E+04  0.32422206762E+04  0.00000000000E+00 0. -1.
         22    1    3    3    0    0 -0.18240575390E+03  0.85038768586E+01 -0.48827178275E+03  0.52129982621E+03  0.00000000000E+00 0.  1.
         22    1    3    3    0    0 -0.50547872228E+02  0.11015945486E+02 -0.27452531482E+02  0.58566884213E+02  0.00000000000E+00 0.  1.
</event>
<event>
 7    1  0.2895750E-005  0.3860867E+03  0.7818608E-02  0.1175106E+00
          2   -1    0    0  502    0  0.00000000000E+00  0.00000000000E+00  0.20912322020E+04  0.20912322020E+04  0.00000000000E+00 0. -1.
          1   -1    0    0  501    0 -0.00000000000E+00 -0.00000000000E+00 -0.58167027242E+03  0.58167027242E+03  0.00000000000E+00 0. -1.
         25    2    1    2    0    0  0.34819121025E+03 -0.25978787029E+03  0.32788215464E+03  0.55844021832E+03  0.12498765402E+03 0.  0.
          2    1    1    2  501    0 -0.33005855115E+03  0.18473632792E+03 -0.38859856270E+03  0.54228682538E+03  0.00000000000E+00 0. -1.
          1    1    1    2  502    0 -0.18132659098E+02  0.75051542369E+02  0.15702783376E+04  0.15721754307E+04  0.00000000000E+00 0. -1.
         22    1    3    3    0    0  0.13154785289E+03 -0.44330529234E+02  0.56835174982E+02  0.15000090179E+03  0.00000000000E+00 0. -1.
         22    1    3    3    0    0  0.21664335736E+03 -0.21545734106E+03  0.27104697966E+03  0.40843931653E+03  0.00000000000E+00 0. -1.
</event>
<event>
 7    1  0.2895750E-005  0.3383846E+03  0.7818608E-02  0.1075505E+00
          2   -1    0    0  502    0  0.00000000000E+00  0.00000000000E+00  0.14478753415E+04  0.14478753415E+04  0.00000000000E+00 0. -1.
          1   -1    0    0  501    0 -0.00000000000E+00 -0.00000000000E+00 -0.73113407320E+03  0.73113407320E+03  0.00000000000E+00 0. -1.
         25    2    1    2    0    0  0.39995151044E+03  0.43381057952E+03  0.10403742462E+04  0.12025625293E+04  0.12500093998E+03 0.  0.
          2    1    1    2  501    0 -0.29287148905E+03 -0.15013975416E+03 -0.51986085455E+03  0.61528120642E+03  0.00000000000E+00 0. -1.
          1    1    1    2  502    0 -0.10708002139E+03 -0.28367082537E+03  0.19622787668E+03  0.36116567906E+03  0.00000000000E+00 0. -1.
         22    1    3    3    0    0  0.22820544336E+03  0.18558964764E+03  0.42132091719E+03  0.51384098410E+03  0.00000000000E+00 0. -1.
         22    1    3    3    0    0  0.17174606708E+03  0.24822093189E+03  0.61905332903E+03  0.68872154516E+03  0.00000000000E+00 0. -1.
</event>
<event>
 7    1  0.2895750E-005  0.3464028E+03  0.7818608E-02  0.1088994E+00
          2   -1    0    0  502    0  0.00000000000E+00  0.00000000000E+00  0.32912392621E+04  0.32912392621E+04  0.00000000000E+00 0. -1.
          1   -1    0    0  501    0 -0.00000000000E+00 -0.00000000000E+00 -0.48683311905E+03  0.48683311905E+03  0.00000000000E+00 0. -1.
         25    2    1    2    0    0  0.34648700912E+03 -0.70468955233E+02  0.21094126157E+04  0.21424905525E+04  0.12500025180E+03 0.  0.
          2    1    1    2  501    0 -0.30301536692E+03 -0.17284809777E+03 -0.38973070465E+03  0.52305334302E+03  0.00000000000E+00 0. -1.
          1    1    1    2  502    0 -0.43471642203E+02  0.24331705300E+03  0.10847242320E+04  0.11125284857E+04  0.00000000000E+00 0. -1.
         22    1    3    3    0    0  0.22738628029E+03  0.11067635625E+02  0.14197003227E+04  0.14378372715E+04  0.00000000000E+00 0. -1.
         22    1    3    3    0    0  0.11910072884E+03 -0.81536590857E+02  0.68971229305E+03  0.70465328101E+03  0.00000000000E+00 0. -1.
</event>
<event>
 7    1  0.2895750E-005  0.1007261E+03  0.7818608E-02  0.1377908E+00
          2   -1    0    0  502    0  0.00000000000E+00  0.00000000000E+00  0.27643058515E+04  0.27643058515E+04  0.00000000000E+00 0. -1.
          1   -1    0    0  501    0 -0.00000000000E+00 -0.00000000000E+00 -0.12707695485E+03  0.12707695485E+03  0.00000000000E+00 0. -1.
         25    2    1    2    0    0  0.76478992395E+02  0.14696529348E+02  0.11884395216E+02  0.14775388385E+03  0.12499978836E+03 0.  0.
          2    1    1    2  501    0 -0.11192334712E+03 -0.37167511662E+02 -0.15727475173E-01  0.11793328538E+03  0.00000000000E+00 0. -1.
          1    1    1    2  502    0  0.35444354722E+02  0.22470982314E+02  0.26253602289E+04  0.26256956371E+04  0.00000000000E+00 0. -1.
         22    1    3    3    0    0  0.10009373528E+03 -0.21545759996E+02 -0.17428927833E+01  0.10240123677E+03  0.00000000000E+00 0.  1.
         22    1    3    3    0    0 -0.23614742889E+02  0.36242289344E+02  0.13627287999E+02  0.45352647076E+02  0.00000000000E+00 0.  1.
</event>
<event>
 7    1  0.2895750E-005  0.5032037E+02  0.7818608E-02  0.1452501E+00
          2   -1    0    0  502    0  0.00000000000E+00  0.00000000000E+00  0.99295703989E+02  0.99295703989E+02  0.00000000000E+00 0. -1.
          1   -1    0    0  501    0 -0.00000000000E+00 -0.00000000000E+00 -0.60538802697E+03  0.60538802697E+03  0.00000000000E+00 0. -1.
         25    2    1    2    0    0 -0.27357804878E+02  0.55806215808E+01 -0.33619795678E+02  0.13242121067E+03  0.12500197418E+03 0.  0.
          2    1    1    2  501    0  0.30262652716E+02  0.41454904506E+02 -0.50965623168E+03  0.51223413762E+03  0.00000000000E+00 0. -1.
          1    1    1    2  502    0 -0.29048478379E+01 -0.47035526087E+02  0.37183704373E+02  0.60028382671E+02  0.00000000000E+00 0. -1.
         22    1    3    3    0    0 -0.10506252060E+02  0.53119672826E+02  0.20997670184E+02  0.58077389117E+02  0.00000000000E+00 0.  1.
         22    1    3    3    0    0 -0.16851552818E+02 -0.47539051245E+02 -0.54617465862E+02  0.74343821552E+02  0.00000000000E+00 0.  1.
</event>
<event>
 7    1  0.2895750E-005  0.2077002E+03  0.7818608E-02  0.1202032E+00
          2   -1    0    0  502    0  0.00000000000E+00  0.00000000000E+00  0.19383555820E+04  0.19383555820E+04  0.00000000000E+00 0. -1.
          1   -1    0    0  501    0 -0.00000000000E+00 -0.00000000000E+00 -0.84198041487E+03  0.84198041487E+03  0.00000000000E+00 0. -1.
         25    2    1    2    0    0  0.28496898175E+03 -0.52100853039E+02  0.68369362274E+03  0.75298326298E+03  0.12500002043E+03 0.  0.
          2    1    1    2  501    0 -0.10572716550E+03 -0.12930316975E+02 -0.79631779329E+03  0.80340989198E+03  0.00000000000E+00 0. -1.
          1    1    1    2  502    0 -0.17924181625E+03  0.65031170014E+02  0.12089993377E+04  0.12239428419E+04  0.00000000000E+00 0. -1.
         22    1    3    3    0    0  0.59694473675E+02 -0.65427498330E+02  0.16345250659E+03  0.18590564713E+03  0.00000000000E+00 0.  1.
         22    1    3    3    0    0  0.22527450808E+03  0.13326645291E+02  0.52024111616E+03  0.56707761585E+03  0.00000000000E+00 0.  1.
</event>
<event>
 7    1  0.2895750E-005  0.4612072E+03  0.7818608E-02  0.1056938E+00
          2   -1    0    0  502    0  0.00000000000E+00  0.00000000000E+00  0.48355010741E+03  0.48355010741E+03  0.00000000000E+00 0. -1.
          1   -1    0    0  501    0 -0.00000000000E+00 -0.00000000000E+00 -0.13914014838E+04  0.13914014838E+04  0.00000000000E+00 0. -1.
         25    2    1    2    0    0 -0.61030479741E+03 -0.29388916495E+03 -0.28402025513E+03  0.74507408386E+03  0.12500039244E+03 0.  0.
          2    1    1    2  501    0  0.26122332970E+03  0.12026314657E+03 -0.67779949201E+03  0.73628323611E+03  0.00000000000E+00 0. -1.
          1    1    1    2  502    0  0.34908146771E+03  0.17362601837E+03  0.53968370711E+02  0.39359427129E+03  0.00000000000E+00 0. -1.
         22    1    3    3    0    0 -0.59708451411E+03 -0.27859138195E+03 -0.24846447515E+03  0.70417162006E+03  0.00000000000E+00 0.  1.
         22    1    3    3    0    0 -0.13220283294E+02 -0.15297782998E+02 -0.35555779981E+02  0.40902463803E+02  0.00000000000E+00 0.  1.
</event>
<event>
 7    1  0.2895750E-005  0.7518106E+03  0.7818608E-02  0.9794256E-01
          2   -1    0    0  502    0  0.00000000000E+00  0.00000000000E+00  0.21916851549E+04  0.21916851549E+04  0.00000000000E+00 0. -1.
          1   -1    0    0  501    0 -0.00000000000E+00 -0.00000000000E+00 -0.32106842588E+04  0.32106842588E+04  0.00000000000E+00 0. -1.
         25    2    1    2    0    0  0.26869048195E+03 -0.81485107672E+03 -0.57785429653E+03  0.10419774938E+04  0.12499862893E+03 0.  0.
          2    1    1    2  501    0 -0.65857038457E+03  0.39405449827E+03 -0.22949419640E+04  0.24198662189E+04  0.00000000000E+00 0. -1.
          1    1    1    2  502    0  0.38987990262E+03  0.42079657845E+03  0.18537971565E+04  0.19405257011E+04  0.00000000000E+00 0. -1.
         22    1    3    3    0    0  0.81773819941E+02 -0.32711531775E+03 -0.16071523747E+03  0.37352480009E+03  0.00000000000E+00 0. -1.
         22    1    3    3    0    0  0.18691666201E+03 -0.48773575897E+03 -0.41713905906E+03  0.66845269370E+03  0.00000000000E+00 0. -1.
</event>
<event>
 7    1  0.6377192E-005  0.8654610E+02  0.7818608E-02  0.1371608E+00
          2   -1    0    0  502    0  0.00000000000E+00  0.00000000000E+00  0.27036194606E+04  0.27036194606E+04  0.00000000000E+00 0. -1.
          1   -1    0    0  501    0 -0.00000000000E+00 -0.00000000000E+00 -0.26974009398E+04  0.26974009398E+04  0.00000000000E+00 0. -1.
         25    2    1    2    0    0  0.26498637902E+02  0.34266565869E+02 -0.65907854496E+03  0.67222712533E+03  0.12501361627E+03 0.  0.
          2    1    1    2  501    0 -0.44818189264E+02 -0.82332994579E+02 -0.20304213484E+04  0.20325841296E+04  0.00000000000E+00 0. -1.
          1    1    1    2  502    0  0.18319551363E+02  0.48066428710E+02  0.26957184142E+04  0.26962091455E+04  0.00000000000E+00 0. -1.
         22    1    3    3    0    0  0.65406569395E+02  0.17869846470E+02 -0.19938166050E+03  0.21059534012E+03  0.00000000000E+00 0.  1.
         22    1    3    3    0    0 -0.38907931494E+02  0.16396719399E+02 -0.45969688446E+03  0.46163178521E+03  0.00000000000E+00 0.  1.
</event>
<event>
 7    1  0.2895750E-005  0.1247055E+03  0.7818608E-02  0.1237048E+00
          2   -1    0    0  502    0  0.00000000000E+00  0.00000000000E+00  0.15316905451E+04  0.15316905451E+04  0.00000000000E+00 0. -1.
          1   -1    0    0  501    0 -0.00000000000E+00 -0.00000000000E+00 -0.33507431465E+03  0.33507431465E+03  0.00000000000E+00 0. -1.
         25    2    1    2    0    0  0.50788525089E+02  0.86017356575E+02  0.16614558851E+02  0.16086901612E+03  0.12499734744E+03 0.  0.
          2    1    1    2  501    0  0.66600612839E+02 -0.12202131223E+03 -0.24174085609E+03  0.27886104743E+03  0.00000000000E+00 0. -1.
          1    1    1    2  502    0 -0.11738913793E+03  0.36003955651E+02  0.14217425277E+04  0.14270347962E+04  0.00000000000E+00 0. -1.
         22    1    3    3    0    0  0.24982215321E+02 -0.30265130980E+02  0.14196489016E+02  0.41732835226E+02  0.00000000000E+00 0. -1.
         22    1    3    3    0    0  0.25806309767E+02  0.11628248755E+03  0.24180698344E+01  0.11913618089E+03  0.00000000000E+00 0. -1.
</event>
<event>
 7    1  0.2895750E-005  0.6116435E+03  0.7818608E-02  0.1131730E+00
          2   -1    0    0  502    0  0.00000000000E+00  0.00000000000E+00  0.10817789379E+04  0.10817789379E+04  0.00000000000E+00 0. -1.
          1   -1    0    0  501    0 -0.00000000000E+00 -0.00000000000E+00 -0.25209009163E+04  0.25209009163E+04  0.00000000000E+00 0. -1.
         25    2    1    2    0    0  0.49225765327E+03  0.38716144041E+03 -0.13792666237E+03  0.65334544973E+03  0.12499973740E+03 0.  0.
          2    1    1    2  501    0  0.30412832610E+02 -0.75332761857E+02 -0.20119575044E+04  0.20135970214E+04  0.00000000000E+00 0. -1.
          1    1    1    2  502    0 -0.52267048588E+03 -0.31182867855E+03  0.71076218835E+03  0.93573738301E+03  0.00000000000E+00 0. -1.
         22    1    3    3    0    0  0.21812785166E+03  0.13464419102E+03 -0.11199569044E+03  0.27973532584E+03  0.00000000000E+00 0.  1.
         22    1    3    3    0    0  0.27412980161E+03  0.25251724939E+03 -0.25930971934E+02  0.37361012389E+03  0.00000000000E+00 0.  1.
</event>
<event>
 7    1  0.2895750E-005  0.4368793E+03  0.7818608E-02  0.1135276E+00
          2   -1    0    0  502    0  0.00000000000E+00  0.00000000000E+00  0.10278666760E+04  0.10278666760E+04  0.00000000000E+00 0. -1.
          1   -1    0    0  501    0 -0.00000000000E+00 -0.00000000000E+00 -0.20496360506E+04  0.20496360506E+04  0.00000000000E+00 0. -1.
         25    2    1    2    0    0  0.45713170680E+03  0.37817958462E+01  0.20368357962E+02  0.47436639896E+03  0.12499964445E+03 0.  0.
          2    1    1    2  501    0 -0.34493735923E+02 -0.10331603302E+03 -0.17604357142E+04  0.17638021217E+04  0.00000000000E+00 0. -1.
          1    1    1    2  502    0 -0.42263797088E+03  0.99534237175E+02  0.71829798172E+03  0.83933420599E+03  0.00000000000E+00 0. -1.
         22    1    3    3    0    0  0.31834549305E+03 -0.27459685155E+02  0.63368499500E+02  0.32575060089E+03  0.00000000000E+00 0. -1.
         22    1    3    3    0    0  0.13878621376E+03  0.31241481002E+02 -0.43000141538E+02  0.14861579807E+03  0.00000000000E+00 0. -1.
</event>
<event>
 7    1  0.2895750E-005  0.2959511E+03  0.7818608E-02  0.1147133E+00
          2   -1    0    0  502    0  0.00000000000E+00  0.00000000000E+00  0.48886220555E+03  0.48886220555E+03  0.00000000000E+00 0. -1.
          1   -1    0    0  501    0 -0.00000000000E+00 -0.00000000000E+00 -0.57930910395E+03  0.57930910395E+03  0.00000000000E+00 0. -1.
         25    2    1    2    0    0 -0.33118601163E+03  0.29979190650E+02 -0.11938741757E+03  0.37478532733E+03  0.12501103926E+03 0.  0.
          2    1    1    2  501    0  0.27068135300E+03  0.95613958680E+02 -0.25056580477E+03  0.38104284073E+03  0.00000000000E+00 0. -1.
          1    1    1    2  502    0  0.60504658634E+02 -0.12559314933E+03  0.27950632395E+03  0.31234314143E+03  0.00000000000E+00 0. -1.
         22    1    3    3    0    0 -0.29189287094E+03  0.62335978311E+02 -0.76241543675E+02  0.30805842835E+03  0.00000000000E+00 0.  1.
         22    1    3    3    0    0 -0.39293140694E+02 -0.32356787661E+02 -0.43145873897E+02  0.66726898981E+02  0.00000000000E+00 0.  1.
</event>
<event>
 7    1  0.2895750E-005  0.3145990E+03  0.7818608E-02  0.1167389E+00
          2   -1    0    0  502    0  0.00000000000E+00  0.00000000000E+00  0.13748998461E+04  0.13748998461E+04  0.00000000000E+00 0. -1.
          1   -1    0    0  501    0 -0.00000000000E+00 -0.00000000000E+00 -0.87957352231E+03  0.87957352231E+03  0.00000000000E+00 0. -1.
         25    2    1    2    0    0  0.33586808864E+03  0.55379593568E+02 -0.71750009201E+03  0.80393145895E+03  0.12500054523E+03 0.  0.
          2    1    1    2  501    0 -0.23269882739E+03 -0.63378837952E+02  0.80293144602E+01  0.24130911972E+03  0.00000000000E+00 0. -1.
          1    1    1    2  502    0 -0.10316926124E+03  0.79992443838E+01  0.12047971013E+04  0.12092327897E+04  0.00000000000E+00 0. -1.
         22    1    3    3    0    0  0.24906437279E+03  0.12773977884E+02 -0.39406453752E+03  0.46635082935E+03  0.00000000000E+00 0. -1.
         22    1    3    3    0    0  0.86803715843E+02  0.42605615685E+02 -0.32343555449E+03  0.33758062960E+03  0.00000000000E+00 0. -1.
</event>
<event>
 7    1  0.2895750E-005  0.2431868E+03  0.7818608E-02  0.1221031E+00
          2   -1    0    0  502    0  0.00000000000E+00  0.00000000000E+00  0.99212073358E+03  0.99212073358E+03  0.00000000000E+00 0. -1.
          1   -1    0    0  501    0 -0.00000000000E+00 -0.00000000000E+00 -0.42318752276E+03  0.42318752276E+03  0.00000000000E+00 0. -1.
         25    2    1    2    0    0 -0.39526804256E+02  0.30799696984E+03 -0.90206799785E+02  0.34668020837E+03  0.12500159385E+03 0.  0.
          2    1    1    2  501    0  0.23805101679E+02 -0.70390761805E+02 -0.18085901189E+03  0.19552883264E+03  0.00000000000E+00 0. -1.
          1    1    1    2  502    0  0.15721702577E+02 -0.23760620803E+03  0.83999902249E+03  0.87309921533E+03  0.00000000000E+00 0. -1.
         22    1    3    3    0    0 -0.50513465997E+02  0.35164496947E+02 -0.12772888297E+02  0.62859357044E+02  0.00000000000E+00 0. -1.
         22    1    3    3    0    0  0.10986661741E+02  0.27283247289E+03 -0.77433911487E+02  0.28382085133E+03  0.00000000000E+00 0. -1.
</event>
<event>
 7    1  0.2895750E-005  0.1757734E+03  0.7818608E-02  0.1232841E+00
          2   -1    0    0  502    0  0.00000000000E+00  0.00000000000E+00  0.40643053929E+03  0.40643053929E+03  0.00000000000E+00 0. -1.
          1   -1    0    0  501    0 -0.00000000000E+00 -0.00000000000E+00 -0.20597609556E+03  0.20597609556E+03  0.00000000000E+00 0. -1.
         25    2    1    2    0    0  0.11898112024E+03 -0.14131112400E+03  0.20008572593E+03  0.29964136549E+03  0.12500123780E+03 0.  0.
          2    1    1    2  501    0 -0.84727854221E+02 -0.33054930582E+02 -0.76797613550E+02  0.11903491573E+03  0.00000000000E+00 0. -1.
          1    1    1    2  502    0 -0.34253266020E+02  0.17436605458E+03  0.77166331348E+02  0.19373035363E+03  0.00000000000E+00 0. -1.
         22    1    3    3    0    0  0.13134083334E+03 -0.15580510313E+03  0.18656014418E+03  0.27627944560E+03  0.00000000000E+00 0.  1.
         22    1    3    3    0    0 -0.12359713101E+02  0.14493979134E+02  0.13525581749E+02  0.23361919885E+02  0.00000000000E+00 0.  1.
</event>
<event>
 7    1  0.2895750E-005  0.2521451E+03  0.7818608E-02  0.1210387E+00
          2   -1    0    0  502    0  0.00000000000E+00  0.00000000000E+00  0.57784535871E+03  0.57784535871E+03  0.00000000000E+00 0. -1.
          1   -1    0    0  501    0 -0.00000000000E+00 -0.00000000000E+00 -0.10099727014E+04  0.10099727014E+04  0.00000000000E+00 0. -1.
         25    2    1    2    0    0 -0.14276553363E+03 -0.18338054083E+03  0.35323968105E+03  0.44092349617E+03  0.12499934743E+03 0.  0.
          2    1    1    2  501    0  0.21074507290E+03  0.14081667150E+03 -0.93952848948E+03  0.97311695251E+03  0.00000000000E+00 0. -1.
          1    1    1    2  502    0 -0.67979539264E+02  0.42563869336E+02  0.15416146571E+03  0.17377761145E+03  0.00000000000E+00 0. -1.
         22    1    3    3    0    0  0.21491430120E+02 -0.32979890590E+02  0.36214289081E+02  0.53488592106E+02  0.00000000000E+00 0. -1.
         22    1    3    3    0    0 -0.16425696375E+03 -0.15040065024E+03  0.31702539197E+03  0.38743490406E+03  0.00000000000E+00 0. -1.
</event>
<event>
 7    1  0.2895750E-005  0.2266431E+03  0.7818608E-02  0.1324442E+00
          2   -1    0    0  502    0  0.00000000000E+00  0.00000000000E+00  0.11921776308E+04  0.11921776308E+04  0.00000000000E+00 0. -1.
          1   -1    0    0  501    0 -0.00000000000E+00 -0.00000000000E+00 -0.88744219509E+02  0.88744219509E+02  0.00000000000E+00 0. -1.
         25    2    1    2    0    0 -0.17178556321E+03 -0.15893625354E+03  0.91893916969E+03  0.95647490965E+03  0.12499617105E+03 0.  0.
          2    1    1    2  501    0  0.14552083045E+03  0.17217525301E+03  0.12425372816E+03  0.25740943807E+03  0.00000000000E+00 0. -1.
          1    1    1    2  502    0  0.26264732761E+02 -0.13238999475E+02  0.60240513451E+02  0.67037502601E+02  0.00000000000E+00 0. -1.
         22    1    3    3    0    0 -0.59527341418E+02 -0.10693055995E+03  0.63601781282E+03  0.64768534587E+03  0.00000000000E+00 0.  1.
         22    1    3    3    0    0 -0.11225822180E+03 -0.52005693582E+02  0.28292135687E+03  0.30878956378E+03  0.00000000000E+00 0.  1.
</event>
<event>
 7    1  0.2895750E-005  0.1306001E+03  0.7818608E-02  0.1375160E+00
          2   -1    0    0  502    0  0.00000000000E+00  0.00000000000E+00  0.13887022480E+03  0.13887022480E+03  0.00000000000E+00 0. -1.
          1   -1    0    0  501    0 -0.00000000000E+00 -0.00000000000E+00 -0.77919826105E+03  0.77919826105E+03  0.00000000000E+00 0. -1.
         25    2    1    2    0    0  0.71524491093E+01 -0.13931256209E+03 -0.34063857735E+03  0.38873951807E+03  0.12499850017E+03 0.  0.
          2    1    1    2  501    0 -0.35882603587E+02  0.12286551735E+03 -0.40195284003E+03  0.42184070714E+03  0.00000000000E+00 0. -1.
          1    1    1    2  502    0  0.28730154477E+02  0.16447044738E+02  0.10226338112E+03  0.10748826064E+03  0.00000000000E+00 0. -1.
         22    1    3    3    0    0  0.34253816506E+02 -0.14870245623E+03 -0.24268959673E+03  0.28667749266E+03  0.00000000000E+00 0.  1.
         22    1    3    3    0    0 -0.27101367397E+02  0.93898941450E+01 -0.97948980617E+02  0.10206202541E+03  0.00000000000E+00 0.  1.
</event>
<event>
 7    1  0.2895750E-005  0.1232385E+03  0.7818608E-02  0.1297784E+00
          2   -1    0    0  502    0  0.00000000000E+00  0.00000000000E+00  0.32340752281E+03  0.32340752281E+03  0.00000000000E+00 0. -1.
          1   -1    0    0  501    0 -0.00000000000E+00 -0.00000000000E+00 -0.29397805483E+03  0.29397805483E+03  0.00000000000E+00 0. -1.
         25    2    1    2    0    0 -0.83462423703E+02  0.10631160488E+03  0.20632462011E+03  0.27651902821E+03  0.12499916238E+03 0.  0.
          2    1    1    2  501    0  0.11507081342E+03 -0.45126329243E+02 -0.22510112892E+03  0.25680380826E+03  0.00000000000E+00 0. -1.
          1    1    1    2  502    0 -0.31608389722E+02 -0.61185275634E+02  0.48205976797E+02  0.84062741177E+02  0.00000000000E+00 0. -1.
         22    1    3    3    0    0 -0.31755494384E+02 -0.19674373059E+02  0.89898900019E+02  0.97351448903E+02  0.00000000000E+00 0. -1.
         22    1    3    3    0    0 -0.51706929318E+02  0.12598597794E+03  0.11642572009E+03  0.17916757931E+03  0.00000000000E+00 0. -1.
</event>
<event>
 7    1  0.2895750E-005  0.1774130E+03  0.7818608E-02  0.1322324E+00
          2   -1    0    0  502    0  0.00000000000E+00  0.00000000000E+00  0.98299635218E+03  0.98299635218E+03  0.00000000000E+00 0. -1.
          1   -1    0    0  501    0 -0.00000000000E+00 -0.00000000000E+00 -0.74711106586E+03  0.74711106586E+03  0.00000000000E+00 0. -1.
         25    2    1    2    0    0 -0.10261902207E+03  0.15600712225E+03  0.17028120706E+03  0.28193886661E+03  0.12499979659E+03 0.  0.
          2    1    1    2  501    0  0.12532312829E+03 -0.12517661343E+03 -0.67943587320E+03  0.70214541003E+03  0.00000000000E+00 0. -1.
          1    1    1    2  502    0 -0.22704106221E+02 -0.30830508822E+02  0.74503995247E+03  0.74602314139E+03  0.00000000000E+00 0. -1.
         22    1    3    3    0    0 -0.68405306011E+02  0.16952549818E+03  0.16193744818E+03  0.24421694770E+03  0.00000000000E+00 0.  1.
         22    1    3    3    0    0 -0.34213716056E+02 -0.13518375929E+02  0.83437588792E+01  0.37721918911E+02  0.00000000000E+00 0.  1.
</event>
<event>
 7    1  0.2895750E-005  0.3554438E+03  0.7818608E-02  0.1207103E+00
          2   -1    0    0  502    0  0.00000000000E+00  0.00000000000E+00  0.15882387405E+04  0.15882387405E+04  0.00000000000E+00 0. -1.
          1   -1    0    0  501    0 -0.00000000000E+00 -0.00000000000E+00 -0.17322502953E+04  0.17322502953E+04  0.00000000000E+00 0. -1.
         25    2    1    2    0    0  0.10787201427E+02 -0.38739320152E+03 -0.58296438711E+03  0.71109921599E+03  0.12499904817E+03 0.  0.
          2    1    1    2  501    0  0.26178236086E+02  0.34149749177E+03 -0.10576005742E+04  0.11116765768E+04  0.00000000000E+00 0. -1.
          1    1    1    2  502    0 -0.36965437513E+02  0.45895709756E+02  0.14965534065E+04  0.14977132430E+04  0.00000000000E+00 0. -1.
         22    1    3    3    0    0  0.49129385885E+02 -0.19228554286E+03 -0.21328995791E+03  0.29134177986E+03  0.00000000000E+00 0.  1.
         22    1    3    3    0    0 -0.38342184458E+02 -0.19510765866E+03 -0.36967442920E+03  0.41975743613E+03  0.00000000000E+00 0.  1.
</event>
<event>
 7    1  0.2895750E-005  0.2972942E+03  0.7818608E-02  0.1132782E+00
          2   -1    0    0  502    0  0.00000000000E+00  0.00000000000E+00  0.28255693747E+04  0.28255693747E+04  0.00000000000E+00 0. -1.
          1   -1    0    0  501    0 -0.00000000000E+00 -0.00000000000E+00 -0.10149935045E+03  0.10149935045E+03  0.00000000000E+00 0. -1.
         25    2    1    2    0    0 -0.15704308222E+03  0.25442295239E+03  0.21374374779E+04  0.21618644864E+04  0.12500206926E+03 0.  0.
          2    1    1    2  501    0  0.14885628409E+03  0.71191411291E+02  0.17958283124E+03  0.24387784571E+03  0.00000000000E+00 0. -1.
          1    1    1    2  502    0  0.81867981325E+01 -0.32561436368E+03  0.40704971521E+03  0.52132639311E+03  0.00000000000E+00 0. -1.
         22    1    3    3    0    0 -0.13142693431E+03  0.16260876568E+03  0.10738983102E+04  0.10940622607E+04  0.00000000000E+00 0.  1.
         22    1    3    3    0    0 -0.25616147912E+02  0.91814186706E+02  0.10635391677E+04  0.10678022256E+04  0.00000000000E+00 0.  1.
</event>
<event>
 7    1  0.2895750E-005  0.5193967E+02  0.7818608E-02  0.1466384E+00
          2   -1    0    0  502    0  0.00000000000E+00  0.00000000000E+00  0.41185924331E+03  0.41185924331E+03  0.00000000000E+00 0. -1.
          1   -1    0    0  501    0 -0.00000000000E+00 -0.00000000000E+00 -0.82431101292E+03  0.82431101292E+03  0.00000000000E+00 0. -1.
         25    2    1    2    0    0 -0.33356957515E+02  0.59043145528E+02 -0.98919684545E+02  0.17322996993E+03  0.12499895536E+03 0.  0.
          2    1    1    2  501    0  0.40561084955E+02 -0.76338029336E+01 -0.68581483158E+03  0.68705564533E+03  0.00000000000E+00 0. -1.
          1    1    1    2  502    0 -0.72041274408E+01 -0.51409342595E+02  0.37228274652E+03  0.37588464097E+03  0.00000000000E+00 0. -1.
         22    1    3    3    0    0 -0.13044191433E+02 -0.37541795778E+02 -0.47523693479E+02  0.61951907172E+02  0.00000000000E+00 0. -1.
         22    1    3    3    0    0 -0.20312766082E+02  0.96584941306E+02 -0.51395991066E+02  0.11127806276E+03  0.00000000000E+00 0. -1.
</event>
<event>
 7    1  0.2895750E-005  0.4605155E+03  0.7818608E-02  0.1114059E+00
          2   -1    0    0  502    0  0.00000000000E+00  0.00000000000E+00  0.37024725505E+04  0.37024725505E+04  0.00000000000E+00 0. -1.
          1   -1    0    0  501    0 -0.00000000000E+00 -0.00000000000E+00 -0.96008872837E+02  0.96008872837E+02  0.00000000000E+00 0. -1.
         25    2    1    2    0    0  0.42620482283E+03  0.61513066800E+02  0.20170983234E+04  0.20663358876E+04  0.12499578384E+03 0.  0.
          2    1    1    2  501    0  0.96131069990E+02 -0.93967122234E+02  0.15437434939E+03  0.20470086084E+03  0.00000000000E+00 0. -1.
          1    1    1    2  502    0 -0.52233589282E+03  0.32454055434E+02  0.14349910049E+04  0.15274446749E+04  0.00000000000E+00 0. -1.
         22    1    3    3    0    0  0.41799452189E+03  0.71414463961E+02  0.18170788591E+04  0.18659032736E+04  0.00000000000E+00 0. -1.
         22    1    3    3    0    0  0.82103009323E+01 -0.99013971613E+01  0.20001946421E+03  0.20043261404E+03  0.00000000000E+00 0. -1.
</event>
<event>
 7    1  0.2895750E-005  0.5414323E+03  0.7818608E-02  0.1147659E+00
          2   -1    0    0  502    0  0.00000000000E+00  0.00000000000E+00  0.10608649197E+04  0.10608649197E+04  0.00000000000E+00 0. -1.
          1   -1    0    0  501    0 -0.00000000000E+00 -0.00000000000E+00 -0.98555749121E+03  0.98555749121E+03  0.00000000000E+00 0. -1.
         25    2    1    2    0    0  0.46876687256E+03 -0.18793221635E+03  0.21767326465E+03  0.56397377302E+03  0.12499547093E+03 0.  0.
          2    1    1    2  501    0  0.73149045330E+02  0.19586691326E+02 -0.68981581652E+03  0.69395985621E+03  0.00000000000E+00 0. -1.
          1    1    1    2  502    0 -0.54191591789E+03  0.16834552502E+03  0.54744998037E+03  0.78848878170E+03  0.00000000000E+00 0. -1.
         22    1    3    3    0    0  0.20366927013E+03 -0.44646933005E+02  0.34538108168E+02  0.21134663739E+03  0.00000000000E+00 0. -1.
         22    1    3    3    0    0  0.26509760243E+03 -0.14328528334E+03  0.18313515648E+03  0.35262713562E+03  0.00000000000E+00 0. -1.
</event>
<event>
 7    1  0.2895750E-005  0.6668809E+02  0.7818608E-02  0.1439596E+00
          2   -1    0    0  502    0  0.00000000000E+00  0.00000000000E+00  0.18796731070E+04  0.18796731070E+04  0.00000000000E+00 0. -1.
          1   -1    0    0  501    0 -0.00000000000E+00 -0.00000000000E+00 -0.58825732222E+03  0.58825732222E+03  0.00000000000E+00 0. -1.
         25    2    1    2    0    0 -0.87182216828E+02 -0.52731657056E+02  0.59208712454E+03  0.61365556682E+03  0.12499850022E+03 0.  0.
          2    1    1    2  501    0  0.48760078179E+02  0.45340004668E+02 -0.57525264888E+03  0.57909314561E+03  0.00000000000E+00 0. -1.
          1    1    1    2  502    0  0.38422138649E+02  0.73916523879E+01  0.12745813091E+04  0.12751817168E+04  0.00000000000E+00 0. -1.
         22    1    3    3    0    0 -0.32934329601E+02 -0.29934034896E+02  0.44570920415E+02  0.62986375178E+02  0.00000000000E+00 0. -1.
         22    1    3    3    0    0 -0.54247887227E+02 -0.22797622160E+02  0.54751620413E+03  0.55066919165E+03  0.00000000000E+00 0. -1.
</event>
<event>
 7    1  0.2895750E-005  0.2877194E+03  0.7818608E-02  0.1236993E+00
          2   -1    0    0  502    0  0.00000000000E+00  0.00000000000E+00  0.33457993485E+04  0.33457993485E+04  0.00000000000E+00 0. -1.
          1   -1    0    0  501    0 -0.00000000000E+00 -0.00000000000E+00 -0.58482596384E+03  0.58482596384E+03  0.00000000000E+00 0. -1.
         25    2    1    2    0    0  0.24170290546E+03 -0.22485833044E+03  0.13400273826E+04  0.13857416146E+04  0.12499949160E+03 0.  0.
          2    1    1    2  501    0 -0.22827696557E+03  0.17332970438E+03 -0.52503374060E+03  0.59817554965E+03  0.00000000000E+00 0. -1.
          1    1    1    2  502    0 -0.13425939891E+02  0.51528626057E+02  0.19459797426E+04  0.19467081481E+04  0.00000000000E+00 0. -1.
         22    1    3    3    0    0  0.16473504176E+03 -0.14686369711E+03  0.63520544864E+03  0.67245263141E+03  0.00000000000E+00 0. -1.
         22    1    3    3    0    0  0.76967863700E+02 -0.77994633325E+02  0.70482193398E+03  0.71328898315E+03  0.00000000000E+00 0. -1.
</event>
<event>
 7    1  0.2895750E-005  0.2470526E+03  0.7818608E-02  0.1216090E+00
          2   -1    0    0  502    0  0.00000000000E+00  0.00000000000E+00  0.49947287389E+03  0.49947287389E+03  0.00000000000E+00 0. -1.
          1   -1    0    0  501    0 -0.00000000000E+00 -0.00000000000E+00 -0.73430172786E+03  0.73430172786E+03  0.00000000000E+00 0. -1.
         25    2    1    2    0    0  0.22326809779E+03  0.84801676071E+02  0.20913558703E+03  0.34117853676E+03  0.12500052970E+03 0.  0.
          2    1    1    2  501    0 -0.24838815535E+03 -0.11962704887E+02 -0.63750120307E+03  0.68428617255E+03  0.00000000000E+00 0. -1.
          1    1    1    2  502    0  0.25120057555E+02 -0.72838971184E+02  0.19353676207E+03  0.20830989244E+03  0.00000000000E+00 0. -1.
         22    1    3    3    0    0  0.87524600190E+01  0.20603686862E+02 -0.12903193909E+02  0.25838147800E+02  0.00000000000E+00 0. -1.
         22    1    3    3    0    0  0.21451563777E+03  0.64197989209E+02  0.22203878094E+03  0.31534038896E+03  0.00000000000E+00 0. -1.
</event>
<event>
 7    1  0.3866138E-005  0.4001279E+02  0.7818608E-02  0.1531412E+00
          2   -1    0    0  502    0  0.00000000000E+00  0.00000000000E+00  0.87349392146E+03  0.87349392146E+03  0.00000000000E+00 0. -1.
          1   -1    0    0  501    0 -0.00000000000E+00 -0.00000000000E+00 -0.20709445469E+04  0.20709445469E+04  0.00000000000E+00 0. -1.
         25    2    1    2    0    0  0.57811568237E+02 -0.24850278885E+02 -0.55625490707E+02  0.15059426448E+03  0.12499889398E+03 0.  0.
          2    1    1    2  501    0 -0.18092029342E+02  0.29069210220E+02 -0.19672027317E+04  0.19675006805E+04  0.00000000000E+00 0. -1.
          1    1    1    2  502    0 -0.39719538895E+02 -0.42189313350E+01  0.82537759689E+03  0.82634352336E+03  0.00000000000E+00 0. -1.
         22    1    3    3    0    0  0.55285443087E+02  0.21021056980E+02  0.19719716384E+02  0.62347672516E+02  0.00000000000E+00 0. -1.
         22    1    3    3    0    0  0.25261251496E+01 -0.45871335865E+02 -0.75345207091E+02  0.88246591968E+02  0.00000000000E+00 0. -1.
</event>
<event>
 7    1  0.2895750E-005  0.1570539E+03  0.7818608E-02  0.1212100E+00
          2   -1    0    0  502    0  0.00000000000E+00  0.00000000000E+00  0.27035439713E+03  0.27035439713E+03  0.00000000000E+00 0. -1.
          1   -1    0    0  501    0 -0.00000000000E+00 -0.00000000000E+00 -0.27380984176E+04  0.27380984176E+04  0.00000000000E+00 0. -1.
         25    2    1    2    0    0  0.67858998913E+02  0.22952903238E+03 -0.65683584882E+01  0.27010591010E+03  0.12500255557E+03 0.  0.
          2    1    1    2  501    0  0.23959531527E+02 -0.12414757368E+03 -0.25625601559E+04  0.25656775386E+04  0.00000000000E+00 0. -1.
          1    1    1    2  502    0 -0.91818530439E+02 -0.10538145869E+03  0.10138449393E+03  0.17266936607E+03  0.00000000000E+00 0. -1.
         22    1    3    3    0    0  0.69691185751E+02  0.19806985366E+03 -0.50577150515E+02  0.21597818513E+03  0.00000000000E+00 0. -1.
         22    1    3    3    0    0 -0.18321868383E+01  0.31459178719E+02  0.44008792027E+02  0.54127724965E+02  0.00000000000E+00 0. -1.
</event>
<event>
 7    1  0.2895750E-005  0.1703400E+03  0.7818608E-02  0.1256560E+00
          2   -1    0    0  502    0  0.00000000000E+00  0.00000000000E+00  0.17946534683E+04  0.17946534683E+04  0.00000000000E+00 0. -1.
          1   -1    0    0  501    0 -0.00000000000E+00 -0.00000000000E+00 -0.10557351956E+03  0.10557351956E+03  0.00000000000E+00 0. -1.
         25    2    1    2    0    0 -0.14623135363E+03 -0.17685382503E+03  0.29956395943E+03  0.39752305719E+03  0.12500052399E+03 0.  0.
          2    1    1    2  501    0  0.19585375045E+02  0.71253622913E+02 -0.25454605421E+02  0.78157550057E+02  0.00000000000E+00 0. -1.
          1    1    1    2  502    0  0.12664597859E+03  0.10560020212E+03  0.14149705948E+04  0.14245463806E+04  0.00000000000E+00 0. -1.
         22    1    3    3    0    0 -0.71242923594E+02 -0.16002058028E+03  0.25281451342E+03  0.30756677075E+03  0.00000000000E+00 0.  1.
         22    1    3    3    0    0 -0.74988430039E+02 -0.16833244754E+02  0.46749446016E+02  0.89956286448E+02  0.00000000000E+00 0.  1.
</event>
<event>
 7    1  0.2895750E-005  0.1732618E+03  0.7818608E-02  0.1198207E+00
          2   -1    0    0  502    0  0.00000000000E+00  0.00000000000E+00  0.19097800464E+04  0.19097800464E+04  0.00000000000E+00 0. -1.
          1   -1    0    0  501    0 -0.00000000000E+00 -0.00000000000E+00 -0.12740741322E+03  0.12740741322E+03  0.00000000000E+00 0. -1.
         25    2    1    2    0    0  0.11389623878E+03 -0.12593818354E+03  0.31854222183E+03  0.38200216741E+03  0.12499491803E+03 0.  0.
          2    1    1    2  501    0 -0.12117947881E+03 -0.55055701288E+02 -0.41171035111E+02  0.13932211046E+03  0.00000000000E+00 0. -1.
          1    1    1    2  502    0  0.72832400280E+01  0.18099388483E+03  0.15050014465E+04  0.15158631818E+04  0.00000000000E+00 0. -1.
         22    1    3    3    0    0  0.87106214882E+01 -0.99185547200E+02  0.12189126732E+03  0.15738846447E+03  0.00000000000E+00 0. -1.
         22    1    3    3    0    0  0.10518561730E+03 -0.26752636342E+02  0.19665095451E+03  0.22461370294E+03  0.00000000000E+00 0. -1.
</event>
<event>
 7    1  0.2895750E-005  0.5153641E+03  0.7818608E-02  0.1102221E+00
          2   -1    0    0  502    0  0.00000000000E+00  0.00000000000E+00  0.12500007530E+04  0.12500007530E+04  0.00000000000E+00 0. -1.
          1   -1    0    0  501    0 -0.00000000000E+00 -0.00000000000E+00 -0.15610979266E+04  0.15610979266E+04  0.00000000000E+00 0. -1.
         25    2    1    2    0    0 -0.10442815407E+03  0.61179673645E+03  0.20643985628E+03  0.66591197058E+03  0.12498340771E+03 0.  0.
          2    1    1    2  501    0  0.47991065470E+01 -0.13966021918E+03 -0.12556173137E+04  0.12633696398E+04  0.00000000000E+00 0. -1.
          1    1    1    2  502    0  0.99629047518E+02 -0.47213651727E+03  0.73808028391E+03  0.88181706921E+03  0.00000000000E+00 0. -1.
         22    1    3    3    0    0 -0.86239104220E+01  0.17902636732E+03  0.56941675527E+01  0.17932438643E+03  0.00000000000E+00 0. -1.
         22    1    3    3    0    0 -0.95804243643E+02  0.43277036914E+03  0.20074568872E+03  0.48658758414E+03  0.00000000000E+00 0. -1.
</event>
<event>
 7    1  0.2895750E-005  0.9480890E+02  0.7818608E-02  0.1360038E+00
          2   -1    0    0  502    0  0.00000000000E+00  0.00000000000E+00  0.48105066183E+03  0.48105066183E+03  0.00000000000E+00 0. -1.
          1   -1    0    0  501    0 -0.00000000000E+00 -0.00000000000E+00 -0.17482215761E+03  0.17482215761E+03  0.00000000000E+00 0. -1.
         25    2    1    2    0    0  0.78239634931E+02 -0.10722110523E+01  0.24220385150E+03  0.28356428153E+03  0.12499362369E+03 0.  0.
          2    1    1    2  501    0  0.21276095892E+02  0.47126644520E+02 -0.13528247523E+03  0.14482727984E+03  0.00000000000E+00 0. -1.
          1    1    1    2  502    0 -0.99515730824E+02 -0.46054433467E+02  0.19930712795E+03  0.22748125808E+03  0.00000000000E+00 0. -1.
         22    1    3    3    0    0  0.13177885295E+02 -0.44578102237E+02  0.17284524151E+03  0.17898698660E+03  0.00000000000E+00 0.  1.
         22    1    3    3    0    0  0.65061749636E+02  0.43505891185E+02  0.69358609996E+02  0.10457729493E+03  0.00000000000E+00 0.  1.
</event>
<event>
 7    1  0.2895750E-005  0.1792598E+03  0.7818608E-02  0.1214393E+00
          2   -1    0    0  502    0  0.00000000000E+00  0.00000000000E+00  0.20407058319E+03  0.20407058319E+03  0.00000000000E+00 0. -1.
          1   -1    0    0  501    0 -0.00000000000E+00 -0.00000000000E+00 -0.20526278700E+04  0.20526278700E+04  0.00000000000E+00 0. -1.
         25    2    1    2    0    0  0.25773965280E+03  0.64006077760E+02 -0.93354767250E+03  0.97860751743E+03  0.12503963265E+03 0.  0.
          2    1    1    2  501    0 -0.82059956052E+02 -0.70387067058E+02 -0.10505577041E+04  0.10561058968E+04  0.00000000000E+00 0. -1.
          1    1    1    2  502    0 -0.17567969674E+03  0.63809892979E+01  0.13554808980E+03  0.22198503896E+03  0.00000000000E+00 0. -1.
         22    1    3    3    0    0  0.49431019298E+02 -0.14366807324E+02 -0.70307226695E+02  0.87137460068E+02  0.00000000000E+00 0.  1.
         22    1    3    3    0    0  0.20830863350E+03  0.78372885085E+02 -0.86324044580E+03  0.89147005737E+03  0.00000000000E+00 0.  1.
</event>
<event>
 7    1  0.2895750E-005  0.8003064E+02  0.7818608E-02  0.1341484E+00
          2   -1    0    0  502    0  0.00000000000E+00  0.00000000000E+00  0.90592423442E+03  0.90592423442E+03  0.00000000000E+00 0. -1.
          1   -1    0    0  501    0 -0.00000000000E+00 -0.00000000000E+00 -0.50398956188E+03  0.50398956188E+03  0.00000000000E+00 0. -1.
         25    2    1    2    0    0  0.99522817206E+02  0.37549948756E+02 -0.74971683335E+02  0.18044105738E+03  0.12499372820E+03 0.  0.
          2    1    1    2  501    0 -0.25166705677E+02 -0.67189083997E+02 -0.37096079829E+03  0.37783548001E+03  0.00000000000E+00 0. -1.
          1    1    1    2  502    0 -0.74356111530E+02  0.29639135242E+02  0.84786715417E+03  0.85163725892E+03  0.00000000000E+00 0. -1.
         22    1    3    3    0    0  0.44498276261E+02  0.49628830785E+02  0.20370009300E+02  0.69699746873E+02  0.00000000000E+00 0. -1.
         22    1    3    3    0    0  0.55024540946E+02 -0.12078882029E+02 -0.95341692635E+02  0.11074131050E+03  0.00000000000E+00 0. -1.
</event>
<event>
 7    1  0.2895750E-005  0.2443327E+03  0.7818608E-02  0.1133495E+00
          2   -1    0    0  502    0  0.00000000000E+00  0.00000000000E+00  0.12812000422E+03  0.12812000422E+03  0.00000000000E+00 0. -1.
          1   -1    0    0  501    0 -0.00000000000E+00 -0.00000000000E+00 -0.22763168007E+04  0.22763168007E+04  0.00000000000E+00 0. -1.
         25    2    1    2    0    0  0.12134883073E+03  0.11104787741E+03 -0.30780947433E+03  0.37071429015E+03  0.12500097056E+03 0.  0.
          2    1    1    2  501    0  0.19579683480E+03 -0.35737716269E+02 -0.16379795548E+04  0.16500274564E+04  0.00000000000E+00 0. -1.
          1    1    1    2  502    0 -0.31714566553E+03 -0.75310161142E+02 -0.20240776733E+03  0.38369505836E+03  0.00000000000E+00 0. -1.
         22    1    3    3    0    0  0.60051371515E+02  0.11969871641E+03 -0.14938006079E+03  0.20061992048E+03  0.00000000000E+00 0.  1.
         22    1    3    3    0    0  0.61297459213E+02 -0.86508389979E+01 -0.15842941353E+03  0.17009436967E+03  0.00000000000E+00 0.  1.
</event>
<event>
 7    1  0.2895750E-005  0.1544073E+03  0.7818608E-02  0.1416363E+00
          2   -1    0    0  502    0  0.00000000000E+00  0.00000000000E+00  0.21470461700E+04  0.21470461700E+04  0.00000000000E+00 0. -1.
          1   -1    0    0  501    0 -0.00000000000E+00 -0.00000000000E+00 -0.94102188841E+02  0.94102188841E+02  0.00000000000E+00 0. -1.
         25    2    1    2    0    0 -0.66485916963E+02 -0.13936551732E+03  0.63919001617E+03  0.66935198886E+03  0.12500033459E+03 0.  0.
          2    1    1    2  501    0  0.84142747909E+02  0.12962859129E+03 -0.33201838706E+01  0.15457877385E+03  0.00000000000E+00 0. -1.
          1    1    1    2  502    0 -0.17656830946E+02  0.97369260365E+01  0.14170741488E+04  0.14172175961E+04  0.00000000000E+00 0. -1.
         22    1    3    3    0    0 -0.51480562026E+02 -0.23242850694E+02  0.38946978319E+03  0.39354439444E+03  0.00000000000E+00 0.  1.
         22    1    3    3    0    0 -0.15005354937E+02 -0.11612266663E+03  0.24972023298E+03  0.27580759442E+03  0.00000000000E+00 0.  1.
</event>
<event>
 7    1  0.2895750E-005  0.1643551E+03  0.7818608E-02  0.1265547E+00
          2   -1    0    0  502    0  0.00000000000E+00  0.00000000000E+00  0.27039637105E+03  0.27039637105E+03  0.00000000000E+00 0. -1.
          1   -1    0    0  501    0 -0.00000000000E+00 -0.00000000000E+00 -0.81715151581E+03  0.81715151581E+03  0.00000000000E+00 0. -1.
         25    2    1    2    0    0  0.14374711460E+03  0.70456545654E+02 -0.65272276055E+03  0.68359250659E+03  0.12499742053E+03 0.  0.
          2    1    1    2  501    0 -0.13154649120E+03 -0.13951107269E+03 -0.78052809943E+02  0.20702671298E+03  0.00000000000E+00 0. -1.
          1    1    1    2  502    0 -0.12200623409E+02  0.69054527035E+02  0.18402042573E+03  0.19692866729E+03  0.00000000000E+00 0. -1.
         22    1    3    3    0    0  0.14183671732E+03  0.13930016467E+02 -0.52311094726E+03  0.54217779637E+03  0.00000000000E+00 0. -1.
         22    1    3    3    0    0  0.19103972839E+01  0.56526529187E+02 -0.12961181329E+03  0.14141471021E+03  0.00000000000E+00 0. -1.
</event>
<event>
 7    1  0.2895750E-005  0.7511796E+02  0.7818608E-02  0.1506863E+00
          2   -1    0    0  502    0  0.00000000000E+00  0.00000000000E+00  0.12084747711E+03  0.12084747711E+03  0.00000000000E+00 0. -1.
          1   -1    0    0  501    0 -0.00000000000E+00 -0.00000000000E+00 -0.98557353686E+03  0.98557353686E+03  0.00000000000E+00 0. -1.
         25    2    1    2    0    0  0.42881935692E+02  0.41678489038E+02 -0.31452201630E+03  0.34369547622E+03  0.12500609898E+03 0.  0.
          2    1    1    2  501    0 -0.64295191178E+02 -0.43563805323E+02 -0.65305266286E+03  0.65765451204E+03  0.00000000000E+00 0. -1.
          1    1    1    2  502    0  0.21413255486E+02  0.18853162849E+01  0.10284861941E+03  0.10507102570E+03  0.00000000000E+00 0. -1.
         22    1    3    3    0    0  0.13700333922E+02 -0.41207789505E+02 -0.57424070836E+02  0.71995173288E+02  0.00000000000E+00 0. -1.
         22    1    3    3    0    0  0.29181601770E+02  0.82886278544E+02 -0.25709794547E+03  0.27170030294E+03  0.00000000000E+00 0. -1.
</event>
<event>
 7    1  0.2895750E-005  0.1097128E+03  0.7818608E-02  0.1437463E+00
          2   -1    0    0  502    0  0.00000000000E+00  0.00000000000E+00  0.86981884423E+03  0.86981884423E+03  0.00000000000E+00 0. -1.
          1   -1    0    0  501    0 -0.00000000000E+00 -0.00000000000E+00 -0.59905263022E+03  0.59905263022E+03  0.00000000000E+00 0. -1.
         25    2    1    2    0    0  0.57661028588E+02 -0.65143476681E+02  0.24393326789E+03  0.28756833765E+03  0.12499457134E+03 0.  0.
          2    1    1    2  501    0 -0.67055228089E+02  0.87408552944E+02 -0.57173268756E+03  0.58224988172E+03  0.00000000000E+00 0. -1.
          1    1    1    2  502    0  0.93941995016E+01 -0.22265076263E+02  0.59856563367E+03  0.59905325508E+03  0.00000000000E+00 0. -1.
         22    1    3    3    0    0  0.25673858430E+01 -0.89963479565E+02  0.16735747158E+03  0.19002247872E+03  0.00000000000E+00 0. -1.
         22    1    3    3    0    0  0.55093642745E+02  0.24820002884E+02  0.76575796317E+02  0.97545858936E+02  0.00000000000E+00 0. -1.
</event>
<event>
 7    1  0.2895750E-005  0.2455569E+03  0.7818608E-02  0.1178012E+00
          2   -1    0    0  502    0  0.00000000000E+00  0.00000000000E+00  0.10145532885E+04  0.10145532885E+04  0.00000000000E+00 0. -1.
          1   -1    0    0  501    0 -0.00000000000E+00 -0.00000000000E+00 -0.57669920079E+03  0.57669920079E+03  0.00000000000E+00 0. -1.
         25    2    1    2    0    0  0.17285036690E+02  0.30698906225E+03  0.67218462450E+03  0.74966521133E+03  0.12499881131E+03 0.  0.
          2    1    1    2  501    0  0.21331125075E+02 -0.11552116209E+03 -0.49900370404E+03  0.51264495748E+03  0.00000000000E+00 0. -1.
          1    1    1    2  502    0 -0.38616161765E+02 -0.19146790017E+03  0.26467316725E+03  0.32894232048E+03  0.00000000000E+00 0. -1.
         22    1    3    3    0    0  0.26305079488E+02  0.21980826950E+03  0.33697736409E+03  0.40318900835E+03  0.00000000000E+00 0.  1.
         22    1    3    3    0    0 -0.90200427989E+01  0.87180792749E+02  0.33520726041E+03  0.34647620298E+03  0.00000000000E+00 0.  1.
</event>
<event>
 7    1  0.2895750E-005  0.3795248E+03  0.7818608E-02  0.1153013E+00
          2   -1    0    0  502    0  0.00000000000E+00  0.00000000000E+00  0.12936932276E+04  0.12936932276E+04  0.00000000000E+00 0. -1.
          1   -1    0    0  501    0 -0.00000000000E+00 -0.00000000000E+00 -0.18526027917E+03  0.18526027917E+03  0.00000000000E+00 0. -1.
         25    2    1    2    0    0  0.23651975118E+03  0.33432859130E+03  0.20815407417E+03  0.47609900006E+03  0.12499975842E+03 0.  0.
          2    1    1    2  501    0 -0.14276315992E+03 -0.29572045634E+03  0.57525562130E+03  0.66238277300E+03  0.00000000000E+00 0. -1.
          1    1    1    2  502    0 -0.93756591267E+02 -0.38608134957E+02  0.32502325296E+03  0.34047173371E+03  0.00000000000E+00 0. -1.
         22    1    3    3    0    0  0.63251510378E+02  0.14556909445E+03  0.23910731257E+02  0.16050806177E+03  0.00000000000E+00 0.  1.
         22    1    3    3    0    0  0.17326824080E+03  0.18875949685E+03  0.18424334291E+03  0.31559093828E+03  0.00000000000E+00 0.  1.
</event>
<event>
 7    1  0.2895750E-005  0.1253326E+03  0.7818608E-02  0.1249252E+00
          2   -1    0    0  502    0  0.00000000000E+00  0.00000000000E+00  0.14455678043E+04  0.14455678043E+04  0.00000000000E+00 0. -1.
          1   -1    0    0  501    0 -0.00000000000E+00 -0.00000000000E+00 -0.48495753344E+03  0.48495753344E+03  0.00000000000E+00 0. -1.
         25    2    1    2    0    0 -0.97230298595E+02  0.32788753688E+02 -0.42675741498E+03  0.45637310412E+03  0.12500274233E+03 0.  0.
          2    1    1    2  501    0  0.22167156204E+03 -0.47709709302E+02  0.28271266902E+03  0.36240992123E+03  0.00000000000E+00 0. -1.
          1    1    1    2  502    0 -0.12444126345E+03  0.14920955614E+02  0.11046550168E+04  0.11117423124E+04  0.00000000000E+00 0. -1.
         22    1    3    3    0    0 -0.20125529213E+02 -0.69536477713E+01 -0.31096151613E+03  0.31168967685E+03  0.00000000000E+00 0.  1.
         22    1    3    3    0    0 -0.77104769382E+02  0.39742401459E+02 -0.11579589885E+03  0.14468342727E+03  0.00000000000E+00 0.  1.
</event>
<event>
 7    1  0.3813789E-005  0.2282995E+03  0.7818608E-02  0.1189439E+00
          2   -1    0    0  502    0  0.00000000000E+00  0.00000000000E+00  0.26067443073E+04  0.26067443073E+04  0.00000000000E+00 0. -1.
          1   -1    0    0  501    0 -0.00000000000E+00 -0.00000000000E+00 -0.63824695429E+03  0.63824695429E+03  0.00000000000E+00 0. -1.
         25    2    1    2    0    0  0.24180172118E+02  0.23887036481E+03 -0.31597958807E+03  0.41606710405E+03  0.12500001233E+03 0.  0.
          2    1    1    2  501    0  0.10059161929E+03 -0.47438347446E+02 -0.25551734039E+03  0.27867217644E+03  0.00000000000E+00 0. -1.
          1    1    1    2  502    0 -0.12477179141E+03 -0.19143201736E+03  0.25399942815E+04  0.25502519811E+04  0.00000000000E+00 0. -1.
         22    1    3    3    0    0 -0.44931418929E+02  0.78354267581E+02 -0.69738267624E+02  0.11411244291E+03  0.00000000000E+00 0. -1.
         22    1    3    3    0    0  0.69111591047E+02  0.16051609723E+03 -0.24624132045E+03  0.30195466114E+03  0.00000000000E+00 0. -1.
</event>
<event>
 7    1  0.2895750E-005  0.4949444E+03  0.7818608E-02  0.1071497E+00
          2   -1    0    0  502    0  0.00000000000E+00  0.00000000000E+00  0.14389843297E+04  0.14389843297E+04  0.00000000000E+00 0. -1.
          1   -1    0    0  501    0 -0.00000000000E+00 -0.00000000000E+00 -0.79791813411E+03  0.79791813411E+03  0.00000000000E+00 0. -1.
         25    2    1    2    0    0 -0.20789878108E+03  0.23293141725E+03 -0.23067496152E+03  0.40781804820E+03  0.12500269697E+03 0.  0.
          2    1    1    2  501    0 -0.89855872564E+02  0.19965529234E+03 -0.39843367392E+03  0.45462699667E+03  0.00000000000E+00 0. -1.
          1    1    1    2  502    0  0.29775465364E+03 -0.43258670958E+03  0.12701748310E+04  0.13744574189E+04  0.00000000000E+00 0. -1.
         22    1    3    3    0    0 -0.19123724828E+03  0.24592934286E+03 -0.22895221957E+03  0.38661614769E+03  0.00000000000E+00 0.  1.
         22    1    3    3    0    0 -0.16661532801E+02 -0.12997925611E+02 -0.17227419545E+01  0.21201900512E+02  0.00000000000E+00 0.  1.
</event>
<event>
 7    1  0.2895750E-005  0.8307224E+02  0.7818608E-02  0.1419887E+00
          2   -1    0    0  502    0  0.00000000000E+00  0.00000000000E+00  0.28388152589E+04  0.28388152589E+04  0.00000000000E+00 0. -1.
          1   -1    0    0  501    0 -0.00000000000E+00 -0.00000000000E+00 -0.19331829910E+03  0.19331829910E+03  0.00000000000E+00 0. -1.
         25    2    1    2    0    0  0.72479299568E+02  0.93552356236E+02  0.36227289397E+03  0.40108815303E+03  0.12499905827E+03 0.  0.
          2    1    1    2  501    0 -0.47161044672E+02 -0.67297994132E+02 -0.16405935490E+03  0.18349020704E+03  0.00000000000E+00 0. -1.
          1    1    1    2  502    0 -0.25318254896E+02 -0.26254362105E+02  0.24472834207E+04  0.24475551979E+04  0.00000000000E+00 0. -1.
         22    1    3    3    0    0 -0.31939629740E+02  0.28537668282E+02  0.52294294681E+02  0.67596092454E+02  0.00000000000E+00 0.  1.
         22    1    3    3    0    0  0.10441892931E+03  0.65014687955E+02  0.30997859929E+03  0.33349206057E+03  0.00000000000E+00 0.  1.
</event>
<event>
 7    1  0.2895750E-005  0.3393110E+03  0.7818608E-02  0.1109515E+00
          2   -1    0    0  502    0  0.00000000000E+00  0.00000000000E+00  0.96552428373E+03  0.96552428373E+03  0.00000000000E+00 0. -1.
          1   -1    0    0  501    0 -0.00000000000E+00 -0.00000000000E+00 -0.14470613710E+04  0.14470613710E+04  0.00000000000E+00 0. -1.
         25    2    1    2    0    0  0.22602843545E+03 -0.23485095019E+03 -0.12048568352E+04  0.12544108865E+04  0.12499142481E+03 0.  0.
          2    1    1    2  501    0 -0.36402605452E+03  0.37018293824E+03  0.13147791497E+03  0.53557148753E+03  0.00000000000E+00 0. -1.
          1    1    1    2  502    0  0.13799761907E+03 -0.13533198805E+03  0.59184183299E+03  0.62260328070E+03  0.00000000000E+00 0. -1.
         22    1    3    3    0    0  0.17629888240E+03 -0.94323721878E+02 -0.67679545938E+03  0.70571265702E+03  0.00000000000E+00 0. -1.
         22    1    3    3    0    0  0.49729553056E+02 -0.14052722831E+03 -0.52806137584E+03  0.54869822945E+03  0.00000000000E+00 0. -1.
</event>
<event>
 7    1  0.2895750E-005  0.3330030E+03  0.7818608E-02  0.1266933E+00
          2   -1    0    0  502    0  0.00000000000E+00  0.00000000000E+00  0.86198233204E+03  0.86198233204E+03  0.00000000000E+00 0. -1.
          1   -1    0    0  501    0 -0.00000000000E+00 -0.00000000000E+00 -0.22015265829E+03  0.22015265829E+03  0.00000000000E+00 0. -1.
         25    2    1    2    0    0 -0.31402871960E+03 -0.59200831713E+02  0.26140430384E+03  0.43138167783E+03  0.12505665394E+03 0.  0.
          2    1    1    2  501    0 -0.26362867232E+02  0.21701656084E+02 -0.74142218396E+02  0.81627392425E+02  0.00000000000E+00 0. -1.
          1    1    1    2  502    0  0.34039158683E+03  0.37499175629E+02  0.45456758830E+03  0.56912592007E+03  0.00000000000E+00 0. -1.
         22    1    3    3    0    0 -0.10606765764E+03  0.33686578924E+02  0.11816771849E+03  0.16232295984E+03  0.00000000000E+00 0. -1.
         22    1    3    3    0    0 -0.20796106196E+03 -0.92887410637E+02  0.14323658534E+03  0.26905871799E+03  0.00000000000E+00 0. -1.
</event>
<event>
 7    1  0.2895750E-005  0.2061134E+03  0.7818608E-02  0.1300305E+00
          2   -1    0    0  502    0  0.00000000000E+00  0.00000000000E+00  0.39713310930E+03  0.39713310930E+03  0.00000000000E+00 0. -1.
          1   -1    0    0  501    0 -0.00000000000E+00 -0.00000000000E+00 -0.19374497061E+04  0.19374497061E+04  0.00000000000E+00 0. -1.
         25    2    1    2    0    0  0.20035613720E+03  0.91835812091E+01 -0.74368148194E+02  0.24775431833E+03  0.12499864363E+03 0.  0.
          2    1    1    2  501    0  0.53554331093E+01 -0.39871826034E+02 -0.17412931937E+04  0.17417578562E+04  0.00000000000E+00 0. -1.
          1    1    1    2  502    0 -0.20571157031E+03  0.30688244825E+02  0.27534474510E+03  0.34507064086E+03  0.00000000000E+00 0. -1.
         22    1    3    3    0    0  0.21171287252E+03  0.13069385545E+02 -0.87951813118E+02  0.22962724286E+03  0.00000000000E+00 0. -1.
         22    1    3    3    0    0 -0.11356735323E+02 -0.38858043360E+01  0.13583664923E+02  0.18127075475E+02  0.00000000000E+00 0. -1.
</event>
<event>
 7    1  0.2895750E-005  0.3312420E+03  0.7818608E-02  0.1111799E+00
          2   -1    0    0  502    0  0.00000000000E+00  0.00000000000E+00  0.27086346358E+04  0.27086346358E+04  0.00000000000E+00 0. -1.
          1   -1    0    0  501    0 -0.00000000000E+00 -0.00000000000E+00 -0.12188055929E+04  0.12188055929E+04  0.00000000000E+00 0. -1.
         25    2    1    2    0    0 -0.20862492850E+03  0.19637812581E+03 -0.18284129621E+03  0.36213869166E+03  0.12499905323E+03 0.  0.
          2    1    1    2  501    0  0.14028045918E+03  0.13156200283E+03 -0.92567960809E+03  0.94544693381E+03  0.00000000000E+00 0. -1.
          1    1    1    2  502    0  0.68344469323E+02 -0.32794012864E+03  0.25983499472E+04  0.26198546033E+04  0.00000000000E+00 0. -1.
         22    1    3    3    0    0 -0.44383650267E+01  0.14254299232E+02  0.17516577884E+02  0.23015530224E+02  0.00000000000E+00 0.  1.
         22    1    3    3    0    0 -0.20418656347E+03  0.18212382658E+03 -0.20035787410E+03  0.33912316144E+03  0.00000000000E+00 0.  1.
</event>
<event>
 7    1  0.2895750E-005  0.1047857E+03  0.7818608E-02  0.1363985E+00
          2   -1    0    0  502    0  0.00000000000E+00  0.00000000000E+00  0.12764040384E+04  0.12764040384E+04  0.00000000000E+00 0. -1.
          1   -1    0    0  501    0 -0.00000000000E+00 -0.00000000000E+00 -0.70385093134E+03  0.70385093134E+03  0.00000000000E+00 0. -1.
         25    2    1    2    0    0 -0.63434772698E+00  0.14528464209E+03  0.93122065385E+02  0.21308659862E+03  0.12500459921E+03 0.  0.
          2    1    1    2  501    0  0.15544785452E+02 -0.10254921869E+03 -0.63923096141E+03  0.64759107826E+03  0.00000000000E+00 0. -1.
          1    1    1    2  502    0 -0.14910437725E+02 -0.42735423402E+02  0.11186620031E+04  0.11195772929E+04  0.00000000000E+00 0. -1.
         22    1    3    3    0    0  0.27778861388E+02  0.43148986901E+01 -0.16200102824E+02  0.32445751991E+02  0.00000000000E+00 0.  1.
         22    1    3    3    0    0 -0.28413209115E+02  0.14096974340E+03  0.10932216821E+03  0.18064084663E+03  0.00000000000E+00 0.  1.
</event>
<event>
 7    1  0.2895750E-005  0.4471575E+03  0.7818608E-02  0.1044363E+00
          2   -1    0    0  502    0  0.00000000000E+00  0.00000000000E+00  0.26734417745E+04  0.26734417745E+04  0.00000000000E+00 0. -1.
          1   -1    0    0  501    0 -0.00000000000E+00 -0.00000000000E+00 -0.26682234986E+03  0.26682234986E+03  0.00000000000E+00 0. -1.
         25    2    1    2    0    0 -0.45357320139E+03 -0.25055557592E+03  0.53203233645E+03  0.75312018086E+03  0.12499941658E+03 0.  0.
          2    1    1    2  501    0  0.14728799733E+03  0.42967432158E+03  0.23850312725E+03  0.51302779504E+03  0.00000000000E+00 0. -1.
          1    1    1    2  502    0  0.30628520406E+03 -0.17911874566E+03  0.16360839609E+04  0.16741161485E+04  0.00000000000E+00 0. -1.
         22    1    3    3    0    0 -0.43677527726E+03 -0.20498975763E+03  0.50063831506E+03  0.69529286352E+03  0.00000000000E+00 0. -1.
         22    1    3    3    0    0 -0.16797924129E+02 -0.45565818287E+02  0.31394021391E+02  0.57827317337E+02  0.00000000000E+00 0. -1.
</event>
<event>
 7    1  0.2895750E-005  0.6711800E+02  0.7818608E-02  0.1437372E+00
          2   -1    0    0  502    0  0.00000000000E+00  0.00000000000E+00  0.62764546732E+03  0.62764546732E+03  0.00000000000E+00 0. -1.
          1   -1    0    0  501    0 -0.00000000000E+00 -0.00000000000E+00 -0.68585098232E+02  0.68585098232E+02  0.00000000000E+00 0. -1.
         25    2    1    2    0    0 -0.89280893934E+02  0.34746112540E+02  0.25256882308E+03  0.29764834101E+03  0.12500061662E+03 0.  0.
          2    1    1    2  501    0  0.64921114945E+02 -0.36149895057E+01 -0.21295614806E+02  0.68420190915E+02  0.00000000000E+00 0. -1.
          1    1    1    2  502    0  0.24359778989E+02 -0.31131123034E+02  0.32778716081E+03  0.33016203363E+03  0.00000000000E+00 0. -1.
         22    1    3    3    0    0 -0.69164656284E+02  0.73173571509E+02  0.11231259856E+03  0.15083846009E+03  0.00000000000E+00 0. -1.
         22    1    3    3    0    0 -0.20116237649E+02 -0.38427458969E+02  0.14025622452E+03  0.14680988092E+03  0.00000000000E+00 0. -1.
</event>
<event>
 7    1  0.2895750E-005  0.5845668E+02  0.7818608E-02  0.1450649E+00
          2   -1    0    0  502    0  0.00000000000E+00  0.00000000000E+00  0.11397977117E+04  0.11397977117E+04  0.00000000000E+00 0. -1.
          1   -1    0    0  501    0 -0.00000000000E+00 -0.00000000000E+00 -0.18024023286E+03  0.18024023286E+03  0.00000000000E+00 0. -1.
         25    2    1    2    0    0  0.83631753333E+02  0.33673432145E+02 -0.48814571488E+01  0.15420094595E+03  0.12500373158E+03 0.  0.
          2    1    1    2  501    0 -0.40732233305E+02  0.56501740514E+01 -0.95669170671E+02  0.10413274948E+03  0.00000000000E+00 0. -1.
          1    1    1    2  502    0 -0.42899520028E+02 -0.39323606196E+02  0.10601081067E+04  0.10617042492E+04  0.00000000000E+00 0. -1.
         22    1    3    3    0    0  0.56652163698E+02  0.29312537575E+02 -0.63201486006E+02  0.89794879276E+02  0.00000000000E+00 0.  1.
         22    1    3    3    0    0  0.26979589635E+02  0.43608945702E+01  0.58320028858E+02  0.64406066673E+02  0.00000000000E+00 0.  1.
</event>
<event>
 7    1  0.2895750E-005  0.5072037E+03  0.7818608E-02  0.1121451E+00
          2   -1    0    0  502    0  0.00000000000E+00  0.00000000000E+00  0.51441243315E+03  0.51441243315E+03  0.00000000000E+00 0. -1.
          1   -1    0    0  501    0 -0.00000000000E+00 -0.00000000000E+00 -0.20674522252E+04  0.20674522252E+04  0.00000000000E+00 0. -1.
         25    2    1    2    0    0 -0.17199398392E+03  0.42057134319E+03 -0.94113267988E+03  0.10525304285E+04  0.12500958622E+03 0.  0.
          2    1    1    2  501    0  0.71145441344E+02  0.85508713082E+02 -0.92108066677E+03  0.92777314497E+03  0.00000000000E+00 0. -1.
          1    1    1    2  502    0  0.10084854258E+03 -0.50608005627E+03  0.30917355462E+03  0.60156108482E+03  0.00000000000E+00 0. -1.
         22    1    3    3    0    0 -0.58750899939E+02  0.52889138884E+02 -0.99076072731E+02  0.12674777096E+03  0.00000000000E+00 0.  1.
         22    1    3    3    0    0 -0.11324308398E+03  0.36768220431E+03 -0.84205660715E+03  0.92578265758E+03  0.00000000000E+00 0.  1.
</event>
<event>
 7    1  0.2895750E-005  0.1824022E+03  0.7818608E-02  0.1202428E+00
          2   -1    0    0  502    0  0.00000000000E+00  0.00000000000E+00  0.77255357500E+03  0.77255357500E+03  0.00000000000E+00 0. -1.
          1   -1    0    0  501    0 -0.00000000000E+00 -0.00000000000E+00 -0.15856739435E+03  0.15856739435E+03  0.00000000000E+00 0. -1.
         25    2    1    2    0    0  0.95265267224E+02  0.21789369858E+03  0.18024125328E+03  0.32352008188E+03  0.12500079592E+03 0.  0.
          2    1    1    2  501    0 -0.11261057245E+03 -0.43633089293E+02 -0.18920662889E+02  0.12224147820E+03  0.00000000000E+00 0. -1.
          1    1    1    2  502    0  0.17345305224E+02 -0.17426060929E+03  0.45266559026E+03  0.48535940927E+03  0.00000000000E+00 0. -1.
         22    1    3    3    0    0 -0.43052546102E+01 -0.14671791002E+02  0.14540347144E+02  0.21100198187E+02  0.00000000000E+00 0. -1.
         22    1    3    3    0    0  0.99570521834E+02  0.23256548958E+03  0.16570090613E+03  0.30241988370E+03  0.00000000000E+00 0. -1.
</event>
<event>
 7    1  0.2895750E-005  0.1853659E+03  0.7818608E-02  0.1259268E+00
          2   -1    0    0  502    0  0.00000000000E+00  0.00000000000E+00  0.68747803630E+02  0.68747803630E+02  0.00000000000E+00 0. -1.
          1   -1    0    0  501    0 -0.00000000000E+00 -0.00000000000E+00 -0.22967707058E+04  0.22967707058E+04  0.00000000000E+00 0. -1.
         25    2    1    2    0    0 -0.13646444255E+03 -0.12710352135E+03 -0.14467938203E+04  0.14641087645E+04  0.12499706642E+03 0.  0.
          2    1    1    2  501    0 -0.35645330266E+02  0.55685291365E+02 -0.69138990148E+03  0.69454404980E+03  0.00000000000E+00 0. -1.
          1    1    1    2  502    0  0.17210977282E+03  0.71418229989E+02 -0.89839180338E+02  0.20686569507E+03  0.00000000000E+00 0. -1.
         22    1    3    3    0    0  0.97976393478E+01 -0.46967612896E+02 -0.17616800416E+03  0.18258454504E+03  0.00000000000E+00 0. -1.
         22    1    3    3    0    0 -0.14626208190E+03 -0.80135908458E+02 -0.12706258161E+04  0.12815242195E+04  0.00000000000E+00 0. -1.
</event>
<event>
 7    1  0.2895750E-005  0.2210151E+03  0.7818608E-02  0.1248420E+00
          2   -1    0    0  502    0  0.00000000000E+00  0.00000000000E+00  0.77083996504E+03  0.77083996504E+03  0.00000000000E+00 0. -1.
          1   -1    0    0  501    0 -0.00000000000E+00 -0.00000000000E+00 -0.63123836249E+03  0.63123836249E+03  0.00000000000E+00 0. -1.
         25    2    1    2    0    0 -0.11688609598E+03 -0.23922431238E+03  0.98724612593E+02  0.31026188257E+03  0.12500102231E+03 0.  0.
          2    1    1    2  501    0 -0.50643782825E+00  0.61755033458E+02 -0.50353025193E+03  0.50730331681E+03  0.00000000000E+00 0. -1.
          1    1    1    2  502    0  0.11739253381E+03  0.17746927892E+03  0.54440724189E+03  0.58451312815E+03  0.00000000000E+00 0. -1.
         22    1    3    3    0    0 -0.87509061045E+02 -0.22404913661E+03  0.12211951072E+03  0.26975734703E+03  0.00000000000E+00 0.  1.
         22    1    3    3    0    0 -0.29377034936E+02 -0.15175175771E+02 -0.23394898123E+02  0.40504535542E+02  0.00000000000E+00 0.  1.
</event>
<event>
 7    1  0.2895750E-005  0.5778730E+02  0.7818608E-02  0.1412954E+00
          2   -1    0    0  502    0  0.00000000000E+00  0.00000000000E+00  0.13765832087E+04  0.13765832087E+04  0.00000000000E+00 0. -1.
          1   -1    0    0  501    0 -0.00000000000E+00 -0.00000000000E+00 -0.12784103360E+03  0.12784103360E+03  0.00000000000E+00 0. -1.
         25    2    1    2    0    0  0.26168156269E+02 -0.95351081336E+02  0.24328046478E+03  0.29083914774E+03  0.12500169679E+03 0.  0.
          2    1    1    2  501    0 -0.38909653928E+02  0.41519076597E+02 -0.95536449560E+02  0.11119805792E+03  0.00000000000E+00 0. -1.
          1    1    1    2  502    0  0.12741497658E+02  0.53832004740E+02  0.11009981599E+04  0.11023870366E+04  0.00000000000E+00 0. -1.
         22    1    3    3    0    0 -0.48802203189E+02 -0.35177093156E+02  0.12247216482E+03  0.13644967598E+03  0.00000000000E+00 0.  1.
         22    1    3    3    0    0  0.74970359459E+02 -0.60173988180E+02  0.12080829996E+03  0.15438947176E+03  0.00000000000E+00 0.  1.
</event>
<event>
 7    1  0.2895750E-005  0.1350510E+03  0.7818608E-02  0.1347492E+00
          2   -1    0    0  502    0  0.00000000000E+00  0.00000000000E+00  0.46494651359E+03  0.46494651359E+03  0.00000000000E+00 0. -1.
          1   -1    0    0  501    0 -0.00000000000E+00 -0.00000000000E+00 -0.84304587736E+02  0.84304587736E+02  0.00000000000E+00 0. -1.
         25    2    1    2    0    0 -0.11652866912E+03  0.91712922168E+02  0.12306289548E+03  0.22969364714E+03  0.12499801788E+03 0.  0.
          2    1    1    2  501    0 -0.50442702178E+01 -0.40059345156E+02  0.14487870207E+02  0.42896318951E+02  0.00000000000E+00 0. -1.
          1    1    1    2  502    0  0.12157293934E+03 -0.51653577012E+02  0.24309116017E+03  0.27666113524E+03  0.00000000000E+00 0. -1.
         22    1    3    3    0    0 -0.12442025532E+03  0.77604061812E+02  0.50098965443E+02  0.15496030679E+03  0.00000000000E+00 0.  1.
         22    1    3    3    0    0  0.78915861953E+01  0.14108860357E+02  0.72963930036E+02  0.74733340348E+02  0.00000000000E+00 0.  1.
</event>
<event>
 7    1  0.2895750E-005  0.4261069E+03  0.7818608E-02  0.1114596E+00
          2   -1    0    0  502    0  0.00000000000E+00  0.00000000000E+00  0.69169595052E+03  0.69169595052E+03  0.00000000000E+00 0. -1.
          1   -1    0    0  501    0 -0.00000000000E+00 -0.00000000000E+00 -0.51649969723E+03  0.51649969723E+03  0.00000000000E+00 0. -1.
         25    2    1    2    0    0 -0.19567770724E+02 -0.45155198930E+03  0.23598687724E+03  0.52497393839E+03  0.12500293223E+03 0.  0.
          2    1    1    2  501    0 -0.11753723215E+03  0.40654699484E+03 -0.21274869285E+03  0.47366387477E+03  0.00000000000E+00 0. -1.
          1    1    1    2  502    0  0.13710500287E+03  0.45004994459E+02  0.15195806889E+03  0.20955783460E+03  0.00000000000E+00 0. -1.
         22    1    3    3    0    0  0.50253500894E+02 -0.19530542023E+03  0.79926631037E+02  0.21692830123E+03  0.00000000000E+00 0.  1.
         22    1    3    3    0    0 -0.69821271618E+02 -0.25624656907E+03  0.15606024620E+03  0.30804563716E+03  0.00000000000E+00 0.  1.
</event>
<event>
 7    1  0.2895750E-005  0.4771738E+02  0.7818608E-02  0.1468501E+00
          2   -1    0    0  502    0  0.00000000000E+00  0.00000000000E+00  0.84868248200E+03  0.84868248200E+03  0.00000000000E+00 0. -1.
          1   -1    0    0  501    0 -0.00000000000E+00 -0.00000000000E+00 -0.38196767458E+02  0.38196767458E+02  0.00000000000E+00 0. -1.
         25    2    1    2    0    0  0.18356780970E+02  0.34550889960E+02  0.45454806891E+03  0.47304353294E+03  0.12500200681E+03 0.  0.
          2    1    1    2  501    0  0.33827880597E+02 -0.28521021487E+02 -0.89863345611E+01  0.45150065129E+02  0.00000000000E+00 0. -1.
          1    1    1    2  502    0 -0.52184661567E+02 -0.60298684729E+01  0.36492398019E+03  0.36868565138E+03  0.00000000000E+00 0. -1.
         22    1    3    3    0    0 -0.25625957435E+02  0.67088072582E+02  0.19529854306E+03  0.20808416590E+03  0.00000000000E+00 0. -1.
         22    1    3    3    0    0  0.43982738405E+02 -0.32537182622E+02  0.25924952585E+03  0.26495936704E+03  0.00000000000E+00 0. -1.
</event>
<event>
 7    1  0.2895750E-005  0.1490440E+03  0.7818608E-02  0.1376359E+00
          2   -1    0    0  502    0  0.00000000000E+00  0.00000000000E+00  0.26305542840E+03  0.26305542840E+03  0.00000000000E+00 0. -1.
          1   -1    0    0  501    0 -0.00000000000E+00 -0.00000000000E+00 -0.14736672355E+04  0.14736672355E+04  0.00000000000E+00 0. -1.
         25    2    1    2    0    0 -0.85867290543E+01 -0.14233517894E+03  0.25352142898E+02  0.19131325132E+03  0.12499997561E+03 0.  0.
          2    1    1    2  501    0 -0.19554976360E+02  0.14809090526E+03 -0.13853028417E+04  0.13933331535E+04  0.00000000000E+00 0. -1.
          1    1    1    2  502    0  0.28141705414E+02 -0.57557263275E+01  0.14933889177E+03  0.15207625904E+03  0.00000000000E+00 0. -1.
         22    1    3    3    0    0 -0.45139574721E+02 -0.88653053787E+02  0.61527511407E+02  0.11697256008E+03  0.00000000000E+00 0. -1.
         22    1    3    3    0    0  0.36552845667E+02 -0.53682125149E+02 -0.36175368510E+02  0.74340691238E+02  0.00000000000E+00 0. -1.
</event>
<event>
 7    1  0.2895750E-005  0.1594231E+03  0.7818608E-02  0.1376342E+00
          2   -1    0    0  502    0  0.00000000000E+00  0.00000000000E+00  0.11849363077E+04  0.11849363077E+04  0.00000000000E+00 0. -1.
          1   -1    0    0  501    0 -0.00000000000E+00 -0.00000000000E+00 -0.12443172081E+04  0.12443172081E+04  0.00000000000E+00 0. -1.
         25    2    1    2    0    0  0.84685756486E+02 -0.12813715846E+03 -0.45447833899E+03  0.49574600471E+03  0.12499092709E+03 0.  0.
          2    1    1    2  501    0 -0.11009529644E+03  0.11943695303E+03 -0.76047147143E+03  0.77762652920E+03  0.00000000000E+00 0. -1.
          1    1    1    2  502    0  0.25409539957E+02  0.87002054277E+01  0.11555689101E+04  0.11558809819E+04  0.00000000000E+00 0. -1.
         22    1    3    3    0    0  0.76741799594E+02 -0.24560885355E+02 -0.29187272631E+03  0.30279073510E+03  0.00000000000E+00 0.  1.
         22    1    3    3    0    0  0.79439568928E+01 -0.10357627310E+03 -0.16260561267E+03  0.19295526962E+03  0.00000000000E+00 0.  1.
</event>
<event>
 7    1  0.2895750E-005  0.3305919E+03  0.7818608E-02  0.1134985E+00
          2   -1    0    0  502    0  0.00000000000E+00  0.00000000000E+00  0.62149169447E+03  0.62149169447E+03  0.00000000000E+00 0. -1.
          1   -1    0    0  501    0 -0.00000000000E+00 -0.00000000000E+00 -0.61276886741E+03  0.61276886741E+03  0.00000000000E+00 0. -1.
         25    2    1    2    0    0 -0.28907801744E+03 -0.14163668044E+03 -0.40890537529E+03  0.53521593462E+03  0.12500176525E+03 0.  0.
          2    1    1    2  501    0  0.27444162106E+03  0.28534598068E+03  0.21595126851E+03  0.45097170913E+03  0.00000000000E+00 0. -1.
          1    1    1    2  502    0  0.14636396384E+02 -0.14370930024E+03  0.20167693383E+03  0.24807291814E+03  0.00000000000E+00 0. -1.
         22    1    3    3    0    0 -0.19907819307E+03 -0.61474295786E+02 -0.17504318598E+03  0.27212374567E+03  0.00000000000E+00 0. -1.
         22    1    3    3    0    0 -0.89999824375E+02 -0.80162384650E+02 -0.23386218930E+03  0.26309218895E+03  0.00000000000E+00 0. -1.
</event>
<event>
 7    1  0.2895750E-005  0.9216793E+02  0.7818608E-02  0.1403260E+00
          2   -1    0    0  502    0  0.00000000000E+00  0.00000000000E+00  0.85737653992E+02  0.85737653992E+02  0.00000000000E+00 0. -1.
          1   -1    0    0  501    0 -0.00000000000E+00 -0.00000000000E+00 -0.15246117705E+04  0.15246117705E+04  0.00000000000E+00 0. -1.
         25    2    1    2    0    0  0.14110041590E+02 -0.12345242910E+03 -0.41887410509E+03  0.45443426528E+03  0.12496155419E+03 0.  0.
          2    1    1    2  501    0 -0.16774062940E+02  0.33446596006E+02 -0.10576528652E+04  0.10583145219E+04  0.00000000000E+00 0. -1.
          1    1    1    2  502    0  0.26640213497E+01  0.90005833096E+02  0.37652853805E+02  0.97600637296E+02  0.00000000000E+00 0. -1.
         22    1    3    3    0    0 -0.45694076761E+02 -0.41210952954E+02 -0.24864967301E+03  0.25615025118E+03  0.00000000000E+00 0. -1.
         22    1    3    3    0    0  0.59804118352E+02 -0.82241476149E+02 -0.17022443208E+03  0.19828401410E+03  0.00000000000E+00 0. -1.
</event>
<event>
 7    1  0.2895750E-005  0.4019574E+03  0.7818608E-02  0.1080612E+00
          2   -1    0    0  502    0  0.00000000000E+00  0.00000000000E+00  0.26862646001E+04  0.26862646001E+04  0.00000000000E+00 0. -1.
          1   -1    0    0  501    0 -0.00000000000E+00 -0.00000000000E+00 -0.56649412589E+03  0.56649412589E+03  0.00000000000E+00 0. -1.
         25    2    1    2    0    0  0.99162862837E+02 -0.36077945115E+03  0.36892303968E+03  0.54011587684E+03  0.12500346186E+03 0.  0.
          2    1    1    2  501    0 -0.23518727951E+03 -0.37925336789E+02 -0.42994595528E+03  0.49153322581E+03  0.00000000000E+00 0. -1.
          1    1    1    2  502    0  0.13602441668E+03  0.39870478794E+03  0.21807933899E+04  0.22211096234E+04  0.00000000000E+00 0. -1.
         22    1    3    3    0    0  0.37902512475E+02 -0.21072236265E+03  0.12706131475E+03  0.24896805474E+03  0.00000000000E+00 0. -1.
         22    1    3    3    0    0  0.61260350362E+02 -0.15005708850E+03  0.24186172492E+03  0.29114782211E+03  0.00000000000E+00 0. -1.
</event>
<event>
 7    1  0.2895750E-005  0.1354925E+03  0.7818608E-02  0.1272537E+00
          2   -1    0    0  502    0  0.00000000000E+00  0.00000000000E+00  0.61464648839E+03  0.61464648839E+03  0.00000000000E+00 0. -1.
          1   -1    0    0  501    0 -0.00000000000E+00 -0.00000000000E+00 -0.14807821209E+03  0.14807821209E+03  0.00000000000E+00 0. -1.
         25    2    1    2    0    0  0.90251375473E+02 -0.62241295880E+01  0.36422978863E+03  0.39556616693E+03  0.12500081172E+03 0.  0.
          2    1    1    2  501    0 -0.15963126878E+03 -0.32579192899E+02  0.18902078070E+03  0.24954438748E+03  0.00000000000E+00 0. -1.
          1    1    1    2  502    0  0.69379893310E+02  0.38803322487E+02 -0.86682293035E+02  0.11761414608E+03  0.00000000000E+00 0. -1.
         22    1    3    3    0    0  0.48771429742E+02 -0.35821012618E+01  0.34723539944E+03  0.35066209723E+03  0.00000000000E+00 0. -1.
         22    1    3    3    0    0  0.41479945731E+02 -0.26420283262E+01  0.16994389185E+02  0.44904069696E+02  0.00000000000E+00 0. -1.
</event>
<event>
 7    1  0.2895750E-005  0.1265419E+03  0.7818608E-02  0.1274602E+00
          2   -1    0    0  502    0  0.00000000000E+00  0.00000000000E+00  0.17864724220E+03  0.17864724220E+03  0.00000000000E+00 0. -1.
          1   -1    0    0  501    0 -0.00000000000E+00 -0.00000000000E+00 -0.47072170539E+03  0.47072170539E+03  0.00000000000E+00 0. -1.
         25    2    1    2    0    0 -0.32845281474E+02  0.16210832373E+03  0.79990493661E+02  0.22221072549E+03  0.12498482432E+03 0.  0.
          2    1    1    2  501    0  0.81461835061E+02 -0.94290479161E+02 -0.24949406706E+03  0.27887992852E+03  0.00000000000E+00 0. -1.
          1    1    1    2  502    0 -0.48616553587E+02 -0.67817844566E+02 -0.12257088979E+03  0.14827829358E+03  0.00000000000E+00 0. -1.
         22    1    3    3    0    0 -0.24887457974E+02  0.15427314308E+03  0.15809489747E+02  0.15706536285E+03  0.00000000000E+00 0. -1.
         22    1    3    3    0    0 -0.79578234996E+01  0.78351806471E+01  0.64181003913E+02  0.65145362643E+02  0.00000000000E+00 0. -1.
</event>
<event>
 7    1  0.2895750E-005  0.2940050E+03  0.7818608E-02  0.1229659E+00
          2   -1    0    0  502    0  0.00000000000E+00  0.00000000000E+00  0.82392069585E+03  0.82392069585E+03  0.00000000000E+00 0. -1.
          1   -1    0    0  501    0 -0.00000000000E+00 -0.00000000000E+00 -0.15534136326E+04  0.15534136326E+04  0.00000000000E+00 0. -1.
         25    2    1    2    0    0 -0.10831517262E+03  0.29191044379E+03  0.55959795152E+02  0.34014169881E+03  0.12498397011E+03 0.  0.
          2    1    1    2  501    0  0.55874636720E+02 -0.59094703763E+01 -0.13769471869E+04  0.13780930493E+04  0.00000000000E+00 0. -1.
          1    1    1    2  502    0  0.52440535895E+02 -0.28600097341E+03  0.59149445499E+03  0.65909958040E+03  0.00000000000E+00 0. -1.
         22    1    3    3    0    0 -0.89914292407E+02  0.29824920990E+03  0.38285297420E+02  0.31385177263E+03  0.00000000000E+00 0. -1.
         22    1    3    3    0    0 -0.18400880208E+02 -0.63387661153E+01  0.17674497732E+02  0.26289926177E+02  0.00000000000E+00 0. -1.
</event>
<event>
 7    1  0.2895750E-005  0.1826315E+03  0.7818608E-02  0.1188719E+00
          2   -1    0    0  502    0  0.00000000000E+00  0.00000000000E+00  0.30884040194E+03  0.30884040194E+03  0.00000000000E+00 0. -1.
          1   -1    0    0  501    0 -0.00000000000E+00 -0.00000000000E+00 -0.85099689789E+03  0.85099689789E+03  0.00000000000E+00 0. -1.
         25    2    1    2    0    0  0.27319213569E+03  0.10168293366E+03 -0.78254891704E+02  0.32668658002E+03  0.12500772571E+03 0.  0.
          2    1    1    2  501    0 -0.11023548562E+03 -0.86528024238E+02 -0.60256494978E+03  0.61864649030E+03  0.00000000000E+00 0. -1.
          1    1    1    2  502    0 -0.16295665007E+03 -0.15154909419E+02  0.13866334554E+03  0.21450422951E+03  0.00000000000E+00 0. -1.
         22    1    3    3    0    0  0.26702379743E+03  0.12117371243E+03 -0.60060755052E+02  0.29931934664E+03  0.00000000000E+00 0.  1.
         22    1    3    3    0    0  0.61683382619E+01 -0.19490778773E+02 -0.18194136652E+02  0.27367233375E+02  0.00000000000E+00 0.  1.
</event>
<event>
 7    1  0.2895750E-005  0.1989903E+03  0.7818608E-02  0.1165013E+00
          2   -1    0    0  502    0  0.00000000000E+00  0.00000000000E+00  0.29733016259E+04  0.29733016259E+04  0.00000000000E+00 0. -1.
          1   -1    0    0  501    0 -0.00000000000E+00 -0.00000000000E+00 -0.44037066794E+02  0.44037066794E+02  0.00000000000E+00 0. -1.
         25    2    1    2    0    0 -0.16104837062E+03 -0.14335409087E+03  0.20060820311E+04  0.20215036227E+04  0.12499923312E+03 0.  0.
          2    1    1    2  501    0 -0.43316450284E+02  0.16245982960E+03  0.41654387995E+03  0.44919741209E+03  0.00000000000E+00 0. -1.
          1    1    1    2  502    0  0.20436482091E+03 -0.19105738735E+02  0.50663864808E+03  0.54663765787E+03  0.00000000000E+00 0. -1.
         22    1    3    3    0    0 -0.61803899215E+02 -0.10874304718E+03  0.69108848235E+03  0.70231621276E+03  0.00000000000E+00 0. -1.
         22    1    3    3    0    0 -0.99244471409E+02 -0.34611043688E+02  0.13149935487E+04  0.13191874100E+04  0.00000000000E+00 0. -1.
</event>
<event>
 7    1  0.2895750E-005  0.1395801E+03  0.7818608E-02  0.1253740E+00
          2   -1    0    0  502    0  0.00000000000E+00  0.00000000000E+00  0.11074511987E+04  0.11074511987E+04  0.00000000000E+00 0. -1.
          1   -1    0    0  501    0 -0.00000000000E+00 -0.00000000000E+00 -0.53550590874E+02  0.53550590874E+02  0.00000000000E+00 0. -1.
         25    2    1    2    0    0  0.15353126650E+03  0.83837143191E+02  0.75412332002E+03  0.78417330954E+03  0.12500112491E+03 0.  0.
          2    1    1    2  501    0 -0.36959559633E+02 -0.85052879123E+02  0.60679046811E+02  0.11082395056E+03  0.00000000000E+00 0. -1.
          1    1    1    2  502    0 -0.11657170687E+03  0.12157359325E+01  0.23909824102E+03  0.26600452950E+03  0.00000000000E+00 0. -1.
         22    1    3    3    0    0  0.39550020092E+02  0.75489456684E+01  0.39137139461E+02  0.56150746702E+02  0.00000000000E+00 0. -1.
         22    1    3    3    0    0  0.11398124641E+03  0.76288197522E+02  0.71498618056E+03  0.72802256284E+03  0.00000000000E+00 0. -1.
</event>
<event>
 7    1  0.2895750E-005  0.3470733E+02  0.7818608E-02  0.1641473E+00
          2   -1    0    0  502    0  0.00000000000E+00  0.00000000000E+00  0.19199787262E+04  0.19199787262E+04  0.00000000000E+00 0. -1.
          1   -1    0    0  501    0 -0.00000000000E+00 -0.00000000000E+00 -0.82932775622E+02  0.82932775622E+02  0.00000000000E+00 0. -1.
         25    2    1    2    0    0  0.40609669296E+02 -0.22854090119E+02  0.73841350439E+03  0.75036629792E+03  0.12499449156E+03 0.  0.
          2    1    1    2  501    0 -0.64677766303E+01  0.19034899135E+02 -0.75387853936E+02  0.78022356031E+02  0.00000000000E+00 0. -1.
          1    1    1    2  502    0 -0.34141892665E+02  0.38191909834E+01  0.11740203001E+04  0.11745228479E+04  0.00000000000E+00 0. -1.
         22    1    3    3    0    0  0.30514414582E+01 -0.41784285155E+02  0.66048335248E+03  0.66181077106E+03  0.00000000000E+00 0. -1.
         22    1    3    3    0    0  0.37558227837E+02  0.18930195036E+02  0.77930151904E+02  0.88555526864E+02  0.00000000000E+00 0. -1.
</event>
<event>
 7    1  0.2895750E-005  0.1451015E+03  0.7818608E-02  0.1268275E+00
          2   -1    0    0  502    0  0.00000000000E+00  0.00000000000E+00  0.72648609212E+03  0.72648609212E+03  0.00000000000E+00 0. -1.
          1   -1    0    0  501    0 -0.00000000000E+00 -0.00000000000E+00 -0.34294752652E+04  0.34294752652E+04  0.00000000000E+00 0. -1.
         25    2    1    2    0    0 -0.17275745738E+03  0.33667418361E+02  0.10476163886E+03  0.23995588281E+03  0.12500076232E+03 0.  0.
          2    1    1    2  501    0  0.14029583671E+03  0.36541455413E+02 -0.33576069531E+04  0.33607354331E+04  0.00000000000E+00 0. -1.
          1    1    1    2  502    0  0.32461620670E+02 -0.70208873774E+02  0.54985614123E+03  0.55527004135E+03  0.00000000000E+00 0. -1.
         22    1    3    3    0    0 -0.27234343712E+02 -0.34904438555E+02  0.56944767600E+02  0.72129992827E+02  0.00000000000E+00 0.  1.
         22    1    3    3    0    0 -0.14552311367E+03  0.68571856916E+02  0.47816871260E+02  0.16782588999E+03  0.00000000000E+00 0.  1.
</event>
<event>
 7    1  0.2895750E-005  0.1009722E+03  0.7818608E-02  0.1283638E+00
          2   -1    0    0  502    0  0.00000000000E+00  0.00000000000E+00  0.18691541756E+04  0.18691541756E+04  0.00000000000E+00 0. -1.
          1   -1    0    0  501    0 -0.00000000000E+00 -0.00000000000E+00 -0.13123402596E+03  0.13123402596E+03  0.00000000000E+00 0. -1.
         25    2    1    2    0    0  0.43123468941E+02  0.13064500411E+03  0.12949424017E+04  0.13082123697E+04  0.12496411351E+03 0.  0.
          2    1    1    2  501    0  0.44170771425E+02 -0.90827536747E+02 -0.99203869563E+02  0.14157014592E+03  0.00000000000E+00 0. -1.
          1    1    1    2  502    0 -0.87294240366E+02 -0.39817467362E+02  0.54218161743E+03  0.55060568594E+03  0.00000000000E+00 0. -1.
         22    1    3    3    0    0 -0.16977197898E+02  0.12338058093E+03  0.81336734725E+03  0.82284715141E+03  0.00000000000E+00 0. -1.
         22    1    3    3    0    0  0.60100666838E+02  0.72644231805E+01  0.48157505447E+03  0.48536521825E+03  0.00000000000E+00 0. -1.
</event>
<event>
 7    1  0.2895750E-005  0.2756726E+03  0.7818608E-02  0.1107757E+00
          2   -1    0    0  502    0  0.00000000000E+00  0.00000000000E+00  0.91909580705E+03  0.91909580705E+03  0.00000000000E+00 0. -1.
          1   -1    0    0  501    0 -0.00000000000E+00 -0.00000000000E+00 -0.10070879045E+04  0.10070879045E+04  0.00000000000E+00 0. -1.
         25    2    1    2    0    0  0.73962529059E+02  0.40186686974E+03  0.12583428413E+03  0.44545284143E+03  0.12500612056E+03 0.  0.
          2    1    1    2  501    0  0.11156116226E+03 -0.21621407070E+03 -0.80123128304E+03  0.83735654665E+03  0.00000000000E+00 0. -1.
          1    1    1    2  502    0 -0.18552369132E+03 -0.18565279904E+03  0.58740490147E+03  0.64337432347E+03  0.00000000000E+00 0. -1.
         22    1    3    3    0    0  0.67123965317E+02  0.31594011958E+03  0.42887194023E+02  0.32582679032E+03  0.00000000000E+00 0.  1.
         22    1    3    3    0    0  0.68385637415E+01  0.85926750163E+02  0.82947090103E+02  0.11962605111E+03  0.00000000000E+00 0.  1.
</event>
<event>
 7    1  0.2895750E-005  0.3380779E+03  0.7818608E-02  0.1223235E+00
          2   -1    0    0  502    0  0.00000000000E+00  0.00000000000E+00  0.92380624419E+03  0.92380624419E+03  0.00000000000E+00 0. -1.
          1   -1    0    0  501    0 -0.00000000000E+00 -0.00000000000E+00 -0.13635441147E+04  0.13635441147E+04  0.00000000000E+00 0. -1.
         25    2    1    2    0    0  0.23788265683E+03  0.25882556466E+03 -0.18628120644E+03  0.41701969719E+03  0.12500363445E+03 0.  0.
          2    1    1    2  501    0  0.23716687210E+02 -0.46537834225E+02 -0.10261018330E+04  0.10274303981E+04  0.00000000000E+00 0. -1.
          1    1    1    2  502    0 -0.26159934404E+03 -0.21228773043E+03  0.77264516894E+03  0.84290026360E+03  0.00000000000E+00 0. -1.
         22    1    3    3    0    0  0.92007061741E+02  0.17005026913E+03 -0.14405720767E+03  0.24111174281E+03  0.00000000000E+00 0. -1.
         22    1    3    3    0    0  0.14587559509E+03  0.88775295532E+02 -0.42223998771E+02  0.17590795437E+03  0.00000000000E+00 0. -1.
</event>
<event>
 7    1  0.2895750E-005  0.4526412E+02  0.7818608E-02  0.1487928E+00
          2   -1    0    0  502    0  0.00000000000E+00  0.00000000000E+00  0.94317063980E+03  0.94317063980E+03  0.00000000000E+00 0. -1.
          1   -1    0    0  501    0 -0.00000000000E+00 -0.00000000000E+00 -0.80763173006E+02  0.80763173006E+02  0.00000000000E+00 0. -1.
         25    2    1    2    0    0  0.41700519440E+02 -0.86502174969E+01  0.33764027982E+01  0.13210003727E+03  0.12500104067E+03 0.  0.
          2    1    1    2  501    0 -0.26659073175E+02  0.46414548863E+02  0.29132539240E+02  0.60940309905E+02  0.00000000000E+00 0. -1.
          1    1    1    2  502    0 -0.15041446266E+02 -0.37764331367E+02  0.82989852475E+03  0.83089346562E+03  0.00000000000E+00 0. -1.
         22    1    3    3    0    0  0.21846150072E+02  0.39416628368E+02  0.46342068535E+02  0.64641412276E+02  0.00000000000E+00 0. -1.
         22    1    3    3    0    0  0.19854369368E+02 -0.48066845865E+02 -0.42965665737E+02  0.67458624998E+02  0.00000000000E+00 0. -1.
</event>
<event>
 7    1  0.2895750E-005  0.2380820E+03  0.7818608E-02  0.1201959E+00
          2   -1    0    0  502    0  0.00000000000E+00  0.00000000000E+00  0.73908960980E+02  0.73908960980E+02  0.00000000000E+00 0. -1.
          1   -1    0    0  501    0 -0.00000000000E+00 -0.00000000000E+00 -0.17961321590E+04  0.17961321590E+04  0.00000000000E+00 0. -1.
         25    2    1    2    0    0 -0.35870948600E+01  0.17121319920E+03 -0.19817443940E+03  0.29021461461E+03  0.12499834908E+03 0.  0.
          2    1    1    2  501    0  0.53333079057E+02 -0.24978477051E+03 -0.14086593639E+04  0.14316277632E+04  0.00000000000E+00 0. -1.
          1    1    1    2  502    0 -0.49745984197E+02  0.78571571312E+02 -0.11538939470E+03  0.14819874214E+03  0.00000000000E+00 0. -1.
         22    1    3    3    0    0  0.54808169824E+02  0.43407379761E+02 -0.83053186349E+02  0.10856319754E+03  0.00000000000E+00 0.  1.
         22    1    3    3    0    0 -0.58395264684E+02  0.12780581944E+03 -0.11512125305E+03  0.18165141707E+03  0.00000000000E+00 0.  1.
</event>
<event>
 7    1  0.2895750E-005  0.1015670E+03  0.7818608E-02  0.1293607E+00
          2   -1    0    0  502    0  0.00000000000E+00  0.00000000000E+00  0.90217173524E+03  0.90217173524E+03  0.00000000000E+00 0. -1.
          1   -1    0    0  501    0 -0.00000000000E+00 -0.00000000000E+00 -0.13970374637E+03  0.13970374637E+03  0.00000000000E+00 0. -1.
         25    2    1    2    0    0 -0.62165547612E+02  0.16024838926E+03  0.27588650190E+03  0.34825624137E+03  0.12499978462E+03 0.  0.
          2    1    1    2  501    0  0.56828123006E+02 -0.65697526911E+02 -0.80652351463E+02  0.11853439333E+03  0.00000000000E+00 0. -1.
          1    1    1    2  502    0  0.53374246057E+01 -0.94550862347E+02  0.56723383844E+03  0.57508484691E+03  0.00000000000E+00 0. -1.
         22    1    3    3    0    0 -0.64758135804E+02  0.18008488424E+03  0.23786719958E+03  0.30529491695E+03  0.00000000000E+00 0. -1.
         22    1    3    3    0    0  0.25925881927E+01 -0.19836494979E+02  0.38019302319E+02  0.42961324414E+02  0.00000000000E+00 0. -1.
</event>
<event>
 7    1  0.2895750E-005  0.5049061E+02  0.7818608E-02  0.1470178E+00
          2   -1    0    0  502    0  0.00000000000E+00  0.00000000000E+00  0.52208204244E+03  0.52208204244E+03  0.00000000000E+00 0. -1.
          1   -1    0    0  501    0 -0.00000000000E+00 -0.00000000000E+00 -0.28099690217E+02  0.28099690217E+02  0.00000000000E+00 0. -1.
         25    2    1    2    0    0  0.58888037027E+02 -0.28761707351E+02  0.36745117412E+03  0.39362474248E+03  0.12500014325E+03 0.  0.
          2    1    1    2  501    0 -0.48373628251E+02 -0.11194852158E+02  0.81581796125E+02  0.95503518700E+02  0.00000000000E+00 0. -1.
          1    1    1    2  502    0 -0.10514408776E+02  0.39956559509E+02  0.44949381975E+02  0.61053471479E+02  0.00000000000E+00 0. -1.
         22    1    3    3    0    0 -0.25269260282E+02 -0.30191764983E+02  0.42432546284E+02  0.57884360342E+02  0.00000000000E+00 0. -1.
         22    1    3    3    0    0  0.84157297309E+02  0.14300576325E+01  0.32501862784E+03  0.33574038213E+03  0.00000000000E+00 0. -1.
</event>
<event>
 7    1  0.2895750E-005  0.4277685E+03  0.7818608E-02  0.1160207E+00
          2   -1    0    0  502    0  0.00000000000E+00  0.00000000000E+00  0.18937644966E+04  0.18937644966E+04  0.00000000000E+00 0. -1.
          1   -1    0    0  501    0 -0.00000000000E+00 -0.00000000000E+00 -0.22908575599E+04  0.22908575599E+04  0.00000000000E+00 0. -1.
         25    2    1    2    0    0  0.26039248491E+03 -0.42965213692E+03 -0.16369284700E+04  0.17168473780E+04  0.12499959488E+03 0.  0.
          2    1    1    2  501    0 -0.13610772278E+02  0.81563814936E+02 -0.58647757623E+03  0.59227852945E+03  0.00000000000E+00 0. -1.
          1    1    1    2  502    0 -0.24678171263E+03  0.34808832198E+03  0.18263129829E+04  0.18754961491E+04  0.00000000000E+00 0. -1.
         22    1    3    3    0    0  0.12866935169E+03 -0.26265932151E+03 -0.11271186457E+04  0.11644492959E+04  0.00000000000E+00 0.  1.
         22    1    3    3    0    0  0.13172313322E+03 -0.16699281540E+03 -0.50980982423E+03  0.55239808209E+03  0.00000000000E+00 0.  1.
</event>
<event>
 7    1  0.2895750E-005  0.7001135E+02  0.7818608E-02  0.1433153E+00
          2   -1    0    0  502    0  0.00000000000E+00  0.00000000000E+00  0.18360677265E+04  0.18360677265E+04  0.00000000000E+00 0. -1.
          1   -1    0    0  501    0 -0.00000000000E+00 -0.00000000000E+00 -0.27262671020E+03  0.27262671020E+03  0.00000000000E+00 0. -1.
         25    2    1    2    0    0  0.29764972002E+02 -0.15440206633E+02  0.87795826488E+00  0.12942298214E+03  0.12500073582E+03 0.  0.
          2    1    1    2  501    0  0.39109983880E+02  0.75954830120E+00 -0.20581115459E+03  0.20949558254E+03  0.00000000000E+00 0. -1.
          1    1    1    2  502    0 -0.68874955882E+02  0.14680658332E+02  0.17683742126E+04  0.17697758720E+04  0.00000000000E+00 0. -1.
         22    1    3    3    0    0  0.49902252787E+02 -0.18340231537E+02 -0.51016039565E+02  0.73683344244E+02  0.00000000000E+00 0.  1.
         22    1    3    3    0    0 -0.20137280785E+02  0.29000249042E+01  0.51893997830E+02  0.55739637895E+02  0.00000000000E+00 0.  1.
</event>
<event>
 7    1  0.2895750E-005  0.7150455E+02  0.7818608E-02  0.1389039E+00
          2   -1    0    0  502    0  0.00000000000E+00  0.00000000000E+00  0.14389229802E+04  0.14389229802E+04  0.00000000000E+00 0. -1.
          1   -1    0    0  501    0 -0.00000000000E+00 -0.00000000000E+00 -0.41429817846E+03  0.41429817846E+03  0.00000000000E+00 0. -1.
         25    2    1    2    0    0 -0.35920581321E+01 -0.10690953805E+03  0.67586754466E+03  0.69560249658E+03  0.12499337231E+03 0.  0.
          2    1    1    2  501    0 -0.26853126255E+02  0.46864517315E+02 -0.40111256943E+03  0.40473283376E+03  0.00000000000E+00 0. -1.
          1    1    1    2  502    0  0.30445184387E+02  0.60045020738E+02  0.74986982653E+03  0.75288582834E+03  0.00000000000E+00 0. -1.
         22    1    3    3    0    0 -0.25083053586E+02 -0.94526068192E+02  0.65751302213E+03  0.66474635119E+03  0.00000000000E+00 0.  1.
         22    1    3    3    0    0  0.21490995454E+02 -0.12383469861E+02  0.18354522526E+02  0.30856145393E+02  0.00000000000E+00 0.  1.
</event>
<event>
 7    1  0.2895750E-005  0.4189417E+03  0.7818608E-02  0.1267387E+00
          2   -1    0    0  502    0  0.00000000000E+00  0.00000000000E+00  0.14412453517E+04  0.14412453517E+04  0.00000000000E+00 0. -1.
          1   -1    0    0  501    0 -0.00000000000E+00 -0.00000000000E+00 -0.19096371057E+04  0.19096371057E+04  0.00000000000E+00 0. -1.
         25    2    1    2    0    0  0.43216850552E+03 -0.31878008389E+02 -0.14242784808E+04  0.14939817117E+04  0.12500535775E+03 0.  0.
          2    1    1    2  501    0 -0.16886625291E+02 -0.21096213788E+02 -0.41890694064E+03  0.41977759977E+03  0.00000000000E+00 0. -1.
          1    1    1    2  502    0 -0.41528188023E+03  0.52974222177E+02  0.13747936675E+04  0.14371231459E+04  0.00000000000E+00 0. -1.
         22    1    3    3    0    0  0.84622674079E+01 -0.10247439535E+02 -0.79745670020E+01  0.15498829168E+02  0.00000000000E+00 0.  1.
         22    1    3    3    0    0  0.42370623812E+03 -0.21630568854E+02 -0.14163039138E+04  0.14784828826E+04  0.00000000000E+00 0.  1.
</event>
<event>
 7    1  0.2895750E-005  0.2854178E+03  0.7818608E-02  0.1116458E+00
          2   -1    0    0  502    0  0.00000000000E+00  0.00000000000E+00  0.17306580674E+04  0.17306580674E+04  0.00000000000E+00 0. -1.
          1   -1    0    0  501    0 -0.00000000000E+00 -0.00000000000E+00 -0.12764041587E+03  0.12764041587E+03  0.00000000000E+00 0. -1.
         25    2    1    2    0    0  0.23590366486E+03 -0.25901007581E+03  0.73332972352E+03  0.82227822914E+03  0.12502897368E+03 0.  0.
          2    1    1    2  501    0 -0.27439947415E+03  0.52127497342E+02  0.22750167064E+03  0.36023514201E+03  0.00000000000E+00 0. -1.
          1    1    1    2  502    0  0.38495809287E+02  0.20688257847E+03  0.64218625742E+03  0.67578511217E+03  0.00000000000E+00 0. -1.
         22    1    3    3    0    0  0.93899019808E+02 -0.17850519359E+03  0.32463317049E+03  0.38218820683E+03  0.00000000000E+00 0. -1.
         22    1    3    3    0    0  0.14200464506E+03 -0.80504882217E+02  0.40869655303E+03  0.44009002231E+03  0.00000000000E+00 0. -1.
</event>
<event>
 7    1  0.2895750E-005  0.6457626E+02  0.7818608E-02  0.1390700E+00
          2   -1    0    0  502    0  0.00000000000E+00  0.00000000000E+00  0.25396246964E+03  0.25396246964E+03  0.00000000000E+00 0. -1.
          1   -1    0    0  501    0 -0.00000000000E+00 -0.00000000000E+00 -0.57855812352E+03  0.57855812352E+03  0.00000000000E+00 0. -1.
         25    2    1    2    0    0  0.87612265749E+02 -0.66914707492E+02  0.41817535967E+02  0.17183616236E+03  0.12500189276E+03 0.  0.
          2    1    1    2  501    0 -0.57282315703E+02  0.14193566320E+02 -0.50547218899E+03  0.50890554610E+03  0.00000000000E+00 0. -1.
          1    1    1    2  502    0 -0.30329950047E+02  0.52721141172E+02  0.13905899914E+03  0.15177888469E+03  0.00000000000E+00 0. -1.
         22    1    3    3    0    0  0.24352350460E+02  0.35529460987E+02 -0.34354573438E+01  0.43210900686E+02  0.00000000000E+00 0.  1.
         22    1    3    3    0    0  0.63259915290E+02 -0.10244416848E+03  0.45252993310E+02  0.12862526168E+03  0.00000000000E+00 0.  1.
</event>
<event>
 7    1  0.2895750E-005  0.1342710E+03  0.7818608E-02  0.1358644E+00
          2   -1    0    0  502    0  0.00000000000E+00  0.00000000000E+00  0.94925296899E+03  0.94925296899E+03  0.00000000000E+00 0. -1.
          1   -1    0    0  501    0 -0.00000000000E+00 -0.00000000000E+00 -0.15292585057E+03  0.15292585057E+03  0.00000000000E+00 0. -1.
         25    2    1    2    0    0  0.13580433937E+03  0.80071260336E+02 -0.70370798754E+02  0.21314616599E+03  0.12500005375E+03 0.  0.
          2    1    1    2  501    0 -0.35948417927E+02  0.85056570954E+01  0.53879817643E+02  0.65327403923E+02  0.00000000000E+00 0. -1.
          1    1    1    2  502    0 -0.99855921440E+02 -0.88576917431E+02  0.81281809954E+03  0.82370524964E+03  0.00000000000E+00 0. -1.
         22    1    3    3    0    0  0.12277052310E+03  0.30418523561E+02 -0.54913203493E+00  0.12648394943E+03  0.00000000000E+00 0.  1.
         22    1    3    3    0    0  0.13033816264E+02  0.49652736774E+02 -0.69821666719E+02  0.86662216559E+02  0.00000000000E+00 0.  1.
</event>
<event>
 7    1  0.2895750E-005  0.1313709E+03  0.7818608E-02  0.1354907E+00
          2   -1    0    0  502    0  0.00000000000E+00  0.00000000000E+00  0.16075837238E+04  0.16075837238E+04  0.00000000000E+00 0. -1.
          1   -1    0    0  501    0 -0.00000000000E+00 -0.00000000000E+00 -0.19690228309E+03  0.19690228309E+03  0.00000000000E+00 0. -1.
         25    2    1    2    0    0  0.14411990496E+03 -0.15854610923E+02  0.84667784948E+03  0.86804935448E+03  0.12499754121E+03 0.  0.
          2    1    1    2  501    0 -0.26234912369E+02 -0.28811958888E+02 -0.17880757885E+03  0.18300423453E+03  0.00000000000E+00 0. -1.
          1    1    1    2  502    0 -0.11788499259E+03  0.44666569810E+02  0.74281117004E+03  0.75343241785E+03  0.00000000000E+00 0. -1.
         22    1    3    3    0    0 -0.17673798696E+01  0.34023383663E+02  0.22353665667E+03  0.22611800270E+03  0.00000000000E+00 0.  1.
         22    1    3    3    0    0  0.14588728483E+03 -0.49877994586E+02  0.62314119281E+03  0.64193135178E+03  0.00000000000E+00 0.  1.
</event>
<event>
 7    1  0.2895750E-005  0.7556527E+02  0.7818608E-02  0.1343670E+00
          2   -1    0    0  502    0  0.00000000000E+00  0.00000000000E+00  0.63051371527E+03  0.63051371527E+03  0.00000000000E+00 0. -1.
          1   -1    0    0  501    0 -0.00000000000E+00 -0.00000000000E+00 -0.46676773958E+02  0.46676773958E+02  0.00000000000E+00 0. -1.
         25    2    1    2    0    0  0.81887464714E+02  0.37274961687E+02  0.22712518028E+03  0.27441886013E+03  0.12499953454E+03 0.  0.
          2    1    1    2  501    0 -0.18892766183E+02 -0.77175044812E+02  0.67981195078E+02  0.10456752383E+03  0.00000000000E+00 0. -1.
          1    1    1    2  502    0 -0.62994698531E+02  0.39900083126E+02  0.28873056596E+03  0.29820410527E+03  0.00000000000E+00 0. -1.
         22    1    3    3    0    0  0.53228253488E+02  0.59221113854E+02  0.22452725913E+03  0.23822862420E+03  0.00000000000E+00 0.  1.
         22    1    3    3    0    0  0.28659211226E+02 -0.21946152167E+02  0.25979211495E+01  0.36190235939E+02  0.00000000000E+00 0.  1.
</event>
<event>
 7    1  0.3203494E-005  0.1683579E+03  0.7818608E-02  0.1308769E+00
          2   -1    0    0  502    0  0.00000000000E+00  0.00000000000E+00  0.18059063962E+04  0.18059063962E+04  0.00000000000E+00 0. -1.
          1   -1    0    0  501    0 -0.00000000000E+00 -0.00000000000E+00 -0.99951263639E+03  0.99951263639E+03  0.00000000000E+00 0. -1.
         25    2    1    2    0    0  0.17081489494E+02  0.21077928735E+03 -0.21124790147E+03  0.32398130767E+03  0.12497410367E+03 0.  0.
          2    1    1    2  501    0 -0.14900595030E+02 -0.43076165252E+02 -0.72716331593E+03  0.72859046917E+03  0.00000000000E+00 0. -1.
          1    1    1    2  502    0 -0.21808944642E+01 -0.16770312210E+03  0.17448049772E+04  0.17528472558E+04  0.00000000000E+00 0. -1.
         22    1    3    3    0    0  0.79992823386E+01  0.56212704931E+02 -0.14472131427E+03  0.15546097747E+03  0.00000000000E+00 0. -1.
         22    1    3    3    0    0  0.90822071556E+01  0.15456658242E+03 -0.66526587205E+02  0.16852033020E+03  0.00000000000E+00 0. -1.
</event>
<event>
 7    1  0.2895750E-005  0.2086006E+03  0.7818608E-02  0.1231187E+00
          2   -1    0    0  502    0  0.00000000000E+00  0.00000000000E+00  0.32961567717E+04  0.32961567717E+04  0.00000000000E+00 0. -1.
          1   -1    0    0  501    0 -0.00000000000E+00 -0.00000000000E+00 -0.18840038195E+03  0.18840038195E+03  0.00000000000E+00 0. -1.
         25    2    1    2    0    0  0.83248963627E+02  0.25225689401E+03  0.17823753147E+03  0.34344958934E+03  0.12500028909E+03 0.  0.
          2    1    1    2  501    0  0.22105916753E+02 -0.74750503322E+02 -0.87413795668E+02  0.11712165033E+03  0.00000000000E+00 0. -1.
          1    1    1    2  502    0 -0.10535488038E+03 -0.17750639069E+03  0.30169326539E+04  0.30239859139E+04  0.00000000000E+00 0. -1.
         22    1    3    3    0    0  0.11085417406E+03  0.23749510244E+03  0.16287677477E+03  0.30857967423E+03  0.00000000000E+00 0. -1.
         22    1    3    3    0    0 -0.27605210431E+02  0.14761791570E+02  0.15360756699E+02  0.34869915108E+02  0.00000000000E+00 0. -1.
</event>
<event>
 7    1  0.2895750E-005  0.3060283E+03  0.7818608E-02  0.1107154E+00
          2   -1    0    0  502    0  0.00000000000E+00  0.00000000000E+00  0.24338634509E+04  0.24338634509E+04  0.00000000000E+00 0. -1.
          1   -1    0    0  501    0 -0.00000000000E+00 -0.00000000000E+00 -0.15891447136E+04  0.15891447136E+04  0.00000000000E+00 0. -1.
         25    2    1    2    0    0  0.83718990974E+02  0.35020811098E+03 -0.24403199523E+02  0.38193525887E+03  0.12499774146E+03 0.  0.
          2    1    1    2  501    0  0.12582972048E+03 -0.28042017193E+03 -0.13634189337E+04  0.13976336359E+04  0.00000000000E+00 0. -1.
          1    1    1    2  502    0 -0.20954871145E+03 -0.69787939053E+02  0.22325408705E+04  0.22434392698E+04  0.00000000000E+00 0. -1.
         22    1    3    3    0    0  0.94693989446E+02  0.17069350378E+03 -0.46698872972E+02  0.20070876564E+03  0.00000000000E+00 0.  1.
         22    1    3    3    0    0 -0.10974998472E+02  0.17951460721E+03  0.22295673449E+02  0.18122649322E+03  0.00000000000E+00 0.  1.
</event>
<event>
 7    1  0.2895750E-005  0.3176650E+03  0.7818608E-02  0.1116279E+00
          2   -1    0    0  502    0  0.00000000000E+00  0.00000000000E+00  0.12875254659E+04  0.12875254659E+04  0.00000000000E+00 0. -1.
          1   -1    0    0  501    0 -0.00000000000E+00 -0.00000000000E+00 -0.63054157365E+03  0.63054157365E+03  0.00000000000E+00 0. -1.
         25    2    1    2    0    0 -0.23928454398E+03  0.42174505986E+03  0.17058907077E+03  0.52901374514E+03  0.12501569092E+03 0.  0.
          2    1    1    2  501    0  0.90404107749E+02 -0.16654331501E+03 -0.40652489620E+03  0.44852209500E+03  0.00000000000E+00 0. -1.
          1    1    1    2  502    0  0.14888043623E+03 -0.25520174485E+03  0.89291971767E+03  0.94053119941E+03  0.00000000000E+00 0. -1.
         22    1    3    3    0    0 -0.86161085164E+02  0.76534748348E+02  0.15341515287E+01  0.11525473492E+03  0.00000000000E+00 0.  1.
         22    1    3    3    0    0 -0.15312345881E+03  0.34521031151E+03  0.16905491924E+03  0.41375901021E+03  0.00000000000E+00 0.  1.
</event>
<event>
 7    1  0.2895750E-005  0.1043294E+03  0.7818608E-02  0.1309169E+00
          2   -1    0    0  502    0  0.00000000000E+00  0.00000000000E+00  0.13493198126E+04  0.13493198126E+04  0.00000000000E+00 0. -1.
          1   -1    0    0  501    0 -0.00000000000E+00 -0.00000000000E+00 -0.19129497832E+03  0.19129497832E+03  0.00000000000E+00 0. -1.
         25    2    1    2    0    0  0.91968146838E+02  0.14936726725E+01 -0.14862616333E+03  0.21488216463E+03  0.12499694859E+03 0.  0.
          2    1    1    2  501    0 -0.16616725564E+02  0.71378532967E+02  0.18191804195E+03  0.19612543059E+03  0.00000000000E+00 0. -1.
          1    1    1    2  502    0 -0.75351421273E+02 -0.72872205639E+02  0.11247329557E+04  0.11296071957E+04  0.00000000000E+00 0. -1.
         22    1    3    3    0    0  0.10898404864E+03  0.35751487849E+02 -0.12622949714E+03  0.17055667003E+03  0.00000000000E+00 0.  1.
         22    1    3    3    0    0 -0.17015901805E+02 -0.34257815176E+02 -0.22396666192E+02  0.44325494598E+02  0.00000000000E+00 0.  1.
</event>
<event>
 7    1  0.2895750E-005  0.7289620E+02  0.7818608E-02  0.1382030E+00
          2   -1    0    0  502    0  0.00000000000E+00  0.00000000000E+00  0.10592567522E+04  0.10592567522E+04  0.00000000000E+00 0. -1.
          1   -1    0    0  501    0 -0.00000000000E+00 -0.00000000000E+00 -0.70989399203E+02  0.70989399203E+02  0.00000000000E+00 0. -1.
         25    2    1    2    0    0 -0.66924258249E+02  0.40121152296E+01  0.17309367706E+03  0.22378301429E+03  0.12498985173E+03 0.  0.
          2    1    1    2  501    0  0.57229052165E+02  0.51215654628E+02 -0.11703963270E+02  0.77686488187E+02  0.00000000000E+00 0. -1.
          1    1    1    2  502    0  0.96952060840E+01 -0.55227769857E+02  0.82687763920E+03  0.82877664892E+03  0.00000000000E+00 0. -1.
         22    1    3    3    0    0  0.51569061387E+00 -0.53318289764E+02  0.65073137578E+02  0.84128587260E+02  0.00000000000E+00 0.  1.
         22    1    3    3    0    0 -0.67439948863E+02  0.57330404994E+02  0.10802053948E+03  0.13965442703E+03  0.00000000000E+00 0.  1.
</event>
<event>
 7    1  0.2895750E-005  0.6585050E+02  0.7818608E-02  0.1517773E+00
          2   -1    0    0  502    0  0.00000000000E+00  0.00000000000E+00  0.10006637180E+04  0.10006637180E+04  0.00000000000E+00 0. -1.
          1   -1    0    0  501    0 -0.00000000000E+00 -0.00000000000E+00 -0.43041251313E+03  0.43041251313E+03  0.00000000000E+00 0. -1.
         25    2    1    2    0    0 -0.23982378950E+02 -0.65224512494E+02  0.34421337286E+02  0.14710726408E+03  0.12500530850E+03 0.  0.
          2    1    1    2  501    0 -0.17746614060E+02  0.14280456585E+02 -0.37252970234E+03  0.37322547190E+03  0.00000000000E+00 0. -1.
          1    1    1    2  502    0  0.41728993011E+02  0.50944055909E+02  0.90835956996E+03  0.91074349519E+03  0.00000000000E+00 0. -1.
         22    1    3    3    0    0 -0.60898857644E+02 -0.70366838845E+02 -0.45628328834E+01  0.93171789267E+02  0.00000000000E+00 0. -1.
         22    1    3    3    0    0  0.36916478693E+02  0.51423263517E+01  0.38984170170E+02  0.53935474812E+02  0.00000000000E+00 0. -1.
</event>
<event>
 7    1  0.2895750E-005  0.4577254E+03  0.7818608E-02  0.1074693E+00
          2   -1    0    0  502    0  0.00000000000E+00  0.00000000000E+00  0.21128849855E+04  0.21128849855E+04  0.00000000000E+00 0. -1.
          1   -1    0    0  501    0 -0.00000000000E+00 -0.00000000000E+00 -0.22874418539E+03  0.22874418539E+03  0.00000000000E+00 0. -1.
         25    2    1    2    0    0 -0.49385548895E+03 -0.12463729315E+03  0.16652988841E+04  0.17459303536E+04  0.12499890925E+03 0.  0.
          2    1    1    2  501    0  0.21998391506E+03 -0.54534828985E+02  0.95838043001E+02  0.24607295858E+03  0.00000000000E+00 0. -1.
          1    1    1    2  502    0  0.27387157389E+03  0.17917212213E+03  0.12300387303E+03  0.34962585876E+03  0.00000000000E+00 0. -1.
         22    1    3    3    0    0 -0.41323500066E+02 -0.33848645833E+02  0.30021256074E+03  0.30492776867E+03  0.00000000000E+00 0. -1.
         22    1    3    3    0    0 -0.45253198888E+03 -0.90788647314E+02  0.13650863234E+04  0.14410025849E+04  0.00000000000E+00 0. -1.
</event>
<event>
 7    1  0.2895750E-005  0.1661400E+03  0.7818608E-02  0.1281691E+00
          2   -1    0    0  502    0  0.00000000000E+00  0.00000000000E+00  0.31071565441E+03  0.31071565441E+03  0.00000000000E+00 0. -1.
          1   -1    0    0  501    0 -0.00000000000E+00 -0.00000000000E+00 -0.53229776744E+03  0.53229776744E+03  0.00000000000E+00 0. -1.
         25    2    1    2    0    0 -0.78816493909E+02  0.14236972722E+03 -0.31120181968E+03  0.37276381299E+03  0.12500043505E+03 0.  0.
          2    1    1    2  501    0  0.13239380807E+03 -0.11672737218E+03 -0.14487660296E+03  0.22834760764E+03  0.00000000000E+00 0. -1.
          1    1    1    2  502    0 -0.53577314163E+02 -0.25642355045E+02  0.23449630962E+03  0.24190200121E+03  0.00000000000E+00 0. -1.
         22    1    3    3    0    0 -0.92035112541E+02  0.66884671371E+02 -0.25006872245E+03  0.27473330186E+03  0.00000000000E+00 0. -1.
         22    1    3    3    0    0  0.13218618633E+02  0.75485055854E+02 -0.61133097235E+02  0.98030511135E+02  0.00000000000E+00 0. -1.
</event>
<event>
 7    1  0.2895750E-005  0.2252802E+03  0.7818608E-02  0.1247552E+00
          2   -1    0    0  502    0  0.00000000000E+00  0.00000000000E+00  0.15880283123E+04  0.15880283123E+04  0.00000000000E+00 0. -1.
          1   -1    0    0  501    0 -0.00000000000E+00 -0.00000000000E+00 -0.29968035146E+03  0.29968035146E+03  0.00000000000E+00 0. -1.
         25    2    1    2    0    0 -0.10128125426E+02  0.28028275240E+03 -0.32747603644E+02  0.30880681768E+03  0.12501297886E+03 0.  0.
          2    1    1    2  501    0 -0.15238866482E+02 -0.59186770227E+02 -0.11255675946E+03  0.12807935400E+03  0.00000000000E+00 0. -1.
          1    1    1    2  502    0  0.25366991908E+02 -0.22109598217E+03  0.14336523240E+04  0.14508224921E+04  0.00000000000E+00 0. -1.
         22    1    3    3    0    0  0.50688684563E+02  0.19286640958E+03 -0.85385441587E+01  0.19959885125E+03  0.00000000000E+00 0.  1.
         22    1    3    3    0    0 -0.60816809989E+02  0.87416342826E+02 -0.24209059485E+02  0.10920796643E+03  0.00000000000E+00 0.  1.
</event>
<event>
 7    1  0.2895750E-005  0.1167216E+04  0.7818608E-02  0.9896286E-01
          2   -1    0    0  502    0  0.00000000000E+00  0.00000000000E+00  0.25953460433E+04  0.25953460433E+04  0.00000000000E+00 0. -1.
          1   -1    0    0  501    0 -0.00000000000E+00 -0.00000000000E+00 -0.14819197778E+04  0.14819197778E+04  0.00000000000E+00 0. -1.
         25    2    1    2    0    0 -0.12574044980E+04 -0.40600262281E+03  0.11354324712E+04  0.17466358202E+04  0.12500236230E+03 0.  0.
          2    1    1    2  501    0  0.22585248941E+03  0.21667762862E+03 -0.90628628453E+03  0.95880830787E+03  0.00000000000E+00 0. -1.
          1    1    1    2  502    0  0.10315520085E+04  0.18932499419E+03  0.88428007874E+03  0.13718216930E+04  0.00000000000E+00 0. -1.
         22    1    3    3    0    0 -0.91267188216E+03 -0.26347599227E+03  0.75080221351E+03  0.12108234912E+04  0.00000000000E+00 0.  1.
         22    1    3    3    0    0 -0.34473261579E+03 -0.14252663054E+03  0.38463025771E+03  0.53581232903E+03  0.00000000000E+00 0.  1.
</event>
<event>
 7    1  0.2895750E-005  0.9041527E+02  0.7818608E-02  0.1313646E+00
          2   -1    0    0  502    0  0.00000000000E+00  0.00000000000E+00  0.87273065912E+03  0.87273065912E+03  0.00000000000E+00 0. -1.
          1   -1    0    0  501    0 -0.00000000000E+00 -0.00000000000E+00 -0.92449056279E+03  0.92449056279E+03  0.00000000000E+00 0. -1.
         25    2    1    2    0    0  0.75032894624E+02 -0.78525688336E+02 -0.14424657170E+02  0.16621742887E+03  0.12499577561E+03 0.  0.
          2    1    1    2  501    0 -0.90907228400E+02 -0.11136621409E+01 -0.82961080608E+03  0.83457741042E+03  0.00000000000E+00 0. -1.
          1    1    1    2  502    0  0.15874333776E+02  0.79639350477E+02  0.79227555958E+03  0.79642638262E+03  0.00000000000E+00 0. -1.
         22    1    3    3    0    0 -0.16107612186E+02  0.14761247941E+02  0.21797219007E+02  0.30862086248E+02  0.00000000000E+00 0.  1.
         22    1    3    3    0    0  0.91140506810E+02 -0.93286936277E+02 -0.36221876177E+02  0.13535534262E+03  0.00000000000E+00 0.  1.
</event>
<event>
 7    1  0.2895750E-005  0.1025063E+03  0.7818608E-02  0.1292173E+00
          2   -1    0    0  502    0  0.00000000000E+00  0.00000000000E+00  0.48094209175E+03  0.48094209175E+03  0.00000000000E+00 0. -1.
          1   -1    0    0  501    0 -0.00000000000E+00 -0.00000000000E+00 -0.83141256234E+03  0.83141256234E+03  0.00000000000E+00 0. -1.
         25    2    1    2    0    0 -0.15822974734E+03 -0.79058213551E+02 -0.73058036339E+02  0.22858166345E+03  0.12500098447E+03 0.  0.
          2    1    1    2  501    0  0.71596000018E+02  0.68898146381E+02 -0.67217955520E+03  0.67948384545E+03  0.00000000000E+00 0. -1.
          1    1    1    2  502    0  0.86633747321E+02  0.10160067170E+02  0.39476712095E+03  0.40428914520E+03  0.00000000000E+00 0. -1.
         22    1    3    3    0    0 -0.88706474748E+02 -0.10846830047E+03 -0.37005357020E+02  0.14492621335E+03  0.00000000000E+00 0.  1.
         22    1    3    3    0    0 -0.69523272591E+02  0.29410086919E+02 -0.36052679319E+02  0.83655450094E+02  0.00000000000E+00 0.  1.
</event>
<event>
 7    1  0.2895750E-005  0.2150657E+03  0.7818608E-02  0.1369580E+00
          2   -1    0    0  502    0  0.00000000000E+00  0.00000000000E+00  0.16107670484E+04  0.16107670484E+04  0.00000000000E+00 0. -1.
          1   -1    0    0  501    0 -0.00000000000E+00 -0.00000000000E+00 -0.55389066798E+03  0.55389066798E+03  0.00000000000E+00 0. -1.
         25    2    1    2    0    0 -0.20507319616E+03 -0.10070486160E+03  0.76315769553E+03  0.80636913326E+03  0.12500010357E+03 0.  0.
          2    1    1    2  501    0  0.18542374690E+03  0.10825500313E+03 -0.51048916423E+03  0.55380528927E+03  0.00000000000E+00 0. -1.
          1    1    1    2  502    0  0.19649449261E+02 -0.75501415349E+01  0.80420784915E+03  0.80448329388E+03  0.00000000000E+00 0. -1.
         22    1    3    3    0    0 -0.65388692882E+02  0.27345683201E+02  0.21507269722E+03  0.22645028734E+03  0.00000000000E+00 0.  1.
         22    1    3    3    0    0 -0.13968450328E+03 -0.12805054480E+03  0.54808499832E+03  0.57991884593E+03  0.00000000000E+00 0.  1.
</event>
<event>
 7    1  0.2895750E-005  0.1868511E+03  0.7818608E-02  0.1178243E+00
          2   -1    0    0  502    0  0.00000000000E+00  0.00000000000E+00  0.28058702239E+04  0.28058702239E+04  0.00000000000E+00 0. -1.
          1   -1    0    0  501    0 -0.00000000000E+00 -0.00000000000E+00 -0.61368590644E+03  0.61368590644E+03  0.00000000000E+00 0. -1.
         25    2    1    2    0    0  0.17063853794E+03  0.17969483731E+03  0.22822870148E+03  0.35933435594E+03  0.12500037597E+03 0.  0.
          2    1    1    2  501    0  0.13778428794E+02 -0.15336337023E+03 -0.53378153136E+03  0.55554738020E+03  0.00000000000E+00 0. -1.
          1    1    1    2  502    0 -0.18441696674E+03 -0.26331467079E+02  0.24977371474E+04  0.25046743942E+04  0.00000000000E+00 0. -1.
         22    1    3    3    0    0  0.82042180622E+02  0.16911665288E+03  0.14615913293E+03  0.23810471188E+03  0.00000000000E+00 0.  1.
         22    1    3    3    0    0  0.88596357321E+02  0.10578184434E+02  0.82069568550E+02  0.12122964406E+03  0.00000000000E+00 0.  1.
</event>
<event>
 7    1  0.2895750E-005  0.1503060E+03  0.7818608E-02  0.1200449E+00
          2   -1    0    0  502    0  0.00000000000E+00  0.00000000000E+00  0.17700739663E+04  0.17700739663E+04  0.00000000000E+00 0. -1.
          1   -1    0    0  501    0 -0.00000000000E+00 -0.00000000000E+00 -0.23947863850E+03  0.23947863850E+03  0.00000000000E+00 0. -1.
         25    2    1    2    0    0 -0.12616704962E+03 -0.44700608687E+02  0.10321210884E+04  0.10482439433E+04  0.12500061915E+03 0.  0.
          2    1    1    2  501    0 -0.72333953996E+02  0.13175614882E+03 -0.18842030555E+03  0.24102716692E+03  0.00000000000E+00 0. -1.
          1    1    1    2  502    0  0.19850100362E+03 -0.87055540138E+02  0.68689454498E+03  0.72028149458E+03  0.00000000000E+00 0. -1.
         22    1    3    3    0    0 -0.38504524106E+02  0.36632308109E+02  0.50186816366E+03  0.50467432872E+03  0.00000000000E+00 0. -1.
         22    1    3    3    0    0 -0.87662525516E+02 -0.81332916796E+02  0.53025292469E+03  0.54356961456E+03  0.00000000000E+00 0. -1.
</event>
<event>
 7    1  0.2895750E-005  0.2704122E+03  0.7818608E-02  0.1112749E+00
          2   -1    0    0  502    0  0.00000000000E+00  0.00000000000E+00  0.17819569409E+03  0.17819569409E+03  0.00000000000E+00 0. -1.
          1   -1    0    0  501    0 -0.00000000000E+00 -0.00000000000E+00 -0.12964228659E+04  0.12964228659E+04  0.00000000000E+00 0. -1.
         25    2    1    2    0    0 -0.13887666338E+01  0.22161965630E+03 -0.98494079169E+02  0.27284192530E+03  0.12499772734E+03 0.  0.
          2    1    1    2  501    0 -0.23023285978E+03 -0.19861154601E+03 -0.87823203982E+03  0.92937894946E+03  0.00000000000E+00 0. -1.
          1    1    1    2  502    0  0.23162162641E+03 -0.23008110286E+02 -0.14150105279E+03  0.27239768519E+03  0.00000000000E+00 0. -1.
         22    1    3    3    0    0  0.57012872469E+02  0.61340217738E+02 -0.36243832721E+02  0.91250782734E+02  0.00000000000E+00 0.  1.
         22    1    3    3    0    0 -0.58401639103E+02  0.16027943856E+03 -0.62250246448E+02  0.18159114256E+03  0.00000000000E+00 0.  1.
</event>
<event>
 7    1  0.2895750E-005  0.2705230E+03  0.7818608E-02  0.1223366E+00
          2   -1    0    0  502    0  0.00000000000E+00  0.00000000000E+00  0.95921528812E+03  0.95921528812E+03  0.00000000000E+00 0. -1.
          1   -1    0    0  501    0 -0.00000000000E+00 -0.00000000000E+00 -0.11179374599E+03  0.11179374599E+03  0.00000000000E+00 0. -1.
         25    2    1    2    0    0 -0.20624961913E+03 -0.19538391297E+03  0.43206093074E+03  0.53199168714E+03  0.12499891389E+03 0.  0.
          2    1    1    2  501    0  0.14606320450E+03  0.22042317732E+03  0.26138070031E+03  0.37180735240E+03  0.00000000000E+00 0. -1.
          1    1    1    2  502    0  0.60186414632E+02 -0.25039264349E+02  0.15397991109E+03  0.16720999457E+03  0.00000000000E+00 0. -1.
         22    1    3    3    0    0 -0.33320001561E+02 -0.10216255137E+03  0.20713731959E+03  0.23335226284E+03  0.00000000000E+00 0.  1.
         22    1    3    3    0    0 -0.17292961757E+03 -0.93221361597E+02  0.22492361116E+03  0.29863942430E+03  0.00000000000E+00 0.  1.
</event>
<event>
 7    1  0.2895750E-005  0.4133288E+03  0.7818608E-02  0.1198156E+00
          2   -1    0    0  502    0  0.00000000000E+00  0.00000000000E+00  0.38203409024E+03  0.38203409024E+03  0.00000000000E+00 0. -1.
          1   -1    0    0  501    0 -0.00000000000E+00 -0.00000000000E+00 -0.67933802004E+03  0.67933802004E+03  0.00000000000E+00 0. -1.
         25    2    1    2    0    0 -0.11804764649E+03  0.37534457623E+03 -0.16269218958E+03  0.44374850369E+03  0.12500075294E+03 0.  0.
          2    1    1    2  501    0  0.16924690318E+03 -0.39759475410E+03 -0.24296132196E+03  0.49573814327E+03  0.00000000000E+00 0. -1.
          1    1    1    2  502    0 -0.51199256691E+02  0.22250177874E+02  0.10834958175E+03  0.12188546331E+03  0.00000000000E+00 0. -1.
         22    1    3    3    0    0  0.81072819254E+01  0.17539791924E+03 -0.55351719245E+02  0.18410315292E+03  0.00000000000E+00 0.  1.
         22    1    3    3    0    0 -0.12615492842E+03  0.19994665699E+03 -0.10734047034E+03  0.25964535077E+03  0.00000000000E+00 0.  1.
</event>
<event>
 7    1  0.2895750E-005  0.2446450E+03  0.7818608E-02  0.1236465E+00
          2   -1    0    0  502    0  0.00000000000E+00  0.00000000000E+00  0.15512864579E+04  0.15512864579E+04  0.00000000000E+00 0. -1.
          1   -1    0    0  501    0 -0.00000000000E+00 -0.00000000000E+00 -0.19284024031E+04  0.19284024031E+04  0.00000000000E+00 0. -1.
         25    2    1    2    0    0  0.91033451227E+02  0.24320542902E+03  0.57452600390E+03  0.64276082614E+03  0.12500152208E+03 0.  0.
          2    1    1    2  501    0  0.44260221023E+02 -0.44781727622E+02 -0.18784525217E+04  0.18795074478E+04  0.00000000000E+00 0. -1.
          1    1    1    2  502    0 -0.13529367225E+03 -0.19842370139E+03  0.92681057252E+03  0.95742058698E+03  0.00000000000E+00 0. -1.
         22    1    3    3    0    0 -0.21483034764E+02  0.90531100819E+02  0.13392204948E+03  0.16307212004E+03  0.00000000000E+00 0.  1.
         22    1    3    3    0    0  0.11251648599E+03  0.15267432820E+03  0.44060395442E+03  0.47968870610E+03  0.00000000000E+00 0.  1.
</event>
<event>
 7    1  0.2895750E-005  0.1988520E+03  0.7818608E-02  0.1222595E+00
          2   -1    0    0  502    0  0.00000000000E+00  0.00000000000E+00  0.37083540531E+03  0.37083540531E+03  0.00000000000E+00 0. -1.
          1   -1    0    0  501    0 -0.00000000000E+00 -0.00000000000E+00 -0.51096621163E+03  0.51096621163E+03  0.00000000000E+00 0. -1.
         25    2    1    2    0    0 -0.18095248196E+03 -0.25323781102E+02 -0.66367338114E+01  0.22148478994E+03  0.12500548516E+03 0.  0.
          2    1    1    2  501    0  0.17228943202E+03  0.11430223846E+03 -0.36092210664E+03  0.41594881556E+03  0.00000000000E+00 0. -1.
          1    1    1    2  502    0  0.86630499433E+01 -0.88978457361E+02  0.22742803414E+03  0.24436801145E+03  0.00000000000E+00 0. -1.
         22    1    3    3    0    0 -0.17393680154E+03  0.31271836193E+01 -0.38522597180E+02  0.17817906920E+03  0.00000000000E+00 0. -1.
         22    1    3    3    0    0 -0.70156804163E+01 -0.28450964721E+02  0.31885863368E+02  0.43305720731E+02  0.00000000000E+00 0. -1.
</event>
<event>
 7    1  0.2895750E-005  0.4597313E+03  0.7818608E-02  0.1177134E+00
          2   -1    0    0  502    0  0.00000000000E+00  0.00000000000E+00  0.22411209128E+04  0.22411209128E+04  0.00000000000E+00 0. -1.
          1   -1    0    0  501    0 -0.00000000000E+00 -0.00000000000E+00 -0.22264154082E+03  0.22264154082E+03  0.00000000000E+00 0. -1.
         25    2    1    2    0    0  0.47845695868E+03 -0.51686874006E+02  0.92364667264E+03  0.10489715744E+04  0.12500237513E+03 0.  0.
          2    1    1    2  501    0 -0.45349831266E+03 -0.65627212083E+01  0.16473445008E+03  0.48253624521E+03  0.00000000000E+00 0. -1.
          1    1    1    2  502    0 -0.24958646022E+02  0.58249595214E+02  0.93009824924E+03  0.93225463398E+03  0.00000000000E+00 0. -1.
         22    1    3    3    0    0  0.96681229799E+02 -0.15699320005E+02  0.97680457167E+02  0.13833004213E+03  0.00000000000E+00 0. -1.
         22    1    3    3    0    0  0.38177572889E+03 -0.35987554001E+02  0.82596621547E+03  0.91064153228E+03  0.00000000000E+00 0. -1.
</event>
<event>
 7    1  0.2895750E-005  0.8297435E+02  0.7818608E-02  0.1334164E+00
          2   -1    0    0  502    0  0.00000000000E+00  0.00000000000E+00  0.85709309474E+03  0.85709309474E+03  0.00000000000E+00 0. -1.
          1   -1    0    0  501    0 -0.00000000000E+00 -0.00000000000E+00 -0.59503124267E+02  0.59503124267E+02  0.00000000000E+00 0. -1.
         25    2    1    2    0    0  0.30825004843E+02  0.33217260704E+02  0.59712731257E+03  0.61175171532E+03  0.12500226577E+03 0.  0.
          2    1    1    2  501    0  0.22699638333E+02 -0.83951006341E+02 -0.44351364969E+01  0.87078788932E+02  0.00000000000E+00 0. -1.
          1    1    1    2  502    0 -0.53524643176E+02  0.50733745637E+02  0.20489779440E+03  0.21776571475E+03  0.00000000000E+00 0. -1.
         22    1    3    3    0    0  0.56433219571E+00  0.63842530447E+02  0.51575437974E+03  0.51969103070E+03  0.00000000000E+00 0.  1.
         22    1    3    3    0    0  0.30260672648E+02 -0.30625269744E+02  0.81372932830E+02  0.92060684623E+02  0.00000000000E+00 0.  1.
</event>
<event>
 7    1  0.2895750E-005  0.9032390E+02  0.7818608E-02  0.1338508E+00
          2   -1    0    0  502    0  0.00000000000E+00  0.00000000000E+00  0.13537067410E+03  0.13537067410E+03  0.00000000000E+00 0. -1.
          1   -1    0    0  501    0 -0.00000000000E+00 -0.00000000000E+00 -0.17340904623E+04  0.17340904623E+04  0.00000000000E+00 0. -1.
         25    2    1    2    0    0  0.22335200449E+02 -0.24271761745E+02 -0.28646911384E+03  0.31429007561E+03  0.12500287535E+03 0.  0.
          2    1    1    2  501    0  0.77459951905E+01 -0.64770019328E+02 -0.14146645836E+04  0.14161677302E+04  0.00000000000E+00 0. -1.
          1    1    1    2  502    0 -0.30081195640E+02  0.89041781074E+02  0.10241390927E+03  0.13900333061E+03  0.00000000000E+00 0. -1.
         22    1    3    3    0    0 -0.20807608251E+02 -0.62617443438E+02 -0.19755720065E+03  0.20828525707E+03  0.00000000000E+00 0. -1.
         22    1    3    3    0    0  0.43142808701E+02  0.38345681693E+02 -0.88911913194E+02  0.10600481855E+03  0.00000000000E+00 0. -1.
</event>
<event>
 7    1  0.2895750E-005  0.5794193E+02  0.7818608E-02  0.1516698E+00
          2   -1    0    0  502    0  0.00000000000E+00  0.00000000000E+00  0.59596151505E+02  0.59596151505E+02  0.00000000000E+00 0. -1.
          1   -1    0    0  501    0 -0.00000000000E+00 -0.00000000000E+00 -0.23846120619E+03  0.23846120619E+03  0.00000000000E+00 0. -1.
         25    2    1    2    0    0 -0.47065064784E+02  0.27446253270E+02 -0.14709574979E+03  0.20058464226E+03  0.12501448701E+03 0.  0.
          2    1    1    2  501    0  0.13207968430E+02  0.22482669293E+02  0.53818960248E+01  0.26624906637E+02  0.00000000000E+00 0. -1.
          1    1    1    2  502    0  0.33857096354E+02 -0.49928922563E+02 -0.37151200916E+02  0.70847808797E+02  0.00000000000E+00 0. -1.
         22    1    3    3    0    0  0.10505428374E+02  0.64241950462E+02 -0.51098849664E+02  0.82755571785E+02  0.00000000000E+00 0. -1.
         22    1    3    3    0    0 -0.57570493158E+02 -0.36795697193E+02 -0.95996900129E+02  0.11782907047E+03  0.00000000000E+00 0. -1.
</event>
<event>
 7    1  0.2895750E-005  0.6750049E+02  0.7818608E-02  0.1437577E+00
          2   -1    0    0  502    0  0.00000000000E+00  0.00000000000E+00  0.50071359732E+03  0.50071359732E+03  0.00000000000E+00 0. -1.
          1   -1    0    0  501    0 -0.00000000000E+00 -0.00000000000E+00 -0.16448667139E+03  0.16448667139E+03  0.00000000000E+00 0. -1.
         25    2    1    2    0    0 -0.20109450632E+02  0.29057619388E+02  0.17357881325E+03  0.21680410207E+03  0.12500271604E+03 0.  0.
          2    1    1    2  501    0 -0.16560164458E+02  0.35579532998E+02 -0.13552968060E+03  0.14109725915E+03  0.00000000000E+00 0. -1.
          1    1    1    2  502    0  0.36669615090E+02 -0.64637152386E+02  0.29817779328E+03  0.30729890749E+03  0.00000000000E+00 0. -1.
         22    1    3    3    0    0  0.27324113630E+01  0.60883939247E+02  0.29908153378E+02  0.67888274161E+02  0.00000000000E+00 0. -1.
         22    1    3    3    0    0 -0.22841861995E+02 -0.31826319859E+02  0.14367065987E+03  0.14891582791E+03  0.00000000000E+00 0. -1.
</event>
<event>
 7    1  0.2895750E-005  0.9719007E+02  0.7818608E-02  0.1298462E+00
          2   -1    0    0  502    0  0.00000000000E+00  0.00000000000E+00  0.32715723273E+03  0.32715723273E+03  0.00000000000E+00 0. -1.
          1   -1    0    0  501    0 -0.00000000000E+00 -0.00000000000E+00 -0.58808845782E+03  0.58808845782E+03  0.00000000000E+00 0. -1.
         25    2    1    2    0    0  0.40139995369E+02  0.22196808337E+02 -0.40128917460E+03  0.42280203783E+03  0.12499857604E+03 0.  0.
          2    1    1    2  501    0  0.42909568244E+02 -0.75428587794E+02 -0.15687034305E+03  0.17927355475E+03  0.00000000000E+00 0. -1.
          1    1    1    2  502    0 -0.83049563613E+02  0.53231779456E+02  0.29722829256E+03  0.31317009797E+03  0.00000000000E+00 0. -1.
         22    1    3    3    0    0  0.46819528151E+02  0.39921794932E+02 -0.79853438487E+02  0.10080867802E+03  0.00000000000E+00 0.  1.
         22    1    3    3    0    0 -0.66795327813E+01 -0.17724986594E+02 -0.32143573611E+03  0.32199335980E+03  0.00000000000E+00 0.  1.
</event>
<event>
 7    1  0.2895750E-005  0.3246340E+03  0.7818608E-02  0.1118586E+00
          2   -1    0    0  502    0  0.00000000000E+00  0.00000000000E+00  0.31210095623E+04  0.31210095623E+04  0.00000000000E+00 0. -1.
          1   -1    0    0  501    0 -0.00000000000E+00 -0.00000000000E+00 -0.43806645538E+03  0.43806645538E+03  0.00000000000E+00 0. -1.
         25    2    1    2    0    0 -0.39053131960E+00 -0.10973495320E+03  0.70767827191E+03  0.72696277101E+03  0.12499768574E+03 0.  0.
          2    1    1    2  501    0 -0.32452812721E+03 -0.82911703411E+01 -0.35227280659E+03  0.47904423503E+03  0.00000000000E+00 0. -1.
          1    1    1    2  502    0  0.32491865853E+03  0.11802612354E+03  0.23275376416E+04  0.23530690116E+04  0.00000000000E+00 0. -1.
         22    1    3    3    0    0  0.15443933829E+02 -0.13264121303E+03  0.50403700594E+03  0.52142641844E+03  0.00000000000E+00 0. -1.
         22    1    3    3    0    0 -0.15834465148E+02  0.22906259827E+02  0.20364126597E+03  0.20553635258E+03  0.00000000000E+00 0. -1.
</event>
<event>
 7    1  0.2895750E-005  0.5012304E+03  0.7818608E-02  0.1120988E+00
          2   -1    0    0  502    0  0.00000000000E+00  0.00000000000E+00  0.55309670002E+03  0.55309670002E+03  0.00000000000E+00 0. -1.
          1   -1    0    0  501    0 -0.00000000000E+00 -0.00000000000E+00 -0.62876673935E+03  0.62876673935E+03  0.00000000000E+00 0. -1.
         25    2    1    2    0    0  0.77546951436E+02  0.50201339091E+03  0.12239348890E+03  0.53724786915E+03  0.12499652974E+03 0.  0.
          2    1    1    2  501    0  0.10609549613E+03 -0.39511927659E+02 -0.14168054896E+02  0.11409724145E+03  0.00000000000E+00 0. -1.
          1    1    1    2  502    0 -0.18364244756E+03 -0.46250146325E+03 -0.18389547333E+03  0.53051832878E+03  0.00000000000E+00 0. -1.
         22    1    3    3    0    0  0.14645445147E+01  0.41725335712E+02 -0.24159505319E+02  0.48237228654E+02  0.00000000000E+00 0.  1.
         22    1    3    3    0    0  0.76082406921E+02  0.46028805520E+03  0.14655299422E+03  0.48901064049E+03  0.00000000000E+00 0.  1.
</event>
<event>
 7    1  0.2895750E-005  0.1600029E+03  0.7818608E-02  0.1287047E+00
          2   -1    0    0  502    0  0.00000000000E+00  0.00000000000E+00  0.31795047556E+03  0.31795047556E+03  0.00000000000E+00 0. -1.
          1   -1    0    0  501    0 -0.00000000000E+00 -0.00000000000E+00 -0.11399169919E+04  0.11399169919E+04  0.00000000000E+00 0. -1.
         25    2    1    2    0    0 -0.20011076023E+03  0.45706249966E+02 -0.31142326129E+03  0.39336184141E+03  0.12496284631E+03 0.  0.
          2    1    1    2  501    0  0.55989064659E+02  0.17405780815E+02 -0.76396730311E+03  0.76621392364E+03  0.00000000000E+00 0. -1.
          1    1    1    2  502    0  0.14412169557E+03 -0.63112030782E+02  0.25342404808E+03  0.29829170238E+03  0.00000000000E+00 0. -1.
         22    1    3    3    0    0 -0.13238061897E+03  0.58435068590E+02 -0.11387567802E+03  0.18413841415E+03  0.00000000000E+00 0.  1.
         22    1    3    3    0    0 -0.67730141258E+02 -0.12728818624E+02 -0.19754758327E+03  0.20922342726E+03  0.00000000000E+00 0.  1.
</event>
<event>
 7    1  0.2895750E-005  0.2629285E+03  0.7818608E-02  0.1188461E+00
          2   -1    0    0  502    0  0.00000000000E+00  0.00000000000E+00  0.88493487334E+03  0.88493487334E+03  0.00000000000E+00 0. -1.
          1   -1    0    0  501    0 -0.00000000000E+00 -0.00000000000E+00 -0.21938871952E+04  0.21938871952E+04  0.00000000000E+00 0. -1.
         25    2    1    2    0    0 -0.31556534929E+03 -0.83575965322E+02 -0.85553935663E+03  0.92419705033E+03  0.12500466169E+03 0.  0.
          2    1    1    2  501    0  0.22000245698E+03  0.10350737534E+03 -0.12898223519E+04  0.13125382117E+04  0.00000000000E+00 0. -1.
          1    1    1    2  502    0  0.95562892307E+02 -0.19931410021E+02  0.83640938668E+03  0.84208680646E+03  0.00000000000E+00 0. -1.
         22    1    3    3    0    0 -0.23395913654E+03 -0.63256483946E+02 -0.46133652595E+03  0.52112345035E+03  0.00000000000E+00 0.  1.
         22    1    3    3    0    0 -0.81606212748E+02 -0.20319481375E+02 -0.39420283068E+03  0.40307359998E+03  0.00000000000E+00 0.  1.
</event>
<event>
 7    1  0.2895750E-005  0.1657967E+03  0.7818608E-02  0.1332873E+00
          2   -1    0    0  502    0  0.00000000000E+00  0.00000000000E+00  0.33455152433E+04  0.33455152433E+04  0.00000000000E+00 0. -1.
          1   -1    0    0  501    0 -0.00000000000E+00 -0.00000000000E+00 -0.13553990517E+04  0.13553990517E+04  0.00000000000E+00 0. -1.
         25    2    1    2    0    0 -0.83446503667E+02 -0.97980436269E+02  0.15386286613E+04  0.15490535182E+04  0.12500064067E+03 0.  0.
          2    1    1    2  501    0  0.10511791716E+03  0.12837229439E+03 -0.13448947069E+04  0.13550907700E+04  0.00000000000E+00 0. -1.
          1    1    1    2  502    0 -0.21671413494E+02 -0.30391858117E+02  0.17963822372E+04  0.17967700068E+04  0.00000000000E+00 0. -1.
         22    1    3    3    0    0 -0.74325016395E+02 -0.12719239093E+03  0.13413355457E+04  0.13494010370E+04  0.00000000000E+00 0.  1.
         22    1    3    3    0    0 -0.91214872718E+01  0.29211954660E+02  0.19729311552E+03  0.19965248121E+03  0.00000000000E+00 0.  1.
</event>
<event>
 7    1  0.2895750E-005  0.5907153E+02  0.7818608E-02  0.1448731E+00
          2   -1    0    0  502    0  0.00000000000E+00  0.00000000000E+00  0.69442378093E+03  0.69442378093E+03  0.00000000000E+00 0. -1.
          1   -1    0    0  501    0 -0.00000000000E+00 -0.00000000000E+00 -0.58977541294E+03  0.58977541294E+03  0.00000000000E+00 0. -1.
         25    2    1    2    0    0  0.62182262299E+02 -0.75080044685E+02  0.13004286168E+03  0.20503335913E+03  0.12499554243E+03 0.  0.
          2    1    1    2  501    0 -0.31877625302E+02  0.26216976890E+02 -0.54993589419E+03  0.55148254786E+03  0.00000000000E+00 0. -1.
          1    1    1    2  502    0 -0.30304636997E+02  0.48863067795E+02  0.52454140050E+03  0.52768328688E+03  0.00000000000E+00 0. -1.
         22    1    3    3    0    0 -0.31458457812E+02  0.37252228033E+01  0.48639330924E+02  0.58045640367E+02  0.00000000000E+00 0. -1.
         22    1    3    3    0    0  0.93640720111E+02 -0.78805267489E+02  0.81403530760E+02  0.14698771876E+03  0.00000000000E+00 0. -1.
</event>
<event>
 7    1  0.2895750E-005  0.4635583E+02  0.7818608E-02  0.1515921E+00
          2   -1    0    0  502    0  0.00000000000E+00  0.00000000000E+00  0.18514451266E+02  0.18514451266E+02  0.00000000000E+00 0. -1.
          1   -1    0    0  501    0 -0.00000000000E+00 -0.00000000000E+00 -0.82337151086E+03  0.82337151086E+03  0.00000000000E+00 0. -1.
         25    2    1    2    0    0 -0.24451999014E+02  0.87490680230E+01 -0.47889447543E+03  0.49562135675E+03  0.12500465683E+03 0.  0.
          2    1    1    2  501    0  0.34574059157E+02 -0.39909391613E+02 -0.29958510118E+03  0.30420282371E+03  0.00000000000E+00 0. -1.
          1    1    1    2  502    0 -0.10122060143E+02  0.31160323590E+02 -0.26377482993E+02  0.42061781665E+02  0.00000000000E+00 0. -1.
         22    1    3    3    0    0 -0.43969516938E+02 -0.54127547008E+01 -0.53139254194E+02  0.69183789066E+02  0.00000000000E+00 0. -1.
         22    1    3    3    0    0  0.19517517925E+02  0.14161822724E+02 -0.42575522123E+03  0.42643756769E+03  0.00000000000E+00 0. -1.
</event>
<event>
 7    1  0.2895750E-005  0.1462510E+03  0.7818608E-02  0.1259807E+00
          2   -1    0    0  502    0  0.00000000000E+00  0.00000000000E+00  0.12882053963E+03  0.12882053963E+03  0.00000000000E+00 0. -1.
          1   -1    0    0  501    0 -0.00000000000E+00 -0.00000000000E+00 -0.86003021766E+03  0.86003021766E+03  0.00000000000E+00 0. -1.
         25    2    1    2    0    0 -0.18364590983E+03  0.12735834744E+03 -0.51764402951E+02  0.26123673809E+03  0.12497644201E+03 0.  0.
          2    1    1    2  501    0  0.11427076566E+03 -0.81147017599E+02 -0.58540361466E+03  0.60194687341E+03  0.00000000000E+00 0. -1.
          1    1    1    2  502    0  0.69375144175E+02 -0.46211329838E+02 -0.94041660424E+02  0.12566714579E+03  0.00000000000E+00 0. -1.
         22    1    3    3    0    0 -0.16939707800E+02  0.78718440896E+02 -0.31250753306E+02  0.86372195872E+02  0.00000000000E+00 0.  1.
         22    1    3    3    0    0 -0.16670620203E+03  0.48639906541E+02 -0.20513649645E+02  0.17486454222E+03  0.00000000000E+00 0.  1.
</event>
<event>
 7    1  0.2895750E-005  0.1702614E+03  0.7818608E-02  0.1283310E+00
          2   -1    0    0  502    0  0.00000000000E+00  0.00000000000E+00  0.73521615631E+03  0.73521615631E+03  0.00000000000E+00 0. -1.
          1   -1    0    0  501    0 -0.00000000000E+00 -0.00000000000E+00 -0.11111963960E+04  0.11111963960E+04  0.00000000000E+00 0. -1.
         25    2    1    2    0    0 -0.18460069770E+03 -0.11135116565E+03 -0.20256429036E+03  0.32114292896E+03  0.12499595758E+03 0.  0.
          2    1    1    2  501    0  0.27624378030E+02  0.49947112950E+02 -0.83784817280E+03  0.83979008152E+03  0.00000000000E+00 0. -1.
          1    1    1    2  502    0  0.15697631967E+03  0.61404052696E+02  0.66443222349E+03  0.68547954181E+03  0.00000000000E+00 0. -1.
         22    1    3    3    0    0 -0.43556427702E+02  0.26926217052E+02 -0.49929698634E+02  0.71520335322E+02  0.00000000000E+00 0.  1.
         22    1    3    3    0    0 -0.14104426999E+03 -0.13827738270E+03 -0.15263459173E+03  0.24962259364E+03  0.00000000000E+00 0.  1.
</event>
<event>
 7    1  0.2895750E-005  0.9491922E+02  0.7818608E-02  0.1393772E+00
          2   -1    0    0  502    0  0.00000000000E+00  0.00000000000E+00  0.18896557312E+04  0.18896557312E+04  0.00000000000E+00 0. -1.
          1   -1    0    0  501    0 -0.00000000000E+00 -0.00000000000E+00 -0.10048605384E+04  0.10048605384E+04  0.00000000000E+00 0. -1.
         25    2    1    2    0    0  0.71412482377E+02 -0.22874898183E+01  0.24311788628E+03  0.28255453055E+03  0.12500312338E+03 0.  0.
          2    1    1    2  501    0 -0.87190704589E+02  0.38143138941E+02 -0.98260707724E+03  0.98720503760E+03  0.00000000000E+00 0. -1.
          1    1    1    2  502    0  0.15778222211E+02 -0.35855649123E+02  0.16242843837E+04  0.16247567015E+04  0.00000000000E+00 0. -1.
         22    1    3    3    0    0  0.97780595459E+02 -0.29180491485E+02  0.20486814581E+03  0.22887442649E+03  0.00000000000E+00 0. -1.
         22    1    3    3    0    0 -0.26368113082E+02  0.26893001666E+02  0.38249740469E+02  0.53680104062E+02  0.00000000000E+00 0. -1.
</event>
<event>
 7    1  0.2895750E-005  0.2589901E+03  0.7818608E-02  0.1218591E+00
          2   -1    0    0  502    0  0.00000000000E+00  0.00000000000E+00  0.15211423870E+03  0.15211423870E+03  0.00000000000E+00 0. -1.
          1   -1    0    0  501    0 -0.00000000000E+00 -0.00000000000E+00 -0.25102165027E+04  0.25102165027E+04  0.00000000000E+00 0. -1.
         25    2    1    2    0    0  0.18094122319E+03 -0.16637736463E+03 -0.31568034872E+03  0.41916735755E+03  0.12500414936E+03 0.  0.
          2    1    1    2  501    0 -0.23406915385E+03  0.11840110139E+03 -0.21208316873E+04  0.21369918661E+04  0.00000000000E+00 0. -1.
          1    1    1    2  502    0  0.53127930659E+02  0.47976263246E+02  0.78409772017E+02  0.10617151783E+03  0.00000000000E+00 0. -1.
         22    1    3    3    0    0  0.49547529488E+02 -0.12981551119E+03 -0.17101913641E+03  0.22035101461E+03  0.00000000000E+00 0.  1.
         22    1    3    3    0    0  0.13139369370E+03 -0.36561853449E+02 -0.14466121231E+03  0.19881634294E+03  0.00000000000E+00 0.  1.
</event>
<event>
 7    1  0.2895750E-005  0.5882555E+03  0.7818608E-02  0.1101193E+00
          2   -1    0    0  502    0  0.00000000000E+00  0.00000000000E+00  0.11022819281E+04  0.11022819281E+04  0.00000000000E+00 0. -1.
          1   -1    0    0  501    0 -0.00000000000E+00 -0.00000000000E+00 -0.11840284689E+04  0.11840284689E+04  0.00000000000E+00 0. -1.
         25    2    1    2    0    0 -0.33988464157E+03 -0.43133549346E+03 -0.85923413527E+02  0.56972019825E+03  0.12500557511E+03 0.  0.
          2    1    1    2  501    0 -0.11804150624E+03  0.38185528734E+02 -0.74459569892E+03  0.75486070679E+03  0.00000000000E+00 0. -1.
          1    1    1    2  502    0  0.45792614781E+03  0.39314996472E+03  0.74877257171E+03  0.96172949198E+03  0.00000000000E+00 0. -1.
         22    1    3    3    0    0 -0.10039133647E+03 -0.97860118540E+02  0.29444304837E+02  0.14325498360E+03  0.00000000000E+00 0.  1.
         22    1    3    3    0    0 -0.23949330510E+03 -0.33347537492E+03 -0.11536771836E+03  0.42646521465E+03  0.00000000000E+00 0.  1.
</event>
<event>
 7    1  0.2895750E-005  0.3823669E+03  0.7818608E-02  0.1184194E+00
          2   -1    0    0  502    0  0.00000000000E+00  0.00000000000E+00  0.62467106734E+03  0.62467106734E+03  0.00000000000E+00 0. -1.
          1   -1    0    0  501    0 -0.00000000000E+00 -0.00000000000E+00 -0.12746316908E+04  0.12746316908E+04  0.00000000000E+00 0. -1.
         25    2    1    2    0    0  0.13957779891E+03  0.39886779405E+03 -0.10544445674E+04  0.11428279562E+04  0.12499965002E+03 0.  0.
          2    1    1    2  501    0  0.35025844387E+02 -0.61054180440E+02 -0.10150497638E+03  0.12352199380E+03  0.00000000000E+00 0. -1.
          1    1    1    2  502    0 -0.17460364330E+03 -0.33781361361E+03  0.50598892038E+03  0.63295280815E+03  0.00000000000E+00 0. -1.
         22    1    3    3    0    0  0.11122753461E+03  0.31419739414E+03 -0.94209810059E+03  0.99931996781E+03  0.00000000000E+00 0.  1.
         22    1    3    3    0    0  0.28350264302E+02  0.84670399901E+02 -0.11234646686E+03  0.14350798835E+03  0.00000000000E+00 0.  1.
</event>
<event>
 7    1  0.2895750E-005  0.2919930E+03  0.7818608E-02  0.1219008E+00
          2   -1    0    0  502    0  0.00000000000E+00  0.00000000000E+00  0.87305130060E+02  0.87305130060E+02  0.00000000000E+00 0. -1.
          1   -1    0    0  501    0 -0.00000000000E+00 -0.00000000000E+00 -0.18830210842E+04  0.18830210842E+04  0.00000000000E+00 0. -1.
         25    2    1    2    0    0  0.18098754578E+03  0.18409753858E+03 -0.85866045047E+03  0.90530173877E+03  0.12500029434E+03 0.  0.
          2    1    1    2  501    0  0.63163800874E+02  0.25505291140E+01 -0.62091677976E+03  0.62412644418E+03  0.00000000000E+00 0. -1.
          1    1    1    2  502    0 -0.24415134665E+03 -0.18664806769E+03 -0.31613872388E+03  0.44089803128E+03  0.00000000000E+00 0. -1.
         22    1    3    3    0    0  0.17260901078E+03  0.11927702898E+03 -0.74712936215E+03  0.77603038860E+03  0.00000000000E+00 0. -1.
         22    1    3    3    0    0  0.83785350025E+01  0.64820509599E+02 -0.11153108832E+03  0.12927135017E+03  0.00000000000E+00 0. -1.
</event>
<event>
 7    1  0.2895750E-005  0.1269584E+03  0.7818608E-02  0.1243242E+00
          2   -1    0    0  502    0  0.00000000000E+00  0.00000000000E+00  0.11697526226E+04  0.11697526226E+04  0.00000000000E+00 0. -1.
          1   -1    0    0  501    0 -0.00000000000E+00 -0.00000000000E+00 -0.58453232904E+03  0.58453232904E+03  0.00000000000E+00 0. -1.
         25    2    1    2    0    0  0.10481199916E+02  0.11094210101E+03 -0.53707033245E+03  0.56257230480E+03  0.12500020317E+03 0.  0.
          2    1    1    2  501    0  0.10311817700E+03 -0.16763088524E+03  0.29428227418E+03  0.35402758228E+03  0.00000000000E+00 0. -1.
          1    1    1    2  502    0 -0.11359937691E+03  0.56688784233E+02  0.82800835188E+03  0.83768506461E+03  0.00000000000E+00 0. -1.
         22    1    3    3    0    0 -0.20856743018E+02  0.76945984016E+02 -0.49053989238E+03  0.49697592920E+03  0.00000000000E+00 0. -1.
         22    1    3    3    0    0  0.31337942934E+02  0.33996116996E+02 -0.46530440070E+02  0.65596375595E+02  0.00000000000E+00 0. -1.
</event>
<event>
 7    1  0.2895750E-005  0.4174227E+03  0.7818608E-02  0.1134595E+00
          2   -1    0    0  502    0  0.00000000000E+00  0.00000000000E+00  0.17197581270E+04  0.17197581270E+04  0.00000000000E+00 0. -1.
          1   -1    0    0  501    0 -0.00000000000E+00 -0.00000000000E+00 -0.10406212121E+04  0.10406212121E+04  0.00000000000E+00 0. -1.
         25    2    1    2    0    0 -0.41396738266E+03  0.87133572956E+02 -0.67025224532E+03  0.80238682367E+03  0.12500115602E+03 0.  0.
          2    1    1    2  501    0  0.41506675787E+03  0.27809481655E+02 -0.15891277084E+03  0.44531679679E+03  0.00000000000E+00 0. -1.
          1    1    1    2  502    0 -0.10993752179E+01 -0.11494305461E+03  0.15083019311E+04  0.15126757186E+04  0.00000000000E+00 0. -1.
         22    1    3    3    0    0 -0.30362686602E+03  0.11475900291E+03 -0.53382028276E+03  0.62475835072E+03  0.00000000000E+00 0.  1.
         22    1    3    3    0    0 -0.11034051664E+03 -0.27625429957E+02 -0.13643196256E+03  0.17762847294E+03  0.00000000000E+00 0.  1.
</event>
<event>
 7    1  0.2895750E-005  0.8565373E+02  0.7818608E-02  0.1319222E+00
          2   -1    0    0  502    0  0.00000000000E+00  0.00000000000E+00  0.19511719111E+03  0.19511719111E+03  0.00000000000E+00 0. -1.
          1   -1    0    0  501    0 -0.00000000000E+00 -0.00000000000E+00 -0.23809137105E+03  0.23809137105E+03  0.00000000000E+00 0. -1.
         25    2    1    2    0    0 -0.56319547001E+00 -0.85305610051E+02 -0.46784239142E+02  0.15840318818E+03  0.12500176278E+03 0.  0.
          2    1    1    2  501    0 -0.74261231760E+02  0.33655280419E+02 -0.10504613720E+03  0.13297405530E+03  0.00000000000E+00 0. -1.
          1    1    1    2  502    0  0.74824427230E+02  0.51650329631E+02  0.10885619641E+03  0.14183131868E+03  0.00000000000E+00 0. -1.
         22    1    3    3    0    0  0.41781048613E+01 -0.44850851737E+02 -0.88994514683E+02  0.99745070582E+02  0.00000000000E+00 0. -1.
         22    1    3    3    0    0 -0.47413003313E+01 -0.40454758314E+02  0.42210275541E+02  0.58658117600E+02  0.00000000000E+00 0. -1.
</event>
<event>
 7    1  0.2895750E-005  0.7764761E+03  0.7818608E-02  0.1193885E+00
          2   -1    0    0  502    0  0.00000000000E+00  0.00000000000E+00  0.12867374431E+04  0.12867374431E+04  0.00000000000E+00 0. -1.
          1   -1    0    0  501    0 -0.00000000000E+00 -0.00000000000E+00 -0.13021878947E+04  0.13021878947E+04  0.00000000000E+00 0. -1.
         25    2    1    2    0    0  0.64502301396E+03  0.43099123678E+03 -0.10243635891E+04  0.12910283501E+04  0.12500121376E+03 0.  0.
          2    1    1    2  501    0 -0.63348079142E+03 -0.45990983619E+03  0.94759519529E+03  0.12291263664E+04  0.00000000000E+00 0. -1.
          1    1    1    2  502    0 -0.11542222541E+02  0.28918599412E+02  0.61317942320E+02  0.68770621224E+02  0.00000000000E+00 0. -1.
         22    1    3    3    0    0  0.20820540973E+03  0.18105212301E+03 -0.28540025144E+03  0.39696683414E+03  0.00000000000E+00 0.  1.
         22    1    3    3    0    0  0.43681760423E+03  0.24993911377E+03 -0.73896333768E+03  0.89406151600E+03  0.00000000000E+00 0.  1.
</event>
<event>
 7    1  0.2895750E-005  0.5812823E+03  0.7818608E-02  0.1221249E+00
          2   -1    0    0  502    0  0.00000000000E+00  0.00000000000E+00  0.13439232501E+04  0.13439232501E+04  0.00000000000E+00 0. -1.
          1   -1    0    0  501    0 -0.00000000000E+00 -0.00000000000E+00 -0.16692293631E+04  0.16692293631E+04  0.00000000000E+00 0. -1.
         25    2    1    2    0    0  0.90965625186E+02  0.58085961460E+03  0.11148710686E+04  0.12665826244E+04  0.12498563161E+03 0.  0.
          2    1    1    2  501    0 -0.60090305791E+02 -0.57790362122E+03 -0.15379253969E+04  0.16440188462E+04  0.00000000000E+00 0. -1.
          1    1    1    2  502    0 -0.30875319395E+02 -0.29559933740E+01  0.97748215300E+02  0.10255114255E+03  0.00000000000E+00 0. -1.
         22    1    3    3    0    0  0.59699804037E+02  0.24657235640E+03  0.60565379333E+03  0.65664184372E+03  0.00000000000E+00 0. -1.
         22    1    3    3    0    0  0.31265821148E+02  0.33428725819E+03  0.50921727528E+03  0.60994078073E+03  0.00000000000E+00 0. -1.
</event>
<event>
 7    1  0.2895750E-005  0.2665363E+03  0.7818608E-02  0.1104872E+00
          2   -1    0    0  502    0  0.00000000000E+00  0.00000000000E+00  0.24077991261E+04  0.24077991261E+04  0.00000000000E+00 0. -1.
          1   -1    0    0  501    0 -0.00000000000E+00 -0.00000000000E+00 -0.71539838033E+03  0.71539838033E+03  0.00000000000E+00 0. -1.
         25    2    1    2    0    0 -0.18222132661E+03  0.18587179188E+03  0.19120902614E+04  0.19337701176E+04  0.12499906058E+03 0.  0.
          2    1    1    2  501    0  0.19805959542E+03  0.17836480217E+03 -0.60369663851E+03  0.65991759890E+03  0.00000000000E+00 0. -1.
          1    1    1    2  502    0 -0.15838268808E+02 -0.36423659405E+03  0.38400712287E+03  0.52950978992E+03  0.00000000000E+00 0. -1.
         22    1    3    3    0    0 -0.97661722583E+00 -0.12248055803E+02  0.23491001534E+03  0.23523112880E+03  0.00000000000E+00 0. -1.
         22    1    3    3    0    0 -0.18124470939E+03  0.19811984768E+03  0.16771802461E+04  0.16985389888E+04  0.00000000000E+00 0. -1.
</event>
<event>
 7    1  0.2895750E-005  0.2206241E+03  0.7818608E-02  0.1140771E+00
          2   -1    0    0  502    0  0.00000000000E+00  0.00000000000E+00  0.13979977557E+04  0.13979977557E+04  0.00000000000E+00 0. -1.
          1   -1    0    0  501    0 -0.00000000000E+00 -0.00000000000E+00 -0.64720762751E+03  0.64720762751E+03  0.00000000000E+00 0. -1.
         25    2    1    2    0    0  0.17385432046E+03  0.90164162943E+02 -0.40375058995E+03  0.46584097231E+03  0.12505347487E+03 0.  0.
          2    1    1    2  501    0 -0.71293949419E+02 -0.28550070448E+03 -0.95984689128E+02  0.30952631557E+03  0.00000000000E+00 0. -1.
          1    1    1    2  502    0 -0.10256037104E+03  0.19533654154E+03  0.12505254073E+04  0.12698380954E+04  0.00000000000E+00 0. -1.
         22    1    3    3    0    0  0.10562320470E+03  0.85857466552E+01 -0.10694278778E+03  0.15055476171E+03  0.00000000000E+00 0. -1.
         22    1    3    3    0    0  0.68231115757E+02  0.81578416288E+02 -0.29680780217E+03  0.31528621059E+03  0.00000000000E+00 0. -1.
</event>
<event>
 7    1  0.2895750E-005  0.7760550E+02  0.7818608E-02  0.1445409E+00
          2   -1    0    0  502    0  0.00000000000E+00  0.00000000000E+00  0.63635830435E+03  0.63635830435E+03  0.00000000000E+00 0. -1.
          1   -1    0    0  501    0 -0.00000000000E+00 -0.00000000000E+00 -0.93959293918E+03  0.93959293918E+03  0.00000000000E+00 0. -1.
         25    2    1    2    0    0  0.35784143657E+02  0.51968623429E+02 -0.98158770393E+02  0.17099884999E+03  0.12499687889E+03 0.  0.
          2    1    1    2  501    0 -0.15609241022E+02 -0.77062166511E+02 -0.80265978684E+03  0.80650167968E+03  0.00000000000E+00 0. -1.
          1    1    1    2  502    0 -0.20174902635E+02  0.25093543083E+02  0.59758392240E+03  0.59845071386E+03  0.00000000000E+00 0. -1.
         22    1    3    3    0    0  0.16795379486E+02  0.59769537220E+02 -0.12359501524E+03  0.13831200289E+03  0.00000000000E+00 0. -1.
         22    1    3    3    0    0  0.18988764171E+02 -0.78009137911E+01  0.25436244850E+02  0.32686847092E+02  0.00000000000E+00 0. -1.
</event>
<event>
 7    1  0.2895750E-005  0.2216482E+03  0.7818608E-02  0.1157531E+00
          2   -1    0    0  502    0  0.00000000000E+00  0.00000000000E+00  0.23188702763E+04  0.23188702763E+04  0.00000000000E+00 0. -1.
          1   -1    0    0  501    0 -0.00000000000E+00 -0.00000000000E+00 -0.73262065714E+02  0.73262065714E+02  0.00000000000E+00 0. -1.
         25    2    1    2    0    0  0.39221973724E+01 -0.26627772062E+03  0.34370463452E+03  0.45241131658E+03  0.12499566173E+03 0.  0.
          2    1    1    2  501    0  0.10795396040E+03  0.14547447026E+03  0.58077662985E+03  0.60837354713E+03  0.00000000000E+00 0. -1.
          1    1    1    2  502    0 -0.11187615777E+03  0.12080325036E+03  0.13211269463E+04  0.13313474783E+04  0.00000000000E+00 0. -1.
         22    1    3    3    0    0  0.34575829766E+02 -0.25719246672E+03  0.28415242812E+03  0.38481951009E+03  0.00000000000E+00 0.  1.
         22    1    3    3    0    0 -0.30653632394E+02 -0.90852538994E+01  0.59552206401E+02  0.67591806490E+02  0.00000000000E+00 0.  1.
</event>
<event>
 7    1  0.2895750E-005  0.1738958E+03  0.7818608E-02  0.1191637E+00
          2   -1    0    0  502    0  0.00000000000E+00  0.00000000000E+00  0.44317014495E+03  0.44317014495E+03  0.00000000000E+00 0. -1.
          1   -1    0    0  501    0 -0.00000000000E+00 -0.00000000000E+00 -0.28473871579E+03  0.28473871579E+03  0.00000000000E+00 0. -1.
         25    2    1    2    0    0  0.11205290290E+03  0.80015529627E+02  0.97399165612E+02  0.20992524323E+03  0.12499468890E+03 0.  0.
          2    1    1    2  501    0  0.43533370991E+02 -0.16835848913E+03 -0.15814487721E+03  0.23505220152E+03  0.00000000000E+00 0. -1.
          1    1    1    2  502    0 -0.15558627389E+03  0.88342959507E+02  0.21917714076E+03  0.28293141599E+03  0.00000000000E+00 0. -1.
         22    1    3    3    0    0  0.84676277830E+02  0.11275471248E+03  0.60240865001E+02  0.15333838081E+03  0.00000000000E+00 0. -1.
         22    1    3    3    0    0  0.27376625072E+02 -0.32739182851E+02  0.37158300611E+02  0.56586862419E+02  0.00000000000E+00 0. -1.
</event>
<event>
 7    1  0.2895750E-005  0.4911719E+03  0.7818608E-02  0.1187304E+00
          2   -1    0    0  502    0  0.00000000000E+00  0.00000000000E+00  0.15380834108E+04  0.15380834108E+04  0.00000000000E+00 0. -1.
          1   -1    0    0  501    0 -0.00000000000E+00 -0.00000000000E+00 -0.82226278487E+03  0.82226278487E+03  0.00000000000E+00 0. -1.
         25    2    1    2    0    0  0.40379146512E+02  0.51964421629E+03 -0.22073376326E+03  0.57966405889E+03  0.12500575960E+03 0.  0.
          2    1    1    2  501    0 -0.46374585598E+02 -0.46705353906E+03 -0.29083331465E+03  0.55215362667E+03  0.00000000000E+00 0. -1.
          1    1    1    2  502    0  0.59954390858E+01 -0.52590677225E+02  0.12273877039E+04  0.12285285101E+04  0.00000000000E+00 0. -1.
         22    1    3    3    0    0 -0.63216755297E+01  0.42063230102E+03 -0.13901395233E+03  0.44305346764E+03  0.00000000000E+00 0.  1.
         22    1    3    3    0    0  0.46700822042E+02  0.99011915265E+02 -0.81719810928E+02  0.13661059125E+03  0.00000000000E+00 0.  1.
</event>
<event>
 7    1  0.2895750E-005  0.1680340E+03  0.7818608E-02  0.1282968E+00
          2   -1    0    0  502    0  0.00000000000E+00  0.00000000000E+00  0.97259390071E+03  0.97259390071E+03  0.00000000000E+00 0. -1.
          1   -1    0    0  501    0 -0.00000000000E+00 -0.00000000000E+00 -0.16889953308E+04  0.16889953308E+04  0.00000000000E+00 0. -1.
         25    2    1    2    0    0 -0.10662243568E+03  0.19175548078E+03  0.70938352269E+03  0.75298648188E+03  0.12500060569E+03 0.  0.
          2    1    1    2  501    0  0.10089064205E+03 -0.13401776458E+03 -0.16594167750E+04  0.16678740108E+04  0.00000000000E+00 0. -1.
          1    1    1    2  502    0  0.57317936351E+01 -0.57737716201E+02  0.23363182222E+03  0.24072873880E+03  0.00000000000E+00 0. -1.
         22    1    3    3    0    0 -0.44991697648E+02  0.10882497917E+03  0.19082913601E+03  0.22423846258E+03  0.00000000000E+00 0. -1.
         22    1    3    3    0    0 -0.61630738033E+02  0.82930501613E+02  0.51855438668E+03  0.52874801930E+03  0.00000000000E+00 0. -1.
</event>
<event>
 7    1  0.2895750E-005  0.1653888E+03  0.7818608E-02  0.1229948E+00
          2   -1    0    0  502    0  0.00000000000E+00  0.00000000000E+00  0.19660402172E+04  0.19660402172E+04  0.00000000000E+00 0. -1.
          1   -1    0    0  501    0 -0.00000000000E+00 -0.00000000000E+00 -0.44587740784E+03  0.44587740784E+03  0.00000000000E+00 0. -1.
         25    2    1    2    0    0 -0.10254824841E+03 -0.19900056407E+02  0.11052446824E+03  0.19685765352E+03  0.12500048868E+03 0.  0.
          2    1    1    2  501    0  0.13106322081E+03  0.11531200097E+03 -0.38234495175E+03  0.42031189317E+03  0.00000000000E+00 0. -1.
          1    1    1    2  502    0 -0.28514972399E+02 -0.95411944564E+02  0.17919832929E+04  0.17947480784E+04  0.00000000000E+00 0. -1.
         22    1    3    3    0    0 -0.53452515137E+02 -0.33824854814E+02 -0.11771058584E+02  0.64341666110E+02  0.00000000000E+00 0. -1.
         22    1    3    3    0    0 -0.49095733274E+02  0.13924798406E+02  0.12229552683E+03  0.13251598741E+03  0.00000000000E+00 0. -1.
</event>
<event>
 7    1  0.2895750E-005  0.2532829E+03  0.7818608E-02  0.1209296E+00
          2   -1    0    0  502    0  0.00000000000E+00  0.00000000000E+00  0.97517188590E+03  0.97517188590E+03  0.00000000000E+00 0. -1.
          1   -1    0    0  501    0 -0.00000000000E+00 -0.00000000000E+00 -0.20641897934E+03  0.20641897934E+03  0.00000000000E+00 0. -1.
         25    2    1    2    0    0 -0.30344417556E+02 -0.26868636871E+03  0.23535823984E+03  0.37964059368E+03  0.12498132219E+03 0.  0.
          2    1    1    2  501    0 -0.47050683477E+02  0.24554281552E+03 -0.12296484411E+02  0.25031229415E+03  0.00000000000E+00 0. -1.
          1    1    1    2  502    0  0.77395101033E+02  0.23143553187E+02  0.54569115112E+03  0.55163797742E+03  0.00000000000E+00 0. -1.
         22    1    3    3    0    0 -0.31709864554E+02 -0.28225857239E+03  0.22739164671E+03  0.36384389261E+03  0.00000000000E+00 0. -1.
         22    1    3    3    0    0  0.13654469975E+01  0.13572203682E+02  0.79665931321E+01  0.15796701061E+02  0.00000000000E+00 0. -1.
</event>
<event>
 7    1  0.2895750E-005  0.9119794E+02  0.7818608E-02  0.1442227E+00
          2   -1    0    0  502    0  0.00000000000E+00  0.00000000000E+00  0.63877001038E+02  0.63877001038E+02  0.00000000000E+00 0. -1.
          1   -1    0    0  501    0 -0.00000000000E+00 -0.00000000000E+00 -0.87489332245E+03  0.87489332245E+03  0.00000000000E+00 0. -1.
         25    2    1    2    0    0  0.84867364262E+02 -0.32103299745E+02 -0.14607016684E+03  0.21259463449E+03  0.12500757419E+03 0.  0.
          2    1    1    2  501    0 -0.12193383749E+02 -0.25266647495E+02 -0.62451282217E+03  0.62514266143E+03  0.00000000000E+00 0. -1.
          1    1    1    2  502    0 -0.72673980513E+02  0.57369947239E+02 -0.40433332401E+02  0.10103302756E+03  0.00000000000E+00 0. -1.
         22    1    3    3    0    0  0.11674164729E+03 -0.13464029833E+02 -0.11283334953E+03  0.16291487678E+03  0.00000000000E+00 0.  1.
         22    1    3    3    0    0 -0.31874283027E+02 -0.18639269911E+02 -0.33236817312E+02  0.49679757712E+02  0.00000000000E+00 0.  1.
</event>
<event>
 7    1  0.2895750E-005  0.3267177E+03  0.7818608E-02  0.1235329E+00
          2   -1    0    0  502    0  0.00000000000E+00  0.00000000000E+00  0.75288324408E+03  0.75288324408E+03  0.00000000000E+00 0. -1.
          1   -1    0    0  501    0 -0.00000000000E+00 -0.00000000000E+00 -0.13443827106E+04  0.13443827106E+04  0.00000000000E+00 0. -1.
         25    2    1    2    0    0  0.12400143487E+03 -0.34934287377E+03  0.31151572874E+03  0.50008554297E+03  0.12500680673E+03 0.  0.
          2    1    1    2  501    0 -0.11873116007E+03  0.30193769949E+03 -0.12272726974E+04  0.12694336283E+04  0.00000000000E+00 0. -1.
          1    1    1    2  502    0 -0.52702747958E+01  0.47405174282E+02  0.32425750216E+03  0.32774678344E+03  0.00000000000E+00 0. -1.
         22    1    3    3    0    0  0.14952332497E+03 -0.30989946658E+03  0.26962643288E+03  0.43714221645E+03  0.00000000000E+00 0. -1.
         22    1    3    3    0    0 -0.25521890103E+02 -0.39443407199E+02  0.41889295866E+02  0.62943326525E+02  0.00000000000E+00 0. -1.
</event>
<event>
 7    1  0.2895750E-005  0.8545831E+02  0.7818608E-02  0.1328682E+00
          2   -1    0    0  502    0  0.00000000000E+00  0.00000000000E+00  0.28381236081E+04  0.28381236081E+04  0.00000000000E+00 0. -1.
          1   -1    0    0  501    0 -0.00000000000E+00 -0.00000000000E+00 -0.12000030092E+02  0.12000030092E+02  0.00000000000E+00 0. -1.
         25    2    1    2    0    0  0.53392277961E+02 -0.25201361316E+00  0.69638065290E+03  0.70952285448E+03  0.12500347370E+03 0.  0.
          2    1    1    2  501    0 -0.11061231340E+03 -0.63222320129E+02  0.14283519629E+04  0.14340228295E+04  0.00000000000E+00 0. -1.
          1    1    1    2  502    0  0.57220035441E+02  0.63474333742E+02  0.70139096223E+03  0.70657795423E+03  0.00000000000E+00 0. -1.
         22    1    3    3    0    0  0.54080710035E+02  0.33028425153E+02  0.64623456937E+03  0.64933405788E+03  0.00000000000E+00 0. -1.
         22    1    3    3    0    0 -0.68843207415E+00 -0.33280438766E+02  0.50146083526E+02  0.60188796600E+02  0.00000000000E+00 0. -1.
</event>
<event>
 7    1  0.2895750E-005  0.1166968E+03  0.7818608E-02  0.1248700E+00
          2   -1    0    0  502    0  0.00000000000E+00  0.00000000000E+00  0.29002783265E+04  0.29002783265E+04  0.00000000000E+00 0. -1.
          1   -1    0    0  501    0 -0.00000000000E+00 -0.00000000000E+00 -0.16099759184E+03  0.16099759184E+03  0.00000000000E+00 0. -1.
         25    2    1    2    0    0 -0.73522120118E+02 -0.39577921251E+02 -0.10627077116E+03  0.18409762784E+03  0.12500618294E+03 0.  0.
          2    1    1    2  501    0 -0.16106699397E+02  0.11551808618E+03  0.22004933143E+03  0.24904931693E+03  0.00000000000E+00 0. -1.
          1    1    1    2  502    0  0.89628819514E+02 -0.75940164932E+02  0.26255021744E+04  0.26281289736E+04  0.00000000000E+00 0. -1.
         22    1    3    3    0    0  0.19087741382E+02 -0.53379242996E+02 -0.39289413723E+02  0.68973498422E+02  0.00000000000E+00 0. -1.
         22    1    3    3    0    0 -0.92609861500E+02  0.13801321744E+02 -0.66981357441E+02  0.11512412942E+03  0.00000000000E+00 0. -1.
</event>
<event>
 7    1  0.2895750E-005  0.6263852E+02  0.7818608E-02  0.1490044E+00
          2   -1    0    0  502    0  0.00000000000E+00  0.00000000000E+00  0.78592439923E+03  0.78592439923E+03  0.00000000000E+00 0. -1.
          1   -1    0    0  501    0 -0.00000000000E+00 -0.00000000000E+00 -0.34644516547E+03  0.34644516547E+03  0.00000000000E+00 0. -1.
         25    2    1    2    0    0 -0.51693667461E+02 -0.16077482982E+02 -0.10968367571E+03  0.17488723669E+03  0.12499726447E+03 0.  0.
          2    1    1    2  501    0  0.46933588716E+02  0.44627448262E+02 -0.19873658536E+03  0.20902296824E+03  0.00000000000E+00 0. -1.
          1    1    1    2  502    0  0.47600787443E+01 -0.28549965280E+02  0.74789949483E+03  0.74845935978E+03  0.00000000000E+00 0. -1.
         22    1    3    3    0    0 -0.74578842749E+02 -0.13983939902E+02 -0.12573450734E+03  0.14685612243E+03  0.00000000000E+00 0.  1.
         22    1    3    3    0    0  0.22885175289E+02 -0.20935430798E+01  0.16050831624E+02  0.28031114256E+02  0.00000000000E+00 0.  1.
</event>
<event>
 7    1  0.2895750E-005  0.2772929E+03  0.7818608E-02  0.1323965E+00
          2   -1    0    0  502    0  0.00000000000E+00  0.00000000000E+00  0.88530921439E+03  0.88530921439E+03  0.00000000000E+00 0. -1.
          1   -1    0    0  501    0 -0.00000000000E+00 -0.00000000000E+00 -0.65987066407E+03  0.65987066407E+03  0.00000000000E+00 0. -1.
         25    2    1    2    0    0 -0.23976318553E+03  0.91537973155E+02 -0.78417663163E+02  0.29605062414E+03  0.12502422364E+03 0.  0.
          2    1    1    2  501    0 -0.23989442440E+02  0.27127280777E+01 -0.44704284435E+03  0.44769426725E+03  0.00000000000E+00 0. -1.
          1    1    1    2  502    0  0.26375262797E+03 -0.94250701232E+02  0.75089905784E+03  0.80143498707E+03  0.00000000000E+00 0. -1.
         22    1    3    3    0    0 -0.22861677129E+03  0.11003974898E+03 -0.92734064425E+02  0.27013696743E+03  0.00000000000E+00 0.  1.
         22    1    3    3    0    0 -0.11146414236E+02 -0.18501775824E+02  0.14316401262E+02  0.25913656709E+02  0.00000000000E+00 0.  1.
</event>
<event>
 7    1  0.2895750E-005  0.3747910E+03  0.7818608E-02  0.1081708E+00
          2   -1    0    0  502    0  0.00000000000E+00  0.00000000000E+00  0.69114294112E+03  0.69114294112E+03  0.00000000000E+00 0. -1.
          1   -1    0    0  501    0 -0.00000000000E+00 -0.00000000000E+00 -0.10194910087E+04  0.10194910087E+04  0.00000000000E+00 0. -1.
         25    2    1    2    0    0 -0.14830638920E+03 -0.53393698730E+03 -0.94380235726E+02  0.57586071467E+03  0.12499776928E+03 0.  0.
          2    1    1    2  501    0 -0.40263728201E+02  0.24851580444E+03 -0.58973271620E+03  0.64122223092E+03  0.00000000000E+00 0. -1.
          1    1    1    2  502    0  0.18857011740E+03  0.28542118285E+03  0.35576488437E+03  0.49355100420E+03  0.00000000000E+00 0. -1.
         22    1    3    3    0    0  0.13883830304E+02 -0.14318231038E+03 -0.81490382839E+01  0.14408449457E+03  0.00000000000E+00 0.  1.
         22    1    3    3    0    0 -0.16219021950E+03 -0.39075467692E+03 -0.86231197442E+02  0.43177622010E+03  0.00000000000E+00 0.  1.
</event>
<event>
 7    1  0.2895750E-005  0.5879004E+02  0.7818608E-02  0.1484609E+00
          2   -1    0    0  502    0  0.00000000000E+00  0.00000000000E+00  0.16893532940E+04  0.16893532940E+04  0.00000000000E+00 0. -1.
          1   -1    0    0  501    0 -0.00000000000E+00 -0.00000000000E+00 -0.26076317135E+03  0.26076317135E+03  0.00000000000E+00 0. -1.
         25    2    1    2    0    0  0.43555583960E+02 -0.43152972230E+02  0.90790142495E+02  0.16621365478E+03  0.12499944462E+03 0.  0.
          2    1    1    2  501    0 -0.28876438703E+02 -0.13866556245E+02 -0.22134276905E+03  0.22364872346E+03  0.00000000000E+00 0. -1.
          1    1    1    2  502    0 -0.14679145257E+02  0.57019528474E+02  0.15591427492E+04  0.15602540871E+04  0.00000000000E+00 0. -1.
         22    1    3    3    0    0 -0.93397791379E+01 -0.19761967266E+02 -0.27150207613E+02  0.34855424226E+02  0.00000000000E+00 0. -1.
         22    1    3    3    0    0  0.52895363098E+02 -0.23391004964E+02  0.11794035011E+03  0.13135823055E+03  0.00000000000E+00 0. -1.
</event>
<event>
 7    1  0.2895750E-005  0.3917498E+03  0.7818608E-02  0.1148031E+00
          2   -1    0    0  502    0  0.00000000000E+00  0.00000000000E+00  0.71170956989E+03  0.71170956989E+03  0.00000000000E+00 0. -1.
          1   -1    0    0  501    0 -0.00000000000E+00 -0.00000000000E+00 -0.10411133810E+04  0.10411133810E+04  0.00000000000E+00 0. -1.
         25    2    1    2    0    0 -0.93279522397E+02  0.31972582967E+03  0.19284776267E+02  0.35626059573E+03  0.12499613601E+03 0.  0.
          2    1    1    2  501    0  0.33011681736E+02  0.98829607865E+02 -0.78328427411E+03  0.79018435608E+03  0.00000000000E+00 0. -1.
          1    1    1    2  502    0  0.60267840661E+02 -0.41855543754E+03  0.43459568670E+03  0.60637799911E+03  0.00000000000E+00 0. -1.
         22    1    3    3    0    0 -0.40785885376E+02  0.11102758199E+02 -0.32512481311E+01  0.42394932480E+02  0.00000000000E+00 0.  1.
         22    1    3    3    0    0 -0.52493637021E+02  0.30862307147E+03  0.22536024399E+02  0.31386566325E+03  0.00000000000E+00 0.  1.
</event>
<event>
 7    1  0.2895750E-005  0.5275742E+02  0.7818608E-02  0.1502470E+00
          2   -1    0    0  502    0  0.00000000000E+00  0.00000000000E+00  0.90695085408E+03  0.90695085408E+03  0.00000000000E+00 0. -1.
          1   -1    0    0  501    0 -0.00000000000E+00 -0.00000000000E+00 -0.17971076085E+04  0.17971076085E+04  0.00000000000E+00 0. -1.
         25    2    1    2    0    0  0.12771281716E+01 -0.46592731873E+02  0.12096025794E+03  0.18006628221E+03  0.12497987145E+03 0.  0.
          2    1    1    2  501    0 -0.32428457956E+02  0.41664620477E+02 -0.17668313435E+04  0.17676200219E+04  0.00000000000E+00 0. -1.
          1    1    1    2  502    0  0.31151329784E+02  0.49281113966E+01  0.75571433120E+03  0.75637215840E+03  0.00000000000E+00 0. -1.
         22    1    3    3    0    0  0.88591906439E+01 -0.83186401425E+02  0.11502125174E+03  0.14222640751E+03  0.00000000000E+00 0.  1.
         22    1    3    3    0    0 -0.75820624724E+01  0.36593669552E+02  0.59390061996E+01  0.37839874699E+02  0.00000000000E+00 0.  1.
</event>
<event>
 7    1  0.2895750E-005  0.7851283E+02  0.7818608E-02  0.1396934E+00
          2   -1    0    0  502    0  0.00000000000E+00  0.00000000000E+00  0.38554623735E+04  0.38554623735E+04  0.00000000000E+00 0. -1.
          1   -1    0    0  501    0 -0.00000000000E+00 -0.00000000000E+00 -0.61145732600E+02  0.61145732600E+02  0.00000000000E+00 0. -1.
         25    2    1    2    0    0 -0.81600836126E+02  0.75903255483E+02  0.18671602854E+04  0.18746551079E+04  0.12499696681E+03 0.  0.
          2    1    1    2  501    0  0.16058753763E+02 -0.43298588588E+02 -0.47320139663E+02  0.66119943768E+02  0.00000000000E+00 0. -1.
          1    1    1    2  502    0  0.65542082363E+02 -0.32604666895E+02  0.19744764951E+04  0.19758330544E+04  0.00000000000E+00 0. -1.
         22    1    3    3    0    0  0.11296446829E+02 -0.13551652725E+02  0.51846068078E+02  0.54765607618E+02  0.00000000000E+00 0.  1.
         22    1    3    3    0    0 -0.92897282955E+02  0.89454908208E+02  0.18153142173E+04  0.18198895003E+04  0.00000000000E+00 0.  1.
</event>
<event>
 7    1  0.2895750E-005  0.4328167E+02  0.7818608E-02  0.1535375E+00
          2   -1    0    0  502    0  0.00000000000E+00  0.00000000000E+00  0.69866690851E+03  0.69866690851E+03  0.00000000000E+00 0. -1.
          1   -1    0    0  501    0 -0.00000000000E+00 -0.00000000000E+00 -0.78147192246E+02  0.78147192246E+02  0.00000000000E+00 0. -1.
         25    2    1    2    0    0  0.73355349924E+02  0.10403244429E+01  0.90482430412E+02  0.17085958206E+03  0.12499534764E+03 0.  0.
          2    1    1    2  501    0 -0.30714135783E+02 -0.27869468541E+01 -0.30746888131E+02  0.43548781147E+02  0.00000000000E+00 0. -1.
          1    1    1    2  502    0 -0.42641214142E+02  0.17466224112E+01  0.56078417398E+03  0.56240573754E+03  0.00000000000E+00 0. -1.
         22    1    3    3    0    0  0.14851524239E+02  0.16359464590E+02  0.10611878922E+03  0.10839463676E+03  0.00000000000E+00 0.  1.
         22    1    3    3    0    0  0.58503825685E+02 -0.15319140147E+02 -0.15636358806E+02  0.62464945300E+02  0.00000000000E+00 0.  1.
</event>
<event>
 7    1  0.2895750E-005  0.1467643E+03  0.7818608E-02  0.1204529E+00
          2   -1    0    0  502    0  0.00000000000E+00  0.00000000000E+00  0.83069833989E+03  0.83069833989E+03  0.00000000000E+00 0. -1.
          1   -1    0    0  501    0 -0.00000000000E+00 -0.00000000000E+00 -0.43259067170E+03  0.43259067170E+03  0.00000000000E+00 0. -1.
         25    2    1    2    0    0  0.90332135870E+01 -0.12009585906E+03  0.19591389048E+02  0.17467779911E+03  0.12499558659E+03 0.  0.
          2    1    1    2  501    0 -0.14687239483E+03  0.69799294530E+02 -0.32849162412E+03  0.36653811398E+03  0.00000000000E+00 0. -1.
          1    1    1    2  502    0  0.13783918124E+03  0.50296564530E+02  0.70700790327E+03  0.72207309849E+03  0.00000000000E+00 0. -1.
         22    1    3    3    0    0  0.18573577215E+02 -0.64138610440E+02  0.71447376168E+02  0.97792978690E+02  0.00000000000E+00 0. -1.
         22    1    3    3    0    0 -0.95403636280E+01 -0.55957248620E+02 -0.51855987120E+02  0.76884820423E+02  0.00000000000E+00 0. -1.
</event>
<event>
 7    1  0.2895750E-005  0.9128693E+02  0.7818608E-02  0.1451581E+00
          2   -1    0    0  502    0  0.00000000000E+00  0.00000000000E+00  0.14856888241E+03  0.14856888241E+03  0.00000000000E+00 0. -1.
          1   -1    0    0  501    0 -0.00000000000E+00 -0.00000000000E+00 -0.59074626934E+03  0.59074626934E+03  0.00000000000E+00 0. -1.
         25    2    1    2    0    0 -0.86922615199E+02  0.43304330390E+02 -0.23233260795E+03  0.28113812008E+03  0.12501758188E+03 0.  0.
          2    1    1    2  501    0  0.67274980702E+02 -0.60565673435E+02 -0.32640201555E+03  0.33872171407E+03  0.00000000000E+00 0. -1.
          1    1    1    2  502    0  0.19647634497E+02  0.17261343044E+02  0.11655723658E+03  0.11945531760E+03  0.00000000000E+00 0. -1.
         22    1    3    3    0    0 -0.10849463758E+03  0.16283354145E+02 -0.21732272006E+03  0.24344485753E+03  0.00000000000E+00 0. -1.
         22    1    3    3    0    0  0.21572022379E+02  0.27020976246E+02 -0.15009887896E+02  0.37693262547E+02  0.00000000000E+00 0. -1.
</event>
<event>
 7    1  0.2895750E-005  0.2641757E+03  0.7818608E-02  0.1194085E+00
          2   -1    0    0  502    0  0.00000000000E+00  0.00000000000E+00  0.38016931254E+03  0.38016931254E+03  0.00000000000E+00 0. -1.
          1   -1    0    0  501    0 -0.00000000000E+00 -0.00000000000E+00 -0.52841970246E+03  0.52841970246E+03  0.00000000000E+00 0. -1.
         25    2    1    2    0    0 -0.13833615672E+03  0.13432463675E+03  0.24564097142E+03  0.33637054030E+03  0.12500261297E+03 0.  0.
          2    1    1    2  501    0  0.16177340306E+03 -0.22258406094E+03 -0.39439743756E+03  0.48089878028E+03  0.00000000000E+00 0. -1.
          1    1    1    2  502    0 -0.23437246340E+02  0.88259424188E+02  0.50607622032E+00  0.91319694410E+02  0.00000000000E+00 0. -1.
         22    1    3    3    0    0 -0.80365490109E+02  0.14163582747E+03  0.21697238202E+03  0.27128644305E+03  0.00000000000E+00 0. -1.
         22    1    3    3    0    0 -0.57970666609E+02 -0.73111907154E+01  0.28668589395E+02  0.65084097249E+02  0.00000000000E+00 0. -1.
</event>
<event>
 7    1  0.2895750E-005  0.1429338E+03  0.7818608E-02  0.1214338E+00
          2   -1    0    0  502    0  0.00000000000E+00  0.00000000000E+00  0.39887668495E+03  0.39887668495E+03  0.00000000000E+00 0. -1.
          1   -1    0    0  501    0 -0.00000000000E+00 -0.00000000000E+00 -0.61161131957E+03  0.61161131957E+03  0.00000000000E+00 0. -1.
         25    2    1    2    0    0 -0.45058719935E+02  0.19095819787E+03 -0.12923729480E+03  0.26612720267E+03  0.12500435217E+03 0.  0.
          2    1    1    2  501    0  0.11738656219E+03 -0.68013933688E+02 -0.38641502897E+03  0.40953885624E+03  0.00000000000E+00 0. -1.
          1    1    1    2  502    0 -0.72327842251E+02 -0.12294426418E+03  0.30291768915E+03  0.33482194561E+03  0.00000000000E+00 0. -1.
         22    1    3    3    0    0 -0.47004564819E+02  0.69172418925E+02 -0.11685403368E+03  0.14369800917E+03  0.00000000000E+00 0.  1.
         22    1    3    3    0    0  0.19458448845E+01  0.12178577894E+03 -0.12383261120E+02  0.12242919350E+03  0.00000000000E+00 0.  1.
</event>
<event>
 7    1  0.2895750E-005  0.1350445E+03  0.7818608E-02  0.1338144E+00
          2   -1    0    0  502    0  0.00000000000E+00  0.00000000000E+00  0.36301892845E+03  0.36301892845E+03  0.00000000000E+00 0. -1.
          1   -1    0    0  501    0 -0.00000000000E+00 -0.00000000000E+00 -0.44862108215E+04  0.44862108215E+04  0.00000000000E+00 0. -1.
         25    2    1    2    0    0 -0.61255895332E+02  0.16598700016E+03 -0.32647625664E+04  0.32719416588E+04  0.12499454048E+03 0.  0.
          2    1    1    2  501    0  0.24654998293E+02 -0.36163462240E+02 -0.12047926992E+04  0.12055874555E+04  0.00000000000E+00 0. -1.
          1    1    1    2  502    0  0.36600897039E+02 -0.12982353792E+03  0.34636337251E+03  0.37170063557E+03  0.00000000000E+00 0. -1.
         22    1    3    3    0    0  0.25203753505E+02 -0.38974699123E+01 -0.31882733501E+03  0.31984572689E+03  0.00000000000E+00 0.  1.
         22    1    3    3    0    0 -0.86459648836E+02  0.16988447007E+03 -0.29459352314E+04  0.29520959320E+04  0.00000000000E+00 0.  1.
</event>
<event>
 7    1  0.2895750E-005  0.5869276E+02  0.7818608E-02  0.1435806E+00
          2   -1    0    0  502    0  0.00000000000E+00  0.00000000000E+00  0.93343178351E+03  0.93343178351E+03  0.00000000000E+00 0. -1.
          1   -1    0    0  501    0 -0.00000000000E+00 -0.00000000000E+00 -0.54498427319E+02  0.54498427319E+02  0.00000000000E+00 0. -1.
         25    2    1    2    0    0  0.38400285005E+02  0.71186524176E+02  0.32438947540E+03  0.35692193761E+03  0.12499053836E+03 0.  0.
          2    1    1    2  501    0  0.12588421075E+02 -0.43971603931E+02 -0.22572637796E+02  0.51004845598E+02  0.00000000000E+00 0. -1.
          1    1    1    2  502    0 -0.50988706080E+02 -0.27214920245E+02  0.57711651859E+03  0.58000342763E+03  0.00000000000E+00 0. -1.
         22    1    3    3    0    0  0.14909055415E+01 -0.25893198621E+02  0.13698750433E+02  0.29331489863E+02  0.00000000000E+00 0. -1.
         22    1    3    3    0    0  0.36909379463E+02  0.97079722797E+02  0.31069072497E+03  0.32759044774E+03  0.00000000000E+00 0. -1.
</event>
<event>
 7    1  0.2895750E-005  0.4681121E+02  0.7818608E-02  0.1473610E+00
          2   -1    0    0  502    0  0.00000000000E+00  0.00000000000E+00  0.18358200097E+03  0.18358200097E+03  0.00000000000E+00 0. -1.
          1   -1    0    0  501    0 -0.00000000000E+00 -0.00000000000E+00 -0.11235172217E+04  0.11235172217E+04  0.00000000000E+00 0. -1.
         25    2    1    2    0    0  0.37559211199E+02  0.50466999583E+02 -0.93494178884E+02  0.16829630226E+03  0.12499948590E+03 0.  0.
          2    1    1    2  501    0  0.86125354126E+01 -0.42623392873E+02 -0.98838052347E+03  0.98933664066E+03  0.00000000000E+00 0. -1.
          1    1    1    2  502    0 -0.46171746612E+02 -0.78436067097E+01  0.14193948160E+03  0.14946627977E+03  0.00000000000E+00 0. -1.
         22    1    3    3    0    0 -0.17320378906E+02  0.72073304011E+02 -0.77379551389E+02  0.10715480227E+03  0.00000000000E+00 0.  1.
         22    1    3    3    0    0  0.54879590105E+02 -0.21606304429E+02 -0.16114627495E+02  0.61141499986E+02  0.00000000000E+00 0.  1.
</event>
<event>
 7    1  0.2895750E-005  0.1399777E+03  0.7818608E-02  0.1268037E+00
          2   -1    0    0  502    0  0.00000000000E+00  0.00000000000E+00  0.12300094053E+04  0.12300094053E+04  0.00000000000E+00 0. -1.
          1   -1    0    0  501    0 -0.00000000000E+00 -0.00000000000E+00 -0.11721006962E+03  0.11721006962E+03  0.00000000000E+00 0. -1.
         25    2    1    2    0    0  0.48365016017E+01  0.14081990932E+03  0.37527024172E+03  0.41988860321E+03  0.12500018471E+03 0.  0.
          2    1    1    2  501    0  0.77397292097E+02 -0.21644644238E+02 -0.70210522009E+02  0.10671620706E+03  0.00000000000E+00 0. -1.
          1    1    1    2  502    0 -0.82233793698E+02 -0.11917526508E+03  0.80773961601E+03  0.82061466470E+03  0.00000000000E+00 0. -1.
         22    1    3    3    0    0 -0.58578555360E+02  0.48084442990E+02  0.14115581323E+03  0.16021399569E+03  0.00000000000E+00 0. -1.
         22    1    3    3    0    0  0.63415056962E+02  0.92735466329E+02  0.23411442849E+03  0.25967460752E+03  0.00000000000E+00 0. -1.
</event>
<event>
 7    1  0.2895750E-005  0.2673804E+03  0.7818608E-02  0.1148929E+00
          2   -1    0    0  502    0  0.00000000000E+00  0.00000000000E+00  0.80787414459E+03  0.80787414459E+03  0.00000000000E+00 0. -1.
          1   -1    0    0  501    0 -0.00000000000E+00 -0.00000000000E+00 -0.81348904314E+03  0.81348904314E+03  0.00000000000E+00 0. -1.
         25    2    1    2    0    0  0.57326229212E+02  0.12697328181E+03  0.43049484173E+03  0.46942381957E+03  0.12499761104E+03 0.  0.
          2    1    1    2  501    0  0.24258671988E+03 -0.11244537595E+03 -0.70179568552E+03  0.75100563477E+03  0.00000000000E+00 0. -1.
          1    1    1    2  502    0 -0.29991294909E+03 -0.14527905865E+02  0.26568594524E+03  0.40093373340E+03  0.00000000000E+00 0. -1.
         22    1    3    3    0    0  0.87063889957E+02  0.54529530616E+02  0.30148068211E+03  0.31850304917E+03  0.00000000000E+00 0.  1.
         22    1    3    3    0    0 -0.29737660745E+02  0.72443751198E+02  0.12901415962E+03  0.15092077040E+03  0.00000000000E+00 0.  1.
</event>
<event>
 7    1  0.3337664E-005  0.1542673E+03  0.7818608E-02  0.1304688E+00
          2   -1    0    0  502    0  0.00000000000E+00  0.00000000000E+00  0.56912442094E+03  0.56912442094E+03  0.00000000000E+00 0. -1.
          1   -1    0    0  501    0 -0.00000000000E+00 -0.00000000000E+00 -0.30705356484E+04  0.30705356484E+04  0.00000000000E+00 0. -1.
         25    2    1    2    0    0  0.17304053706E+03 -0.10636030922E+03 -0.21827342432E+04  0.21957250867E+04  0.12499734900E+03 0.  0.
          2    1    1    2  501    0 -0.49653123325E+02  0.14150972653E+02 -0.86998335778E+03  0.87151404205E+03  0.00000000000E+00 0. -1.
          1    1    1    2  502    0 -0.12338741373E+03  0.92209336571E+02  0.55130637355E+03  0.57242094051E+03  0.00000000000E+00 0. -1.
         22    1    3    3    0    0 -0.19565050200E+02 -0.17692309283E+02 -0.22405093688E+03  0.22559838500E+03  0.00000000000E+00 0.  1.
         22    1    3    3    0    0  0.19260558726E+03 -0.88667999942E+02 -0.19586833063E+04  0.19701267017E+04  0.00000000000E+00 0.  1.
</event>
<event>
 7    1  0.2895750E-005  0.1797624E+03  0.7818608E-02  0.1252977E+00
          2   -1    0    0  502    0  0.00000000000E+00  0.00000000000E+00  0.16467586429E+04  0.16467586429E+04  0.00000000000E+00 0. -1.
          1   -1    0    0  501    0 -0.00000000000E+00 -0.00000000000E+00 -0.41537184719E+02  0.41537184719E+02  0.00000000000E+00 0. -1.
         25    2    1    2    0    0 -0.45936917584E+02  0.11633248001E+03  0.27960057031E+03  0.33082709052E+03  0.12500655423E+03 0.  0.
          2    1    1    2  501    0 -0.27989999015E+02  0.66937895950E+02  0.16648611040E+03  0.18160877433E+03  0.00000000000E+00 0. -1.
          1    1    1    2  502    0  0.73926916598E+02 -0.18327037596E+03  0.11591347775E+04  0.11758599628E+04  0.00000000000E+00 0. -1.
         22    1    3    3    0    0 -0.34385499735E+02  0.78064457243E+02  0.27803149313E+03  0.29082285545E+03  0.00000000000E+00 0.  1.
         22    1    3    3    0    0 -0.11551417849E+02  0.38268022763E+02  0.15690771805E+01  0.40004235072E+02  0.00000000000E+00 0.  1.
</event>
<event>
 7    1  0.2895750E-005  0.2825374E+03  0.7818608E-02  0.1110901E+00
          2   -1    0    0  502    0  0.00000000000E+00  0.00000000000E+00  0.44715468906E+03  0.44715468906E+03  0.00000000000E+00 0. -1.
          1   -1    0    0  501    0 -0.00000000000E+00 -0.00000000000E+00 -0.62983459032E+03  0.62983459032E+03  0.00000000000E+00 0. -1.
         25    2    1    2    0    0  0.31633848539E+03 -0.28344033425E+02 -0.39724497997E+02  0.34362126649E+03  0.12499646983E+03 0.  0.
          2    1    1    2  501    0 -0.19353082133E+03  0.22051410144E+03 -0.32771395171E+03  0.43986029815E+03  0.00000000000E+00 0. -1.
          1    1    1    2  502    0 -0.12280766406E+03 -0.19217006801E+03  0.18475854845E+03  0.29350771475E+03  0.00000000000E+00 0. -1.
         22    1    3    3    0    0  0.63365242742E+02 -0.58793224474E+02 -0.68592290398E+01  0.86711281012E+02  0.00000000000E+00 0. -1.
         22    1    3    3    0    0  0.25297324265E+03  0.30449191049E+02 -0.32865268957E+02  0.25690998548E+03  0.00000000000E+00 0. -1.
</event>
<event>
 7    1  0.2895750E-005  0.3187193E+03  0.7818608E-02  0.1169659E+00
          2   -1    0    0  502    0  0.00000000000E+00  0.00000000000E+00  0.10296643066E+04  0.10296643066E+04  0.00000000000E+00 0. -1.
          1   -1    0    0  501    0 -0.00000000000E+00 -0.00000000000E+00 -0.69047671991E+03  0.69047671991E+03  0.00000000000E+00 0. -1.
         25    2    1    2    0    0 -0.84630165629E+02  0.21626080265E+03  0.94436612902E+03  0.98050157010E+03  0.12499977458E+03 0.  0.
          2    1    1    2  501    0  0.73773672854E+02 -0.31518413003E+03 -0.43079884848E+03  0.53886105675E+03  0.00000000000E+00 0. -1.
          1    1    1    2  502    0  0.10856492775E+02  0.98923327383E+02 -0.17437969386E+03  0.20077839965E+03  0.00000000000E+00 0. -1.
         22    1    3    3    0    0 -0.10802289418E+03  0.21262102331E+03  0.82347824200E+03  0.85731736263E+03  0.00000000000E+00 0.  1.
         22    1    3    3    0    0  0.23392728555E+02  0.36397793322E+01  0.12088788702E+03  0.12318420747E+03  0.00000000000E+00 0.  1.
</event>
<event>
 7    1  0.2895750E-005  0.2273056E+03  0.7818608E-02  0.1323617E+00
          2   -1    0    0  502    0  0.00000000000E+00  0.00000000000E+00  0.15224261748E+04  0.15224261748E+04  0.00000000000E+00 0. -1.
          1   -1    0    0  501    0 -0.00000000000E+00 -0.00000000000E+00 -0.11770087247E+04  0.11770087247E+04  0.00000000000E+00 0. -1.
         25    2    1    2    0    0 -0.92709794561E+02 -0.18022851176E+03 -0.10963216717E+04  0.11218840948E+04  0.12500116723E+03 0.  0.
          2    1    1    2  501    0  0.40112256274E+01 -0.29268915775E+02 -0.55635354571E+02  0.62992476058E+02  0.00000000000E+00 0. -1.
          1    1    1    2  502    0  0.88698568933E+02  0.20949742753E+03  0.14973744764E+04  0.15145583286E+04  0.00000000000E+00 0. -1.
         22    1    3    3    0    0 -0.59980941772E+02 -0.18429986990E+03 -0.77472377238E+03  0.79859944835E+03  0.00000000000E+00 0. -1.
         22    1    3    3    0    0 -0.32728852789E+02  0.40713581489E+01 -0.32159789937E+03  0.32328464646E+03  0.00000000000E+00 0. -1.
</event>
<event>
 7    1  0.2895750E-005  0.4358650E+02  0.7818608E-02  0.1483438E+00
          2   -1    0    0  502    0  0.00000000000E+00  0.00000000000E+00  0.11276204582E+03  0.11276204582E+03  0.00000000000E+00 0. -1.
          1   -1    0    0  501    0 -0.00000000000E+00 -0.00000000000E+00 -0.11671904155E+04  0.11671904155E+04  0.00000000000E+00 0. -1.
         25    2    1    2    0    0 -0.18650997419E+01 -0.70972490893E+00 -0.15057596859E+03  0.19571634196E+03  0.12501112706E+03 0.  0.
          2    1    1    2  501    0 -0.39233849863E+02  0.18933967296E+02 -0.98793164234E+03  0.98889166243E+03  0.00000000000E+00 0. -1.
          1    1    1    2  502    0  0.41098949605E+02 -0.18224242387E+02  0.84079241212E+02  0.95344456954E+02  0.00000000000E+00 0. -1.
         22    1    3    3    0    0  0.14958687710E+02  0.57834853163E+02 -0.10026434552E+03  0.11671148855E+03  0.00000000000E+00 0. -1.
         22    1    3    3    0    0 -0.16823787452E+02 -0.58544578071E+02 -0.50311623066E+02  0.79004853404E+02  0.00000000000E+00 0. -1.
</event>
<event>
 7    1  0.2895750E-005  0.3789156E+03  0.7818608E-02  0.1152363E+00
          2   -1    0    0  502    0  0.00000000000E+00  0.00000000000E+00  0.27796036296E+04  0.27796036296E+04  0.00000000000E+00 0. -1.
          1   -1    0    0  501    0 -0.00000000000E+00 -0.00000000000E+00 -0.79376712789E+02  0.79376712789E+02  0.00000000000E+00 0. -1.
         25    2    1    2    0    0  0.89389538091E+02 -0.41034558088E+03  0.89089276718E+03  0.99282063854E+03  0.12501564873E+03 0.  0.
          2    1    1    2  501    0 -0.24159443742E+02  0.33148882679E+03  0.10889684502E+04  0.11385608488E+04  0.00000000000E+00 0. -1.
          1    1    1    2  502    0 -0.65230094349E+02  0.78856754091E+02  0.72036569945E+03  0.72759885501E+03  0.00000000000E+00 0. -1.
         22    1    3    3    0    0 -0.30783318264E+02 -0.85864241578E+02  0.21350038750E+03  0.23216954178E+03  0.00000000000E+00 0.  1.
         22    1    3    3    0    0  0.12017285635E+03 -0.32448133931E+03  0.67739237968E+03  0.76065109676E+03  0.00000000000E+00 0.  1.
</event>
<event>
 7    1  0.2895750E-005  0.6135108E+02  0.7818608E-02  0.1546422E+00
          2   -1    0    0  502    0  0.00000000000E+00  0.00000000000E+00  0.73675588593E+02  0.73675588593E+02  0.00000000000E+00 0. -1.
          1   -1    0    0  501    0 -0.00000000000E+00 -0.00000000000E+00 -0.26836731248E+03  0.26836731248E+03  0.00000000000E+00 0. -1.
         25    2    1    2    0    0 -0.58188869912E+02 -0.27379222212E+02 -0.11442205444E+03  0.18127133200E+03  0.12502528892E+03 0.  0.
          2    1    1    2  501    0  0.13741045494E+02 -0.14873491041E+02 -0.95466586469E+02  0.97590502607E+02  0.00000000000E+00 0. -1.
          1    1    1    2  502    0  0.44447824418E+02  0.42252713253E+02  0.15196917030E+02  0.63181066468E+02  0.00000000000E+00 0. -1.
         22    1    3    3    0    0 -0.53530887273E+02  0.41720425170E+02 -0.76670683366E+02  0.10239405967E+03  0.00000000000E+00 0.  1.
         22    1    3    3    0    0 -0.46579826398E+01 -0.69099647382E+02 -0.37751371077E+02  0.78877272321E+02  0.00000000000E+00 0.  1.
</event>
<event>
 7    1  0.2895750E-005  0.2998473E+03  0.7818608E-02  0.1169969E+00
          2   -1    0    0  502    0  0.00000000000E+00  0.00000000000E+00  0.28464346193E+03  0.28464346193E+03  0.00000000000E+00 0. -1.
          1   -1    0    0  501    0 -0.00000000000E+00 -0.00000000000E+00 -0.11698550648E+04  0.11698550648E+04  0.00000000000E+00 0. -1.
         25    2    1    2    0    0 -0.28059229215E+03 -0.26688048196E+03 -0.18007566021E+03  0.44498280121E+03  0.12500089563E+03 0.  0.
          2    1    1    2  501    0  0.19273683830E+03  0.20864049612E+03 -0.81149782613E+03  0.85977152039E+03  0.00000000000E+00 0. -1.
          1    1    1    2  502    0  0.87855453849E+02  0.58239985834E+02  0.10636188346E+03  0.14974420515E+03  0.00000000000E+00 0. -1.
         22    1    3    3    0    0 -0.29358529524E+03 -0.25851607998E+03 -0.16992372060E+03  0.42649379833E+03  0.00000000000E+00 0. -1.
         22    1    3    3    0    0  0.12993003091E+02 -0.83644019742E+01 -0.10151939602E+02  0.18489002877E+02  0.00000000000E+00 0. -1.
</event>
<event>
 7    1  0.2895750E-005  0.2977571E+03  0.7818608E-02  0.1205937E+00
          2   -1    0    0  502    0  0.00000000000E+00  0.00000000000E+00  0.46595727681E+03  0.46595727681E+03  0.00000000000E+00 0. -1.
          1   -1    0    0  501    0 -0.00000000000E+00 -0.00000000000E+00 -0.36792980866E+03  0.36792980866E+03  0.00000000000E+00 0. -1.
         25    2    1    2    0    0 -0.30374059254E+03 -0.42473574931E+02 -0.11717677362E+03  0.35130957831E+03  0.12500268561E+03 0.  0.
          2    1    1    2  501    0  0.80338769206E+01  0.70780404837E+02 -0.47829411523E+02  0.85802456223E+02  0.00000000000E+00 0. -1.
          1    1    1    2  502    0  0.29570671562E+03 -0.28306829905E+02  0.26303365329E+03  0.39677505094E+03  0.00000000000E+00 0. -1.
         22    1    3    3    0    0 -0.64446452811E+02 -0.48576790948E+02 -0.71073392943E+02  0.10753825870E+03  0.00000000000E+00 0.  1.
         22    1    3    3    0    0 -0.23929413973E+03  0.61032160172E+01 -0.46103380677E+02  0.24377131961E+03  0.00000000000E+00 0.  1.
</event>
<event>
 7    1  0.2895750E-005  0.2979330E+03  0.7818608E-02  0.1215104E+00
          2   -1    0    0  502    0  0.00000000000E+00  0.00000000000E+00  0.15438724188E+04  0.15438724188E+04  0.00000000000E+00 0. -1.
          1   -1    0    0  501    0 -0.00000000000E+00 -0.00000000000E+00 -0.15419717168E+03  0.15419717168E+03  0.00000000000E+00 0. -1.
         25    2    1    2    0    0  0.31203811304E+03 -0.42857152033E+02  0.13402512472E+03  0.36440634680E+03  0.12499892824E+03 0.  0.
          2    1    1    2  501    0 -0.26758866161E+03 -0.39649502726E+01  0.43673948483E+03  0.51221166549E+03  0.00000000000E+00 0. -1.
          1    1    1    2  502    0 -0.44449451432E+02  0.46822102305E+02  0.81891063758E+03  0.82145157820E+03  0.00000000000E+00 0. -1.
         22    1    3    3    0    0  0.27265904990E+03 -0.43950773223E+02  0.63131048197E+02  0.28330223650E+03  0.00000000000E+00 0. -1.
         22    1    3    3    0    0  0.39379063141E+02  0.10936211899E+01  0.70894076527E+02  0.81104110302E+02  0.00000000000E+00 0. -1.
</event>
<event>
 7    1  0.2895750E-005  0.1995721E+03  0.7818608E-02  0.1365942E+00
          2   -1    0    0  502    0  0.00000000000E+00  0.00000000000E+00  0.10774809599E+04  0.10774809599E+04  0.00000000000E+00 0. -1.
          1   -1    0    0  501    0 -0.00000000000E+00 -0.00000000000E+00 -0.63020151747E+03  0.63020151747E+03  0.00000000000E+00 0. -1.
         25    2    1    2    0    0 -0.78456162635E+02 -0.19410747764E+03 -0.13571040645E+03  0.27906084849E+03  0.12499824163E+03 0.  0.
          2    1    1    2  501    0  0.90986958122E+02  0.17436888171E+03 -0.39979700729E+03  0.44555670851E+03  0.00000000000E+00 0. -1.
          1    1    1    2  502    0 -0.12530795487E+02  0.19738595925E+02  0.98278685612E+03  0.98306492032E+03  0.00000000000E+00 0. -1.
         22    1    3    3    0    0 -0.95512539758E+02 -0.91236446821E+02 -0.41290932432E+02  0.13838957902E+03  0.00000000000E+00 0.  1.
         22    1    3    3    0    0  0.17056377122E+02 -0.10287103081E+03 -0.94419474017E+02  0.14067126947E+03  0.00000000000E+00 0.  1.
</event>
<event>
 7    1  0.2895750E-005  0.2004194E+03  0.7818608E-02  0.1243143E+00
          2   -1    0    0  502    0  0.00000000000E+00  0.00000000000E+00  0.15684242066E+04  0.15684242066E+04  0.00000000000E+00 0. -1.
          1   -1    0    0  501    0 -0.00000000000E+00 -0.00000000000E+00 -0.63898134952E+03  0.63898134952E+03  0.00000000000E+00 0. -1.
         25    2    1    2    0    0 -0.19491494372E+03 -0.14837565794E+03 -0.74592582873E+02  0.28493998566E+03  0.12497828152E+03 0.  0.
          2    1    1    2  501    0  0.12309888909E+03  0.14840175839E+03 -0.43804293222E+03  0.47860007193E+03  0.00000000000E+00 0. -1.
          1    1    1    2  502    0  0.71816054622E+02 -0.26100444574E-01  0.14420783722E+04  0.14438654985E+04  0.00000000000E+00 0. -1.
         22    1    3    3    0    0 -0.91123798866E+02 -0.95645542339E+02  0.21680588762E+02  0.13387182085E+03  0.00000000000E+00 0. -1.
         22    1    3    3    0    0 -0.10379114485E+03 -0.52730115604E+02 -0.96273171634E+02  0.15106816480E+03  0.00000000000E+00 0. -1.
</event>
<event>
 7    1  0.2895750E-005  0.7733951E+02  0.7818608E-02  0.1462392E+00
          2   -1    0    0  502    0  0.00000000000E+00  0.00000000000E+00  0.38338957923E+04  0.38338957923E+04  0.00000000000E+00 0. -1.
          1   -1    0    0  501    0 -0.00000000000E+00 -0.00000000000E+00 -0.82739684181E+01  0.82739684181E+01  0.00000000000E+00 0. -1.
         25    2    1    2    0    0  0.28634065572E+02  0.65856752997E+02  0.18164802936E+04  0.18221917309E+04  0.12500010229E+03 0.  0.
          2    1    1    2  501    0  0.27201196626E+02 -0.86013772034E+01  0.39561342944E+02  0.48774877173E+02  0.00000000000E+00 0. -1.
          1    1    1    2  502    0 -0.55835262199E+02 -0.57255375793E+02  0.19695801874E+04  0.19712031526E+04  0.00000000000E+00 0. -1.
         22    1    3    3    0    0  0.72945155083E+02  0.46612585177E+02  0.14438848655E+04  0.14464775261E+04  0.00000000000E+00 0. -1.
         22    1    3    3    0    0 -0.44311089511E+02  0.19244167819E+02  0.37259542806E+03  0.37571420476E+03  0.00000000000E+00 0. -1.
</event>
<event>
 7    1  0.2895750E-005  0.4249965E+02  0.7818608E-02  0.1569733E+00
          2   -1    0    0  502    0  0.00000000000E+00  0.00000000000E+00  0.52680220258E+03  0.52680220258E+03  0.00000000000E+00 0. -1.
          1   -1    0    0  501    0 -0.00000000000E+00 -0.00000000000E+00 -0.15254584260E+03  0.15254584260E+03  0.00000000000E+00 0. -1.
         25    2    1    2    0    0  0.12583563599E+02 -0.35922855669E+02 -0.51944789367E+00  0.13066613201E+03  0.12499828237E+03 0.  0.
          2    1    1    2  501    0 -0.35380159680E+02  0.25167177121E+02 -0.81163146011E+02  0.92046720602E+02  0.00000000000E+00 0. -1.
          1    1    1    2  502    0  0.22796596081E+02  0.10755678547E+02  0.45593895389E+03  0.45663519256E+03  0.00000000000E+00 0. -1.
         22    1    3    3    0    0 -0.34622256941E+01 -0.68502498270E+02 -0.38053395148E+02  0.78438766935E+02  0.00000000000E+00 0.  1.
         22    1    3    3    0    0  0.16045789293E+02  0.32579642601E+02  0.37533947255E+02  0.52227365074E+02  0.00000000000E+00 0.  1.
</event>
<event>
 7    1  0.2895750E-005  0.1195330E+03  0.7818608E-02  0.1269287E+00
          2   -1    0    0  502    0  0.00000000000E+00  0.00000000000E+00  0.30315473998E+03  0.30315473998E+03  0.00000000000E+00 0. -1.
          1   -1    0    0  501    0 -0.00000000000E+00 -0.00000000000E+00 -0.28920094407E+04  0.28920094407E+04  0.00000000000E+00 0. -1.
         25    2    1    2    0    0 -0.36851446156E+02  0.14349784873E+03  0.51005102294E+02  0.20044005273E+03  0.12500013043E+03 0.  0.
          2    1    1    2  501    0  0.95780710631E+02 -0.71577145281E+02 -0.28037485421E+04  0.28062970476E+04  0.00000000000E+00 0. -1.
          1    1    1    2  502    0 -0.58929264475E+02 -0.71920703447E+02  0.16388873908E+03  0.18842708031E+03  0.00000000000E+00 0. -1.
         22    1    3    3    0    0 -0.43368323192E+02  0.25068175901E+02 -0.28516495329E+02  0.57640397339E+02  0.00000000000E+00 0.  1.
         22    1    3    3    0    0  0.65168770364E+01  0.11842967283E+03  0.79521597623E+02  0.14279965539E+03  0.00000000000E+00 0.  1.
</event>
<event>
 7    1  0.2895750E-005  0.1136578E+04  0.7818608E-02  0.1137934E+00
          2   -1    0    0  502    0  0.00000000000E+00  0.00000000000E+00  0.40681545672E+04  0.40681545672E+04  0.00000000000E+00 0. -1.
          1   -1    0    0  501    0 -0.00000000000E+00 -0.00000000000E+00 -0.22743639983E+04  0.22743639983E+04  0.00000000000E+00 0. -1.
         25    2    1    2    0    0 -0.94870336924E+03 -0.61366439113E+03  0.16278206877E+04  0.19854592092E+04  0.12500404872E+03 0.  0.
          2    1    1    2  501    0 -0.30931657706E+02  0.26203524582E+02 -0.19510816862E+04  0.19515027897E+04  0.00000000000E+00 0. -1.
          1    1    1    2  502    0  0.97963502695E+03  0.58746086655E+03  0.21170515673E+04  0.24055565665E+04  0.00000000000E+00 0. -1.
         22    1    3    3    0    0 -0.16585689817E+03 -0.11590076947E+03  0.38073497341E+03  0.43116194059E+03  0.00000000000E+00 0.  1.
         22    1    3    3    0    0 -0.78284647107E+03 -0.49776362166E+03  0.12470857143E+04  0.15542972686E+04  0.00000000000E+00 0.  1.
</event>
<event>
 7    1  0.2895750E-005  0.1478612E+03  0.7818608E-02  0.1239067E+00
          2   -1    0    0  502    0  0.00000000000E+00  0.00000000000E+00  0.48453734281E+03  0.48453734281E+03  0.00000000000E+00 0. -1.
          1   -1    0    0  501    0 -0.00000000000E+00 -0.00000000000E+00 -0.14821853310E+04  0.14821853310E+04  0.00000000000E+00 0. -1.
         25    2    1    2    0    0  0.18427074699E+03  0.91317907214E+02 -0.16482171134E+03  0.29169365489E+03  0.12499729356E+03 0.  0.
          2    1    1    2  501    0 -0.86159850638E+02 -0.11712928105E+03 -0.12435192395E+04  0.12519915684E+04  0.00000000000E+00 0. -1.
          1    1    1    2  502    0 -0.98110896355E+02  0.25811373838E+02  0.41069296263E+03  0.42303745054E+03  0.00000000000E+00 0. -1.
         22    1    3    3    0    0  0.10917088238E+03  0.10264302851E+03 -0.58121089496E+02  0.16072315921E+03  0.00000000000E+00 0.  1.
         22    1    3    3    0    0  0.75099864614E+02 -0.11325121297E+02 -0.10670062184E+03  0.13097049568E+03  0.00000000000E+00 0.  1.
</event>
<event>
 7    1  0.2895750E-005  0.1470158E+03  0.7818608E-02  0.1367312E+00
          2   -1    0    0  502    0  0.00000000000E+00  0.00000000000E+00  0.27118657860E+04  0.27118657860E+04  0.00000000000E+00 0. -1.
          1   -1    0    0  501    0 -0.00000000000E+00 -0.00000000000E+00 -0.22192291923E+03  0.22192291923E+03  0.00000000000E+00 0. -1.
         25    2    1    2    0    0  0.18097749325E+02  0.16869751310E+03  0.63960847332E+03  0.67343479390E+03  0.12501617111E+03 0.  0.
          2    1    1    2  501    0  0.13354510843E+02 -0.28394833414E+02 -0.20127799047E+03  0.20370920198E+03  0.00000000000E+00 0. -1.
          1    1    1    2  502    0 -0.31452260168E+02 -0.14030267969E+03  0.20516123839E+04  0.20566447093E+04  0.00000000000E+00 0. -1.
         22    1    3    3    0    0  0.10616258214E+02  0.14206838479E+03  0.62709800901E+03  0.64307701234E+03  0.00000000000E+00 0.  1.
         22    1    3    3    0    0  0.74814911111E+01  0.26629128318E+02  0.12510464306E+02  0.30357781562E+02  0.00000000000E+00 0.  1.
</event>
<event>
 7    1  0.2895750E-005  0.1900487E+03  0.7818608E-02  0.1302193E+00
          2   -1    0    0  502    0  0.00000000000E+00  0.00000000000E+00  0.34163670758E+04  0.34163670758E+04  0.00000000000E+00 0. -1.
          1   -1    0    0  501    0 -0.00000000000E+00 -0.00000000000E+00 -0.73319910152E+02  0.73319910152E+02  0.00000000000E+00 0. -1.
         25    2    1    2    0    0 -0.21282499589E+03  0.30503816104E+02  0.56904527928E+03  0.62101713499E+03  0.12499916166E+03 0.  0.
          2    1    1    2  501    0  0.18309241683E+03  0.39251805357E+00  0.13054826887E+03  0.22486848974E+03  0.00000000000E+00 0. -1.
          1    1    1    2  502    0  0.29732579052E+02 -0.30896334158E+02  0.26434536175E+04  0.26438013612E+04  0.00000000000E+00 0. -1.
         22    1    3    3    0    0 -0.58872162824E+02  0.23664164064E+02  0.33389079203E+03  0.33986612838E+03  0.00000000000E+00 0. -1.
         22    1    3    3    0    0 -0.15395283306E+03  0.68396520402E+01  0.23515448724E+03  0.28115100661E+03  0.00000000000E+00 0. -1.
</event>
<event>
 7    1  0.2895750E-005  0.1622051E+03  0.7818608E-02  0.1210538E+00
          2   -1    0    0  502    0  0.00000000000E+00  0.00000000000E+00  0.38038601927E+04  0.38038601927E+04  0.00000000000E+00 0. -1.
          1   -1    0    0  501    0 -0.00000000000E+00 -0.00000000000E+00 -0.11278270969E+04  0.11278270969E+04  0.00000000000E+00 0. -1.
         25    2    1    2    0    0 -0.45297985404E+02 -0.39816594451E+02 -0.44528420354E+02  0.14576951949E+03  0.12501481479E+03 0.  0.
          2    1    1    2  501    0  0.80233833285E+02  0.15929101857E+03 -0.10239350813E+04  0.10393527541E+04  0.00000000000E+00 0. -1.
          1    1    1    2  502    0 -0.34935847881E+02 -0.11947442411E+03  0.37444965975E+04  0.37465650161E+04  0.00000000000E+00 0. -1.
         22    1    3    3    0    0 -0.16002653740E+02  0.15949159348E+02 -0.73164631374E+02  0.76573650133E+02  0.00000000000E+00 0. -1.
         22    1    3    3    0    0 -0.29295331664E+02 -0.55765753799E+02  0.28636211020E+02  0.69195869354E+02  0.00000000000E+00 0. -1.
</event>
<event>
 7    1  0.2895750E-005  0.1222184E+03  0.7818608E-02  0.1247078E+00
          2   -1    0    0  502    0  0.00000000000E+00  0.00000000000E+00  0.15128209927E+04  0.15128209927E+04  0.00000000000E+00 0. -1.
          1   -1    0    0  501    0 -0.00000000000E+00 -0.00000000000E+00 -0.92953687434E+03  0.92953687434E+03  0.00000000000E+00 0. -1.
         25    2    1    2    0    0  0.89451015340E+02  0.16438306490E+03  0.41531104649E+03  0.47236830832E+03  0.12500110880E+03 0.  0.
          2    1    1    2  501    0  0.15096833382E+02 -0.12099783129E+03 -0.89386085482E+03  0.90213946668E+03  0.00000000000E+00 0. -1.
          1    1    1    2  502    0 -0.10454784872E+03 -0.43385233608E+02  0.10618339267E+04  0.10678500920E+04  0.00000000000E+00 0. -1.
         22    1    3    3    0    0  0.31091800294E+02 -0.16181761972E+02  0.72977156546E+02  0.80958105484E+02  0.00000000000E+00 0. -1.
         22    1    3    3    0    0  0.58359215047E+02  0.18056482687E+03  0.34233388994E+03  0.39141020284E+03  0.00000000000E+00 0. -1.
</event>
<event>
 7    1  0.2895750E-005  0.2819626E+03  0.7818608E-02  0.1320476E+00
          2   -1    0    0  502    0  0.00000000000E+00  0.00000000000E+00  0.12955123084E+04  0.12955123084E+04  0.00000000000E+00 0. -1.
          1   -1    0    0  501    0 -0.00000000000E+00 -0.00000000000E+00 -0.26765738010E+03  0.26765738010E+03  0.00000000000E+00 0. -1.
         25    2    1    2    0    0 -0.27436343151E+03  0.95895219701E+01  0.54864225467E+03  0.62609982771E+03  0.12500167667E+03 0.  0.
          2    1    1    2  501    0 -0.13333236605E+02 -0.20544118925E+02 -0.19888334323E+03  0.20038567872E+03  0.00000000000E+00 0. -1.
          1    1    1    2  502    0  0.28769666811E+03  0.10954596955E+02  0.67809601688E+03  0.73668418209E+03  0.00000000000E+00 0. -1.
         22    1    3    3    0    0 -0.22461458485E+03 -0.14548409599E+02  0.32240222306E+03  0.39320040867E+03  0.00000000000E+00 0.  1.
         22    1    3    3    0    0 -0.49748846659E+02  0.24137931569E+02  0.22624003161E+03  0.23289941903E+03  0.00000000000E+00 0.  1.
</event>
<event>
 7    1  0.2895750E-005  0.4990834E+02  0.7818608E-02  0.1547491E+00
          2   -1    0    0  502    0  0.00000000000E+00  0.00000000000E+00  0.13488938309E+04  0.13488938309E+04  0.00000000000E+00 0. -1.
          1   -1    0    0  501    0 -0.00000000000E+00 -0.00000000000E+00 -0.11638708233E+03  0.11638708233E+03  0.00000000000E+00 0. -1.
         25    2    1    2    0    0 -0.62319321915E+02  0.11066522909E+02  0.31678889026E+02  0.14365083575E+03  0.12500337911E+03 0.  0.
          2    1    1    2  501    0  0.19762483834E+02  0.14851550062E+02 -0.57357703539E+02  0.62458229736E+02  0.00000000000E+00 0. -1.
          1    1    1    2  502    0  0.42556838081E+02 -0.25918072971E+02  0.12581855631E+04  0.12591718478E+04  0.00000000000E+00 0. -1.
         22    1    3    3    0    0 -0.45706656706E+02 -0.67040932167E+01 -0.44219978341E+02  0.63948806225E+02  0.00000000000E+00 0. -1.
         22    1    3    3    0    0 -0.16612665210E+02  0.17770616126E+02  0.75898867368E+02  0.79702029526E+02  0.00000000000E+00 0. -1.
</event>
<event>
 7    1  0.2895750E-005  0.5684361E+02  0.7818608E-02  0.1536896E+00
          2   -1    0    0  502    0  0.00000000000E+00  0.00000000000E+00  0.13581783180E+04  0.13581783180E+04  0.00000000000E+00 0. -1.
          1   -1    0    0  501    0 -0.00000000000E+00 -0.00000000000E+00 -0.30518858757E+03  0.30518858757E+03  0.00000000000E+00 0. -1.
         25    2    1    2    0    0 -0.69023025118E+02  0.40141760556E+02  0.10489231835E+04  0.10593586042E+04  0.12500107371E+03 0.  0.
          2    1    1    2  501    0  0.47789481250E+02 -0.30671000129E+02 -0.29683101860E+03  0.30221382889E+03  0.00000000000E+00 0. -1.
          1    1    1    2  502    0  0.21233543868E+02 -0.94707604271E+01  0.30089756555E+03  0.30179447251E+03  0.00000000000E+00 0. -1.
         22    1    3    3    0    0  0.59224302651E+01 -0.22614869387E+02  0.45207744569E+02  0.50894475797E+02  0.00000000000E+00 0. -1.
         22    1    3    3    0    0 -0.74945455383E+02  0.62756629943E+02  0.10037154390E+04  0.10084641284E+04  0.00000000000E+00 0. -1.
</event>
<event>
 7    1  0.2895750E-005  0.3098722E+03  0.7818608E-02  0.1109691E+00
          2   -1    0    0  502    0  0.00000000000E+00  0.00000000000E+00  0.15391603921E+04  0.15391603921E+04  0.00000000000E+00 0. -1.
          1   -1    0    0  501    0 -0.00000000000E+00 -0.00000000000E+00 -0.62511555477E+03  0.62511555477E+03  0.00000000000E+00 0. -1.
         25    2    1    2    0    0  0.11938374660E+03 -0.16565483752E+03 -0.48456298503E+03  0.54048064639E+03  0.12499615400E+03 0.  0.
          2    1    1    2  501    0 -0.15053073648E+03 -0.14809749643E+03  0.22886128966E+02  0.21240561663E+03  0.00000000000E+00 0. -1.
          1    1    1    2  502    0  0.31146989882E+02  0.31375233395E+03  0.13757216934E+04  0.14113896839E+04  0.00000000000E+00 0. -1.
         22    1    3    3    0    0  0.11547650201E+03 -0.55110730282E+02 -0.23713464114E+03  0.26945287740E+03  0.00000000000E+00 0.  1.
         22    1    3    3    0    0  0.39072445892E+01 -0.11054410724E+03 -0.24742834389E+03  0.27102776899E+03  0.00000000000E+00 0.  1.
</event>
<event>
 7    1  0.2895750E-005  0.2687955E+03  0.7818608E-02  0.1173665E+00
          2   -1    0    0  502    0  0.00000000000E+00  0.00000000000E+00  0.33260608189E+03  0.33260608189E+03  0.00000000000E+00 0. -1.
          1   -1    0    0  501    0 -0.00000000000E+00 -0.00000000000E+00 -0.22188967318E+04  0.22188967318E+04  0.00000000000E+00 0. -1.
         25    2    1    2    0    0  0.62376273911E+02  0.31587442725E+03 -0.19714188563E+03  0.39768960083E+03  0.12499856879E+03 0.  0.
          2    1    1    2  501    0  0.37070815456E+02 -0.26278460368E+03 -0.18980085497E+04  0.19164723969E+04  0.00000000000E+00 0. -1.
          1    1    1    2  502    0 -0.99447089368E+02 -0.53089823577E+02  0.20885978543E+03  0.23734081596E+03  0.00000000000E+00 0. -1.
         22    1    3    3    0    0 -0.18206353423E+02  0.19939265132E+03 -0.14304888282E+03  0.24607292330E+03  0.00000000000E+00 0.  1.
         22    1    3    3    0    0  0.80582627334E+02  0.11648177594E+03 -0.54093002813E+02  0.15161667754E+03  0.00000000000E+00 0.  1.
</event>
<event>
 7    1  0.2895750E-005  0.7888129E+02  0.7818608E-02  0.1335199E+00
          2   -1    0    0  502    0  0.00000000000E+00  0.00000000000E+00  0.43089304496E+03  0.43089304496E+03  0.00000000000E+00 0. -1.
          1   -1    0    0  501    0 -0.00000000000E+00 -0.00000000000E+00 -0.50004724326E+03  0.50004724326E+03  0.00000000000E+00 0. -1.
         25    2    1    2    0    0 -0.51555735179E+02  0.33772717237E+00 -0.15233256150E+03  0.20368760798E+03  0.12500129784E+03 0.  0.
          2    1    1    2  501    0  0.42657762355E+02  0.78040099602E+02 -0.31192269755E+03  0.32435429869E+03  0.00000000000E+00 0. -1.
          1    1    1    2  502    0  0.88979728241E+01 -0.78377826774E+02  0.39510106074E+03  0.40289838154E+03  0.00000000000E+00 0. -1.
         22    1    3    3    0    0 -0.82460447857E+02  0.86657823796E+00 -0.15182371933E+03  0.17277418259E+03  0.00000000000E+00 0. -1.
         22    1    3    3    0    0  0.30904712677E+02 -0.52885106559E+00 -0.50884216981E+00  0.30913425392E+02  0.00000000000E+00 0. -1.
</event>
<event>
 7    1  0.2895750E-005  0.5954261E+02  0.7818608E-02  0.1431322E+00
          2   -1    0    0  502    0  0.00000000000E+00  0.00000000000E+00  0.18198747859E+04  0.18198747859E+04  0.00000000000E+00 0. -1.
          1   -1    0    0  501    0 -0.00000000000E+00 -0.00000000000E+00 -0.88364773531E+03  0.88364773531E+03  0.00000000000E+00 0. -1.
         25    2    1    2    0    0 -0.25211582499E+02  0.13233722993E+02  0.31032691344E+03  0.33576563367E+03  0.12500004894E+03 0.  0.
          2    1    1    2  501    0  0.55314964743E+02  0.22385165398E+02 -0.86954230612E+03  0.87158743858E+03  0.00000000000E+00 0. -1.
          1    1    1    2  502    0 -0.30103382244E+02 -0.35618888391E+02  0.14954424433E+04  0.14961694490E+04  0.00000000000E+00 0. -1.
         22    1    3    3    0    0 -0.71049578500E+02  0.32340817258E+02  0.17529839997E+03  0.19189450252E+03  0.00000000000E+00 0.  1.
         22    1    3    3    0    0  0.45837996001E+02 -0.19107094265E+02  0.13502851348E+03  0.14387113116E+03  0.00000000000E+00 0.  1.
</event>
<event>
 7    1  0.2895750E-005  0.2276188E+03  0.7818608E-02  0.1180008E+00
          2   -1    0    0  502    0  0.00000000000E+00  0.00000000000E+00  0.63616912914E+03  0.63616912914E+03  0.00000000000E+00 0. -1.
          1   -1    0    0  501    0 -0.00000000000E+00 -0.00000000000E+00 -0.14201985102E+04  0.14201985102E+04  0.00000000000E+00 0. -1.
         25    2    1    2    0    0 -0.12890505366E+03 -0.26611007010E+03 -0.70856388045E+02  0.32875676405E+03  0.12501719847E+03 0.  0.
          2    1    1    2  501    0 -0.36411935189E+02  0.11844483512E+03 -0.11928103953E+04  0.11992296056E+04  0.00000000000E+00 0. -1.
          1    1    1    2  502    0  0.16531698885E+03  0.14766523498E+03  0.47963740227E+03  0.52838126962E+03  0.00000000000E+00 0. -1.
         22    1    3    3    0    0 -0.49466904506E+02 -0.18740200299E+02 -0.41613625713E+02  0.67304261334E+02  0.00000000000E+00 0.  1.
         22    1    3    3    0    0 -0.79438149156E+02 -0.24736986980E+03 -0.29242762332E+02  0.26145250272E+03  0.00000000000E+00 0.  1.
</event>
<event>
 7    1  0.2895750E-005  0.9212737E+02  0.7818608E-02  0.1338913E+00
          2   -1    0    0  502    0  0.00000000000E+00  0.00000000000E+00  0.65578943792E+03  0.65578943792E+03  0.00000000000E+00 0. -1.
          1   -1    0    0  501    0 -0.00000000000E+00 -0.00000000000E+00 -0.15468713303E+04  0.15468713303E+04  0.00000000000E+00 0. -1.
         25    2    1    2    0    0 -0.11477904053E+03 -0.49273245005E+02 -0.12741960897E+02  0.17717503860E+03  0.12500622351E+03 0.  0.
          2    1    1    2  501    0  0.23851710936E+02  0.59098441797E+02 -0.14475615585E+04  0.14489637661E+04  0.00000000000E+00 0. -1.
          1    1    1    2  502    0  0.90927329593E+02 -0.98251967918E+01  0.56922162700E+03  0.57652196350E+03  0.00000000000E+00 0. -1.
         22    1    3    3    0    0  0.20253909454E+02  0.93446465286E+01 -0.19761851497E+02  0.29800571160E+02  0.00000000000E+00 0.  1.
         22    1    3    3    0    0 -0.13503294998E+03 -0.58617891534E+02  0.70198905996E+01  0.14737446744E+03  0.00000000000E+00 0.  1.
</event>
<event>
 7    1  0.2895750E-005  0.2792276E+03  0.7818608E-02  0.1220544E+00
          2   -1    0    0  502    0  0.00000000000E+00  0.00000000000E+00  0.26012490835E+04  0.26012490835E+04  0.00000000000E+00 0. -1.
          1   -1    0    0  501    0 -0.00000000000E+00 -0.00000000000E+00 -0.68270937469E+03  0.68270937469E+03  0.00000000000E+00 0. -1.
         25    2    1    2    0    0  0.14978058324E+03 -0.23069316088E+03  0.44270246226E+03  0.53596980379E+03  0.12499841153E+03 0.  0.
          2    1    1    2  501    0 -0.20278381616E+03  0.19298530521E+03 -0.60474274644E+03  0.66639207190E+03  0.00000000000E+00 0. -1.
          1    1    1    2  502    0  0.53003232918E+02  0.37707855676E+02  0.20805799930E+04  0.20815965825E+04  0.00000000000E+00 0. -1.
         22    1    3    3    0    0  0.93270424366E+02 -0.39663881174E+02  0.17572728825E+03  0.20286122194E+03  0.00000000000E+00 0. -1.
         22    1    3    3    0    0  0.56510158876E+02 -0.19102927971E+03  0.26697517400E+03  0.33310858184E+03  0.00000000000E+00 0. -1.
</event>
<event>
 7    1  0.2895750E-005  0.6677784E+02  0.7818608E-02  0.1472103E+00
          2   -1    0    0  502    0  0.00000000000E+00  0.00000000000E+00  0.19891947304E+02  0.19891947304E+02  0.00000000000E+00 0. -1.
          1   -1    0    0  501    0 -0.00000000000E+00 -0.00000000000E+00 -0.11554199524E+04  0.11554199524E+04  0.00000000000E+00 0. -1.
         25    2    1    2    0    0  0.50291287077E+02  0.33102177098E+02 -0.37709216094E+03  0.40180715835E+03  0.12500210787E+03 0.  0.
          2    1    1    2  501    0  0.20707171319E+02 -0.22817095531E+02 -0.58508655508E+03  0.58589733207E+03  0.00000000000E+00 0. -1.
          1    1    1    2  502    0 -0.70998458396E+02 -0.10285081566E+02 -0.17334928911E+03  0.18760740932E+03  0.00000000000E+00 0. -1.
         22    1    3    3    0    0  0.27914647645E+02  0.48544183881E+02 -0.54733514711E+02  0.78304041878E+02  0.00000000000E+00 0.  1.
         22    1    3    3    0    0  0.22376639431E+02 -0.15442006783E+02 -0.32235864623E+03  0.32350311647E+03  0.00000000000E+00 0.  1.
</event>
<event>
 7    1  0.2895750E-005  0.2762498E+03  0.7818608E-02  0.1199681E+00
          2   -1    0    0  502    0  0.00000000000E+00  0.00000000000E+00  0.33842842387E+03  0.33842842387E+03  0.00000000000E+00 0. -1.
          1   -1    0    0  501    0 -0.00000000000E+00 -0.00000000000E+00 -0.23007635189E+04  0.23007635189E+04  0.00000000000E+00 0. -1.
         25    2    1    2    0    0 -0.33373513255E+03 -0.93624038703E+02  0.17104693921E+02  0.36886579093E+03  0.12499920737E+03 0.  0.
          2    1    1    2  501    0  0.25231912016E+03  0.10459003036E+03 -0.21037041084E+04  0.21213615884E+04  0.00000000000E+00 0. -1.
          1    1    1    2  502    0  0.81416012391E+02 -0.10965991662E+02  0.12426431952E+03  0.14896456341E+03  0.00000000000E+00 0. -1.
         22    1    3    3    0    0 -0.30778914194E+03 -0.11846571521E+03  0.17607412070E+01  0.32980506635E+03  0.00000000000E+00 0.  1.
         22    1    3    3    0    0 -0.25945990606E+02  0.24841676504E+02  0.15343952714E+02  0.39060724583E+02  0.00000000000E+00 0.  1.
</event>
<event>
 7    1  0.2895750E-005  0.8808843E+02  0.7818608E-02  0.1427760E+00
          2   -1    0    0  502    0  0.00000000000E+00  0.00000000000E+00  0.45710875568E+02  0.45710875568E+02  0.00000000000E+00 0. -1.
          1   -1    0    0  501    0 -0.00000000000E+00 -0.00000000000E+00 -0.11499637469E+04  0.11499637469E+04  0.00000000000E+00 0. -1.
         25    2    1    2    0    0  0.76592660367E+02 -0.82634610470E+02 -0.13204887036E+03  0.21391156217E+03  0.12500535107E+03 0.  0.
          2    1    1    2  501    0 -0.70490723311E+02  0.50828060416E+02 -0.87501351792E+03  0.87931853748E+03  0.00000000000E+00 0. -1.
          1    1    1    2  502    0 -0.61019370563E+01  0.31806550053E+02 -0.97190483029E+02  0.10244452281E+03  0.00000000000E+00 0. -1.
         22    1    3    3    0    0 -0.28986988429E+02  0.26663539457E+01 -0.41713406662E+02  0.50866130548E+02  0.00000000000E+00 0. -1.
         22    1    3    3    0    0  0.10557964880E+03 -0.85300964415E+02 -0.90335463702E+02  0.16304543162E+03  0.00000000000E+00 0. -1.
</event>
<event>
 7    1  0.2895750E-005  0.7284098E+02  0.7818608E-02  0.1427247E+00
          2   -1    0    0  502    0  0.00000000000E+00  0.00000000000E+00  0.72663793127E+03  0.72663793127E+03  0.00000000000E+00 0. -1.
          1   -1    0    0  501    0 -0.00000000000E+00 -0.00000000000E+00 -0.21188728475E+03  0.21188728475E+03  0.00000000000E+00 0. -1.
         25    2    1    2    0    0 -0.54311659886E+02 -0.10264099547E+02  0.30708578823E+03  0.33612007737E+03  0.12497966611E+03 0.  0.
          2    1    1    2  501    0  0.68470431738E+02 -0.26417029474E+02 -0.18954348630E+03  0.20325548619E+03  0.00000000000E+00 0. -1.
          1    1    1    2  502    0 -0.14158771852E+02  0.36681129021E+02  0.39720834459E+03  0.39914965246E+03  0.00000000000E+00 0. -1.
         22    1    3    3    0    0  0.27958321729E+02  0.30389308236E+02  0.62731651558E+02  0.75102848922E+02  0.00000000000E+00 0.  1.
         22    1    3    3    0    0 -0.82269981616E+02 -0.40653407784E+02  0.24435413667E+03  0.26101722845E+03  0.00000000000E+00 0.  1.
</event>
<event>
 7    1  0.2895750E-005  0.1455214E+03  0.7818608E-02  0.1234502E+00
          2   -1    0    0  502    0  0.00000000000E+00  0.00000000000E+00  0.52942328379E+03  0.52942328379E+03  0.00000000000E+00 0. -1.
          1   -1    0    0  501    0 -0.00000000000E+00 -0.00000000000E+00 -0.11454032038E+04  0.11454032038E+04  0.00000000000E+00 0. -1.
         25    2    1    2    0    0  0.12574991108E+03  0.18223343368E+03  0.26782102614E+03  0.36929042096E+03  0.12500099394E+03 0.  0.
          2    1    1    2  501    0 -0.25356233048E+02 -0.14242514231E+03 -0.10756733114E+04  0.10853575137E+04  0.00000000000E+00 0. -1.
          1    1    1    2  502    0 -0.10039367803E+03 -0.39808291368E+02  0.19187236521E+03  0.22017855296E+03  0.00000000000E+00 0. -1.
         22    1    3    3    0    0  0.22609947111E+02  0.96734736605E+02  0.18988215955E+03  0.21429898155E+03  0.00000000000E+00 0. -1.
         22    1    3    3    0    0  0.10313996397E+03  0.85498697076E+02  0.77938866582E+02  0.15499143942E+03  0.00000000000E+00 0. -1.
</event>
<event>
 7    1  0.2895750E-005  0.2350973E+03  0.7818608E-02  0.1280134E+00
          2   -1    0    0  502    0  0.00000000000E+00  0.00000000000E+00  0.80145741341E+03  0.80145741341E+03  0.00000000000E+00 0. -1.
          1   -1    0    0  501    0 -0.00000000000E+00 -0.00000000000E+00 -0.81433113716E+03  0.81433113716E+03  0.00000000000E+00 0. -1.
         25    2    1    2    0    0  0.21709439406E+03  0.10135544653E+03 -0.53977386591E+03  0.60364197446E+03  0.12499961818E+03 0.  0.
          2    1    1    2  501    0 -0.18781024151E+03 -0.13229592993E+03 -0.18746656377E+03  0.29651072902E+03  0.00000000000E+00 0. -1.
          1    1    1    2  502    0 -0.29284152550E+02  0.30940483400E+02  0.71436670593E+03  0.71563584709E+03  0.00000000000E+00 0. -1.
         22    1    3    3    0    0  0.92150649618E+02 -0.13722303985E+02 -0.26171759513E+03  0.27780594567E+03  0.00000000000E+00 0. -1.
         22    1    3    3    0    0  0.12494374444E+03  0.11507775051E+03 -0.27805627078E+03  0.32583602879E+03  0.00000000000E+00 0. -1.
</event>
<event>
 7    1  0.2895750E-005  0.3284472E+03  0.7818608E-02  0.1253930E+00
          2   -1    0    0  502    0  0.00000000000E+00  0.00000000000E+00  0.43580661458E+03  0.43580661458E+03  0.00000000000E+00 0. -1.
          1   -1    0    0  501    0 -0.00000000000E+00 -0.00000000000E+00 -0.12533116458E+04  0.12533116458E+04  0.00000000000E+00 0. -1.
         25    2    1    2    0    0  0.35953257365E+03 -0.65424832622E+02  0.30236576633E+03  0.49050369577E+03  0.12499895473E+03 0.  0.
          2    1    1    2  501    0 -0.32157044476E+03  0.55121494414E+02 -0.11115047774E+04  0.11583992404E+04  0.00000000000E+00 0. -1.
          1    1    1    2  502    0 -0.37962128891E+02  0.10303338209E+02 -0.83660202007E+01  0.40215324221E+02  0.00000000000E+00 0. -1.
         22    1    3    3    0    0  0.36003077498E+03 -0.46191915244E+02  0.26828576122E+03  0.45136803348E+03  0.00000000000E+00 0. -1.
         22    1    3    3    0    0 -0.49820133686E+00 -0.19232917378E+02  0.34080005102E+02  0.39135662294E+02  0.00000000000E+00 0. -1.
</event>
<event>
 7    1  0.2895750E-005  0.2009050E+03  0.7818608E-02  0.1263519E+00
          2   -1    0    0  502    0  0.00000000000E+00  0.00000000000E+00  0.10212453339E+04  0.10212453339E+04  0.00000000000E+00 0. -1.
          1   -1    0    0  501    0 -0.00000000000E+00 -0.00000000000E+00 -0.97370424201E+02  0.97370424201E+02  0.00000000000E+00 0. -1.
         25    2    1    2    0    0 -0.47525298540E+02 -0.16918172371E+03  0.18481309232E+03  0.28401002165E+03  0.12499881466E+03 0.  0.
          2    1    1    2  501    0 -0.57214755124E+02 -0.12254347556E+02 -0.76972874003E+01  0.59016484742E+02  0.00000000000E+00 0. -1.
          1    1    1    2  502    0  0.10474005366E+03  0.18143607126E+03  0.74675910480E+03  0.77558925173E+03  0.00000000000E+00 0. -1.
         22    1    3    3    0    0  0.20524774536E+02  0.71260919487E+01  0.41456111243E+02  0.46804451878E+02  0.00000000000E+00 0.  1.
         22    1    3    3    0    0 -0.68050073075E+02 -0.17630781566E+03  0.14335698108E+03  0.23720556977E+03  0.00000000000E+00 0.  1.
</event>
<event>
 7    1  0.2895750E-005  0.9493339E+02  0.7818608E-02  0.1422708E+00
          2   -1    0    0  502    0  0.00000000000E+00  0.00000000000E+00  0.27284255763E+03  0.27284255763E+03  0.00000000000E+00 0. -1.
          1   -1    0    0  501    0 -0.00000000000E+00 -0.00000000000E+00 -0.11676256483E+04  0.11676256483E+04  0.00000000000E+00 0. -1.
         25    2    1    2    0    0 -0.91883851572E+02  0.39925191765E+02 -0.53983648310E+03  0.56310318293E+03  0.12500041210E+03 0.  0.
          2    1    1    2  501    0  0.20952058939E+02  0.23162275212E+02 -0.60711647468E+03  0.60791931504E+03  0.00000000000E+00 0. -1.
          1    1    1    2  502    0  0.70931792633E+02 -0.63087466977E+02  0.25216986707E+03  0.26944570799E+03  0.00000000000E+00 0. -1.
         22    1    3    3    0    0 -0.11678231498E+02  0.68032143224E+02 -0.16701196580E+03  0.18071455482E+03  0.00000000000E+00 0. -1.
         22    1    3    3    0    0 -0.80205620074E+02 -0.28106951460E+02 -0.37282451730E+03  0.38238862812E+03  0.00000000000E+00 0. -1.
</event>
<event>
 7    1  0.2895750E-005  0.3803367E+03  0.7818608E-02  0.1072746E+00
          2   -1    0    0  502    0  0.00000000000E+00  0.00000000000E+00  0.66144550455E+03  0.66144550455E+03  0.00000000000E+00 0. -1.
          1   -1    0    0  501    0 -0.00000000000E+00 -0.00000000000E+00 -0.14464353577E+04  0.14464353577E+04  0.00000000000E+00 0. -1.
         25    2    1    2    0    0  0.29969136016E+03 -0.33510220341E+03 -0.10983366476E+04  0.11933466761E+04  0.12499799942E+03 0.  0.
          2    1    1    2  501    0  0.76270469656E+02  0.26950750187E+03 -0.14719432303E+03  0.31641372733E+03  0.00000000000E+00 0. -1.
          1    1    1    2  502    0 -0.37596182981E+03  0.65594701541E+02  0.46054111748E+03  0.59812045880E+03  0.00000000000E+00 0. -1.
         22    1    3    3    0    0  0.12827743416E+03 -0.15768124258E+03 -0.34260052152E+03  0.39836364257E+03  0.00000000000E+00 0. -1.
         22    1    3    3    0    0  0.17141392600E+03 -0.17742096084E+03 -0.75573612611E+03  0.79498303358E+03  0.00000000000E+00 0. -1.
</event>
<event>
 7    1  0.2895750E-005  0.7259658E+02  0.7818608E-02  0.1395286E+00
          2   -1    0    0  502    0  0.00000000000E+00  0.00000000000E+00  0.52461527767E+03  0.52461527767E+03  0.00000000000E+00 0. -1.
          1   -1    0    0  501    0 -0.00000000000E+00 -0.00000000000E+00 -0.69567021068E+02  0.69567021068E+02  0.00000000000E+00 0. -1.
         25    2    1    2    0    0 -0.89770216083E+02  0.45579313478E+02  0.26741797025E+03  0.31188713872E+03  0.12500020390E+03 0.  0.
          2    1    1    2  501    0  0.49746585008E+02  0.92768246778E+01 -0.26875262757E+02  0.57298009951E+02  0.00000000000E+00 0. -1.
          1    1    1    2  502    0  0.40023631075E+02 -0.54856138156E+02  0.21450554911E+03  0.22499715006E+03  0.00000000000E+00 0. -1.
         22    1    3    3    0    0 -0.98230321595E+02  0.32461517798E+02  0.27551819738E+03  0.29430124584E+03  0.00000000000E+00 0.  1.
         22    1    3    3    0    0  0.84601055128E+01  0.13117795680E+02 -0.81002271301E+01  0.17585892879E+02  0.00000000000E+00 0.  1.
</event>
<event>
 7    1  0.2895750E-005  0.1396705E+03  0.7818608E-02  0.1248766E+00
          2   -1    0    0  502    0  0.00000000000E+00  0.00000000000E+00  0.54955331796E+03  0.54955331796E+03  0.00000000000E+00 0. -1.
          1   -1    0    0  501    0 -0.00000000000E+00 -0.00000000000E+00 -0.12835713762E+04  0.12835713762E+04  0.00000000000E+00 0. -1.
         25    2    1    2    0    0  0.14804279966E+03 -0.12719789103E+03 -0.34395219536E+03  0.41476373271E+03  0.12501946754E+03 0.  0.
          2    1    1    2  501    0 -0.97365038526E+02 -0.20608384931E+01 -0.89214220058E+03  0.89744186655E+03  0.00000000000E+00 0. -1.
          1    1    1    2  502    0 -0.50677761134E+02  0.12925872953E+03  0.50207633766E+03  0.52091909494E+03  0.00000000000E+00 0. -1.
         22    1    3    3    0    0  0.43774296976E+02 -0.94283742286E+02 -0.87135605932E+02  0.13564006398E+03  0.00000000000E+00 0.  1.
         22    1    3    3    0    0  0.10426850268E+03 -0.32914148748E+02 -0.25681658943E+03  0.27912366873E+03  0.00000000000E+00 0.  1.
</event>
<event>
 7    1  0.2895750E-005  0.9408085E+02  0.7818608E-02  0.1333700E+00
          2   -1    0    0  502    0  0.00000000000E+00  0.00000000000E+00  0.47858941846E+03  0.47858941846E+03  0.00000000000E+00 0. -1.
          1   -1    0    0  501    0 -0.00000000000E+00 -0.00000000000E+00 -0.49561545879E+03  0.49561545879E+03  0.00000000000E+00 0. -1.
         25    2    1    2    0    0 -0.15411051155E+03  0.32293102953E+02 -0.10946330939E+03  0.22890236044E+03  0.12498472005E+03 0.  0.
          2    1    1    2  501    0  0.64135546449E+02 -0.12312702558E+02 -0.31800382224E+03  0.32464041942E+03  0.00000000000E+00 0. -1.
          1    1    1    2  502    0  0.89974965102E+02 -0.19980400395E+02  0.41044109130E+03  0.42066209738E+03  0.00000000000E+00 0. -1.
         22    1    3    3    0    0 -0.30762050942E+01  0.13516481268E+02  0.23184695907E+02  0.27012745657E+02  0.00000000000E+00 0.  1.
         22    1    3    3    0    0 -0.15103430646E+03  0.18776621685E+02 -0.13264800530E+03  0.20188961479E+03  0.00000000000E+00 0.  1.
</event>
<event>
 7    1  0.2895750E-005  0.1339225E+03  0.7818608E-02  0.1223156E+00
          2   -1    0    0  502    0  0.00000000000E+00  0.00000000000E+00  0.77181235266E+03  0.77181235266E+03  0.00000000000E+00 0. -1.
          1   -1    0    0  501    0 -0.00000000000E+00 -0.00000000000E+00 -0.22245556442E+03  0.22245556442E+03  0.00000000000E+00 0. -1.
         25    2    1    2    0    0 -0.13671727813E+03  0.60533444861E+02  0.18947808949E+03  0.27181466303E+03  0.12500141022E+03 0.  0.
          2    1    1    2  501    0  0.11971902453E+03  0.70333340009E+02 -0.14491305313E+03  0.20069682738E+03  0.00000000000E+00 0. -1.
          1    1    1    2  502    0  0.16998253597E+02 -0.13086678487E+03  0.50479175188E+03  0.52175642667E+03  0.00000000000E+00 0. -1.
         22    1    3    3    0    0 -0.82498810649E+02  0.34574185836E+02  0.19182528517E+03  0.21165624988E+03  0.00000000000E+00 0.  1.
         22    1    3    3    0    0 -0.54218467482E+02  0.25959259025E+02 -0.23471956785E+01  0.60158413150E+02  0.00000000000E+00 0.  1.
</event>
<event>
 7    1  0.2895750E-005  0.1782442E+03  0.7818608E-02  0.1213402E+00
          2   -1    0    0  502    0  0.00000000000E+00  0.00000000000E+00  0.11257738601E+04  0.11257738601E+04  0.00000000000E+00 0. -1.
          1   -1    0    0  501    0 -0.00000000000E+00 -0.00000000000E+00 -0.12892161788E+03  0.12892161788E+03  0.00000000000E+00 0. -1.
         25    2    1    2    0    0 -0.12257254558E+03 -0.12343745007E+03  0.21279645745E+03  0.30194193357E+03  0.12500306370E+03 0.  0.
          2    1    1    2  501    0 -0.60216256757E+02  0.91906465551E+02 -0.33144500094E+02  0.11476651896E+03  0.00000000000E+00 0. -1.
          1    1    1    2  502    0  0.18278880234E+03  0.31530984520E+02  0.81720028491E+03  0.83798702550E+03  0.00000000000E+00 0. -1.
         22    1    3    3    0    0 -0.13240117615E+03 -0.63606309645E+02  0.18217206290E+03  0.23401387688E+03  0.00000000000E+00 0.  1.
         22    1    3    3    0    0  0.98286305677E+01 -0.59831140426E+02  0.30624394549E+02  0.67928056685E+02  0.00000000000E+00 0.  1.
</event>
<event>
 7    1  0.2895750E-005  0.1782795E+03  0.7818608E-02  0.1289164E+00
          2   -1    0    0  502    0  0.00000000000E+00  0.00000000000E+00  0.25264958792E+03  0.25264958792E+03  0.00000000000E+00 0. -1.
          1   -1    0    0  501    0 -0.00000000000E+00 -0.00000000000E+00 -0.20561767418E+04  0.20561767418E+04  0.00000000000E+00 0. -1.
         25    2    1    2    0    0 -0.18996018918E+03  0.34469153951E+02 -0.60085525334E+03  0.64336991564E+03  0.12499926737E+03 0.  0.
          2    1    1    2  501    0  0.29554731375E+02  0.42279745424E+02 -0.13993555032E+04  0.14003059963E+04  0.00000000000E+00 0. -1.
          1    1    1    2  502    0  0.16040545780E+03 -0.76748899375E+02  0.19668360269E+03  0.26515041772E+03  0.00000000000E+00 0. -1.
         22    1    3    3    0    0 -0.20234392613E+03  0.26390081281E+02 -0.47945517845E+03  0.52107270988E+03  0.00000000000E+00 0.  1.
         22    1    3    3    0    0  0.12383736954E+02  0.80790726701E+01 -0.12140007488E+03  0.12229720576E+03  0.00000000000E+00 0.  1.
</event>
<event>
 7    1  0.2895750E-005  0.2452708E+03  0.7818608E-02  0.1155439E+00
          2   -1    0    0  502    0  0.00000000000E+00  0.00000000000E+00  0.31966612134E+03  0.31966612134E+03  0.00000000000E+00 0. -1.
          1   -1    0    0  501    0 -0.00000000000E+00 -0.00000000000E+00 -0.38060181806E+03  0.38060181806E+03  0.00000000000E+00 0. -1.
         25    2    1    2    0    0  0.30202090404E+03  0.10969582264E+03 -0.65463978453E+02  0.35094184732E+03  0.12499939098E+03 0.  0.
          2    1    1    2  501    0 -0.18777965030E+03 -0.87007809506E+01  0.41316549398E+02  0.19246806984E+03  0.00000000000E+00 0. -1.
          1    1    1    2  502    0 -0.11424125374E+03 -0.10099504169E+03 -0.36788267663E+02  0.15685802224E+03  0.00000000000E+00 0. -1.
         22    1    3    3    0    0  0.11892103913E+02 -0.22294464219E+02 -0.11095666500E+02  0.27596722366E+02  0.00000000000E+00 0. -1.
         22    1    3    3    0    0  0.29012880013E+03  0.13199028686E+03 -0.54368311954E+02  0.32334512495E+03  0.00000000000E+00 0. -1.
</event>
<event>
 7    1  0.2895750E-005  0.1271295E+03  0.7818608E-02  0.1268824E+00
          2   -1    0    0  502    0  0.00000000000E+00  0.00000000000E+00  0.57981974884E+03  0.57981974884E+03  0.00000000000E+00 0. -1.
          1   -1    0    0  501    0 -0.00000000000E+00 -0.00000000000E+00 -0.34574496646E+03  0.34574496646E+03  0.00000000000E+00 0. -1.
         25    2    1    2    0    0  0.49167455787E+02 -0.71408456241E+02  0.41199730830E+03  0.43918228103E+03  0.12499075001E+03 0.  0.
          2    1    1    2  501    0 -0.11552988301E+03 -0.53054309799E+02 -0.28316699015E+03  0.31039564747E+03  0.00000000000E+00 0. -1.
          1    1    1    2  502    0  0.66362427221E+02  0.12446276604E+03  0.10524446423E+03  0.17598678680E+03  0.00000000000E+00 0. -1.
         22    1    3    3    0    0  0.71379593309E+02 -0.47154772378E+02  0.39080207881E+03  0.40005610069E+03  0.00000000000E+00 0.  1.
         22    1    3    3    0    0 -0.22212137523E+02 -0.24253683863E+02  0.21195229491E+02  0.39126180333E+02  0.00000000000E+00 0.  1.
</event>
<event>
 7    1  0.2895750E-005  0.2682424E+03  0.7818608E-02  0.1178422E+00
          2   -1    0    0  502    0  0.00000000000E+00  0.00000000000E+00  0.24116333169E+04  0.24116333169E+04  0.00000000000E+00 0. -1.
          1   -1    0    0  501    0 -0.00000000000E+00 -0.00000000000E+00 -0.18400924697E+03  0.18400924697E+03  0.00000000000E+00 0. -1.
         25    2    1    2    0    0  0.32758556954E+03 -0.81009811043E+02  0.74616622669E+03  0.82840984282E+03  0.12499573981E+03 0.  0.
          2    1    1    2  501    0 -0.25907455278E+03 -0.12361051392E+01 -0.21962281858E+02  0.26000671853E+03  0.00000000000E+00 0. -1.
          1    1    1    2  502    0 -0.68511016760E+02  0.82245916182E+02  0.15034201251E+04  0.15072260025E+04  0.00000000000E+00 0. -1.
         22    1    3    3    0    0  0.19959320338E+03 -0.34265612662E+02  0.30043308686E+03  0.36231425410E+03  0.00000000000E+00 0.  1.
         22    1    3    3    0    0  0.12799236617E+03 -0.46744198381E+02  0.44573313983E+03  0.46609558872E+03  0.00000000000E+00 0.  1.
</event>
<event>
 7    1  0.2895750E-005  0.1139798E+03  0.7818608E-02  0.1322960E+00
          2   -1    0    0  502    0  0.00000000000E+00  0.00000000000E+00  0.14972221299E+04  0.14972221299E+04  0.00000000000E+00 0. -1.
          1   -1    0    0  501    0 -0.00000000000E+00 -0.00000000000E+00 -0.61805514593E+03  0.61805514593E+03  0.00000000000E+00 0. -1.
         25    2    1    2    0    0 -0.35476336605E+02 -0.72205639100E+02  0.15120891585E+03  0.21204201961E+03  0.12500182828E+03 0.  0.
          2    1    1    2  501    0 -0.59211078027E+02  0.24238376832E+01 -0.58350575312E+03  0.58650728101E+03  0.00000000000E+00 0. -1.
          1    1    1    2  502    0  0.94687414632E+02  0.69781801417E+02  0.13114638213E+04  0.13167279752E+04  0.00000000000E+00 0. -1.
         22    1    3    3    0    0 -0.59523998398E+01  0.26473461752E+02  0.85893457638E+02  0.90077529418E+02  0.00000000000E+00 0. -1.
         22    1    3    3    0    0 -0.29523936766E+02 -0.98679100852E+02  0.65315458211E+02  0.12196449019E+03  0.00000000000E+00 0. -1.
</event>
<event>
 7    1  0.2895750E-005  0.9876315E+02  0.7818608E-02  0.1355038E+00
          2   -1    0    0  502    0  0.00000000000E+00  0.00000000000E+00  0.16785857895E+03  0.16785857895E+03  0.00000000000E+00 0. -1.
          1   -1    0    0  501    0 -0.00000000000E+00 -0.00000000000E+00 -0.26861104229E+03  0.26861104229E+03  0.00000000000E+00 0. -1.
         25    2    1    2    0    0  0.46374710153E+02  0.60673676663E+02 -0.20800663169E+02  0.14794897416E+03  0.12499729031E+03 0.  0.
          2    1    1    2  501    0  0.50521970165E+02 -0.11319430229E+02 -0.15032676240E+03  0.15899287552E+03  0.00000000000E+00 0. -1.
          1    1    1    2  502    0 -0.96896680318E+02 -0.49354246434E+02  0.70374962226E+02  0.12952777156E+03  0.00000000000E+00 0. -1.
         22    1    3    3    0    0  0.48403494190E+02  0.95536893662E+02 -0.31129465905E+02  0.11153134065E+03  0.00000000000E+00 0. -1.
         22    1    3    3    0    0 -0.20287840370E+01 -0.34863216999E+02  0.10328802737E+02  0.36417633506E+02  0.00000000000E+00 0. -1.
</event>
<event>
 7    1  0.2895750E-005  0.2213610E+03  0.7818608E-02  0.1181187E+00
          2   -1    0    0  502    0  0.00000000000E+00  0.00000000000E+00  0.95543884029E+02  0.95543884029E+02  0.00000000000E+00 0. -1.
          1   -1    0    0  501    0 -0.00000000000E+00 -0.00000000000E+00 -0.13353534769E+04  0.13353534769E+04  0.00000000000E+00 0. -1.
         25    2    1    2    0    0 -0.77619062999E+02  0.31168844499E+03 -0.46024201577E+03  0.57499739003E+03  0.12499951910E+03 0.  0.
          2    1    1    2  501    0  0.53210239431E+02 -0.18833711816E+03 -0.63411715050E+03  0.66363149429E+03  0.00000000000E+00 0. -1.
          1    1    1    2  502    0  0.24408823568E+02 -0.12335132683E+03 -0.14545042659E+03  0.19226847660E+03  0.00000000000E+00 0. -1.
         22    1    3    3    0    0 -0.65381402409E+02  0.11596695853E+03 -0.27361411628E+03  0.30428234895E+03  0.00000000000E+00 0.  1.
         22    1    3    3    0    0 -0.12237660590E+02  0.19572148646E+03 -0.18662789949E+03  0.27071504108E+03  0.00000000000E+00 0.  1.
</event>
<event>
 7    1  0.2895750E-005  0.8923436E+02  0.7818608E-02  0.1373710E+00
          2   -1    0    0  502    0  0.00000000000E+00  0.00000000000E+00  0.93739119305E+03  0.93739119305E+03  0.00000000000E+00 0. -1.
          1   -1    0    0  501    0 -0.00000000000E+00 -0.00000000000E+00 -0.93596339721E+03  0.93596339721E+03  0.00000000000E+00 0. -1.
         25    2    1    2    0    0 -0.29395120971E+02 -0.11813348218E+03 -0.52488833347E+03  0.55313003622E+03  0.12500192641E+03 0.  0.
          2    1    1    2  501    0 -0.22205174193E+01  0.80655410672E+02 -0.39219343835E+03  0.40040719156E+03  0.00000000000E+00 0. -1.
          1    1    1    2  502    0  0.31615638391E+02  0.37478071511E+02  0.91850956766E+03  0.91981736248E+03  0.00000000000E+00 0. -1.
         22    1    3    3    0    0 -0.71185026837E+02 -0.32973335760E+02 -0.26980075686E+03  0.28097508310E+03  0.00000000000E+00 0. -1.
         22    1    3    3    0    0  0.41789905866E+02 -0.85160146423E+02 -0.25508757661E+03  0.27215495313E+03  0.00000000000E+00 0. -1.
</event>
<event>
 7    1  0.2895750E-005  0.3852334E+03  0.7818608E-02  0.1086615E+00
          2   -1    0    0  502    0  0.00000000000E+00  0.00000000000E+00  0.18687403798E+04  0.18687403798E+04  0.00000000000E+00 0. -1.
          1   -1    0    0  501    0 -0.00000000000E+00 -0.00000000000E+00 -0.40366744844E+03  0.40366744844E+03  0.00000000000E+00 0. -1.
         25    2    1    2    0    0  0.21622839475E+03 -0.38747726661E+03  0.52514370224E+02  0.46398188088E+03  0.12501230287E+03 0.  0.
          2    1    1    2  501    0 -0.32038962356E+03  0.18310146038E+03 -0.83561238000E+01  0.36911445444E+03  0.00000000000E+00 0. -1.
          1    1    1    2  502    0  0.10416122881E+03  0.20437580624E+03  0.14209146849E+04  0.14393114929E+04  0.00000000000E+00 0. -1.
         22    1    3    3    0    0 -0.10893743841E+02 -0.71542897349E+01  0.14315253188E+02  0.19359338582E+02  0.00000000000E+00 0. -1.
         22    1    3    3    0    0  0.22712213859E+03 -0.38032297688E+03  0.38199117037E+02  0.44462254230E+03  0.00000000000E+00 0. -1.
</event>
<event>
 7    1  0.2895750E-005  0.1036774E+04  0.7818608E-02  0.9979093E-01
          2   -1    0    0  502    0  0.00000000000E+00  0.00000000000E+00  0.26170587040E+04  0.26170587040E+04  0.00000000000E+00 0. -1.
          1   -1    0    0  501    0 -0.00000000000E+00 -0.00000000000E+00 -0.13061915238E+04  0.13061915238E+04  0.00000000000E+00 0. -1.
         25    2    1    2    0    0 -0.66320334588E+03  0.73356528346E+03  0.20335218479E+03  0.10173170990E+04  0.12500106338E+03 0.  0.
          2    1    1    2  501    0  0.46601737203E+03 -0.97112828919E+03 -0.55726431781E+03  0.12127678529E+04  0.00000000000E+00 0. -1.
          1    1    1    2  502    0  0.19718597385E+03  0.23756300573E+03  0.16647793131E+04  0.16931652759E+04  0.00000000000E+00 0. -1.
         22    1    3    3    0    0 -0.26582552459E+03  0.21466956467E+03  0.43169466215E+02  0.34439778503E+03  0.00000000000E+00 0. -1.
         22    1    3    3    0    0 -0.39737782128E+03  0.51889571879E+03  0.16018271858E+03  0.67291931400E+03  0.00000000000E+00 0. -1.
</event>
<event>
 7    1  0.2895750E-005  0.9641167E+02  0.7818608E-02  0.1299144E+00
          2   -1    0    0  502    0  0.00000000000E+00  0.00000000000E+00  0.51271763402E+03  0.51271763402E+03  0.00000000000E+00 0. -1.
          1   -1    0    0  501    0 -0.00000000000E+00 -0.00000000000E+00 -0.22135713625E+04  0.22135713625E+04  0.00000000000E+00 0. -1.
         25    2    1    2    0    0  0.63223423119E+02  0.40107082626E+02 -0.12412788542E+02  0.14623714857E+03  0.12500178796E+03 0.  0.
          2    1    1    2  501    0 -0.62718000095E+02  0.60195582496E+02 -0.21277056064E+04  0.21294807356E+04  0.00000000000E+00 0. -1.
          1    1    1    2  502    0 -0.50542302390E+00 -0.10030266512E+03  0.43926466648E+03  0.45057111237E+03  0.00000000000E+00 0. -1.
         22    1    3    3    0    0 -0.32768734684E+02 -0.13809512520E+02 -0.13537957962E+01  0.35585465739E+02  0.00000000000E+00 0. -1.
         22    1    3    3    0    0  0.95992157803E+02  0.53916595146E+02 -0.11058992746E+02  0.11065168283E+03  0.00000000000E+00 0. -1.
</event>
<event>
 7    1  0.2895750E-005  0.3210305E+03  0.7818608E-02  0.1155917E+00
          2   -1    0    0  502    0  0.00000000000E+00  0.00000000000E+00  0.16745382458E+04  0.16745382458E+04  0.00000000000E+00 0. -1.
          1   -1    0    0  501    0 -0.00000000000E+00 -0.00000000000E+00 -0.36712347330E+03  0.36712347330E+03  0.00000000000E+00 0. -1.
         25    2    1    2    0    0  0.14408720767E+03  0.31819732229E+03  0.97679555401E+03  0.10448758344E+04  0.12500118231E+03 0.  0.
          2    1    1    2  501    0  0.61278825126E+02 -0.98312837689E+02 -0.28715364440E+03  0.30964128270E+03  0.00000000000E+00 0. -1.
          1    1    1    2  502    0 -0.20536603279E+03 -0.21988448460E+03  0.61777286293E+03  0.68714460208E+03  0.00000000000E+00 0. -1.
         22    1    3    3    0    0  0.11535192292E+03  0.25617120920E+03  0.89614893444E+03  0.93915529453E+03  0.00000000000E+00 0.  1.
         22    1    3    3    0    0  0.28735284747E+02  0.62026113093E+02  0.80646619568E+02  0.10572053983E+03  0.00000000000E+00 0.  1.
</event>
<event>
 7    1  0.2895750E-005  0.5588979E+03  0.7818608E-02  0.1055839E+00
          2   -1    0    0  502    0  0.00000000000E+00  0.00000000000E+00  0.27476517996E+04  0.27476517996E+04  0.00000000000E+00 0. -1.
          1   -1    0    0  501    0 -0.00000000000E+00 -0.00000000000E+00 -0.94463155070E+03  0.94463155070E+03  0.00000000000E+00 0. -1.
         25    2    1    2    0    0 -0.30518393599E+03 -0.33786421432E+03 -0.36789382755E+03  0.59854942002E+03  0.12500431095E+03 0.  0.
          2    1    1    2  501    0  0.13052163495E+03 -0.20261254396E+03 -0.39662886047E+03  0.46411441813E+03  0.00000000000E+00 0. -1.
          1    1    1    2  502    0  0.17466230104E+03  0.54047675828E+03  0.25675429369E+04  0.26296195121E+04  0.00000000000E+00 0. -1.
         22    1    3    3    0    0 -0.19309584009E+03 -0.21876597090E+03 -0.30827331556E+03  0.42447260285E+03  0.00000000000E+00 0.  1.
         22    1    3    3    0    0 -0.11208809589E+03 -0.11909824342E+03 -0.59620511994E+02  0.17407681717E+03  0.00000000000E+00 0.  1.
</event>
<event>
 7    1  0.2895750E-005  0.9679385E+02  0.7818608E-02  0.1356590E+00
          2   -1    0    0  502    0  0.00000000000E+00  0.00000000000E+00  0.46352688108E+03  0.46352688108E+03  0.00000000000E+00 0. -1.
          1   -1    0    0  501    0 -0.00000000000E+00 -0.00000000000E+00 -0.57535313738E+03  0.57535313738E+03  0.00000000000E+00 0. -1.
         25    2    1    2    0    0 -0.12979893247E+02 -0.79259881834E+02 -0.47262338672E+03  0.49542935166E+03  0.12500708104E+03 0.  0.
          2    1    1    2  501    0 -0.51691769320E+02  0.68160388243E+01 -0.78118627250E+02  0.93920271103E+02  0.00000000000E+00 0. -1.
          1    1    1    2  502    0  0.64671662567E+02  0.72443843010E+02  0.43891575767E+03  0.44953039571E+03  0.00000000000E+00 0. -1.
         22    1    3    3    0    0 -0.63504125263E+02 -0.41662629351E+02 -0.16809837426E+03  0.18446032647E+03  0.00000000000E+00 0.  1.
         22    1    3    3    0    0  0.50524232016E+02 -0.37597252483E+02 -0.30452501246E+03  0.31096902519E+03  0.00000000000E+00 0.  1.
</event>
<event>
 7    1  0.2895750E-005  0.4244556E+03  0.7818608E-02  0.1173449E+00
          2   -1    0    0  502    0  0.00000000000E+00  0.00000000000E+00  0.83865349846E+03  0.83865349846E+03  0.00000000000E+00 0. -1.
          1   -1    0    0  501    0 -0.00000000000E+00 -0.00000000000E+00 -0.30471943763E+03  0.30471943763E+03  0.00000000000E+00 0. -1.
         25    2    1    2    0    0  0.84661266408E+02 -0.43311942593E+03  0.20476635981E+03  0.50230918362E+03  0.12500114679E+03 0.  0.
          2    1    1    2  501    0  0.57717179060E+02  0.42311760361E+02 -0.42527040887E+02  0.83247264400E+02  0.00000000000E+00 0. -1.
          1    1    1    2  502    0 -0.14237844547E+03  0.39080766557E+03  0.37169474191E+03  0.55781648807E+03  0.00000000000E+00 0. -1.
         22    1    3    3    0    0 -0.16258661627E+02 -0.24193966797E+03  0.10996378208E+03  0.26625397722E+03  0.00000000000E+00 0. -1.
         22    1    3    3    0    0  0.10091992803E+03 -0.19117975796E+03  0.94802577726E+02  0.23605520640E+03  0.00000000000E+00 0. -1.
</event>
<event>
 7    1  0.2895750E-005  0.1295890E+03  0.7818608E-02  0.1229697E+00
          2   -1    0    0  502    0  0.00000000000E+00  0.00000000000E+00  0.20140921975E+03  0.20140921975E+03  0.00000000000E+00 0. -1.
          1   -1    0    0  501    0 -0.00000000000E+00 -0.00000000000E+00 -0.10613558646E+04  0.10613558646E+04  0.00000000000E+00 0. -1.
         25    2    1    2    0    0  0.73063514926E+02 -0.68506397270E+02 -0.63432008629E+03  0.65423155705E+03  0.12500221873E+03 0.  0.
          2    1    1    2  501    0 -0.17353479920E+03  0.14687796583E+03 -0.35845196102E+03  0.42447057818E+03  0.00000000000E+00 0. -1.
          1    1    1    2  502    0  0.10047128428E+03 -0.78371568563E+02  0.13282540242E+03  0.18406294915E+03  0.00000000000E+00 0. -1.
         22    1    3    3    0    0  0.89724292156E+02 -0.21602473812E+02 -0.24612901278E+03  0.26286233357E+03  0.00000000000E+00 0.  1.
         22    1    3    3    0    0 -0.16660777230E+02 -0.46903923458E+02 -0.38819107351E+03  0.39136922348E+03  0.00000000000E+00 0.  1.
</event>
<event>
 7    1  0.2895750E-005  0.7564306E+02  0.7818608E-02  0.1435857E+00
          2   -1    0    0  502    0  0.00000000000E+00  0.00000000000E+00  0.74446602821E+03  0.74446602821E+03  0.00000000000E+00 0. -1.
          1   -1    0    0  501    0 -0.00000000000E+00 -0.00000000000E+00 -0.20558017425E+04  0.20558017425E+04  0.00000000000E+00 0. -1.
         25    2    1    2    0    0  0.51057179476E+01  0.90276249274E+02  0.23496907747E+03  0.28108979726E+03  0.12500054888E+03 0.  0.
          2    1    1    2  501    0  0.27005176790E+02 -0.23004548440E+02 -0.20297297138E+04  0.20300397041E+04  0.00000000000E+00 0. -1.
          1    1    1    2  502    0 -0.32110894738E+02 -0.67271700833E+02  0.48342492208E+03  0.48913826939E+03  0.00000000000E+00 0. -1.
         22    1    3    3    0    0 -0.41379181382E+02  0.37524574081E+02  0.27961356637E+02  0.62467333678E+02  0.00000000000E+00 0. -1.
         22    1    3    3    0    0  0.46484899330E+02  0.52751675192E+02  0.20700772083E+03  0.21862246359E+03  0.00000000000E+00 0. -1.
</event>
<event>
 7    1  0.2895750E-005  0.8770293E+02  0.7818608E-02  0.1389342E+00
          2   -1    0    0  502    0  0.00000000000E+00  0.00000000000E+00  0.16498854559E+04  0.16498854559E+04  0.00000000000E+00 0. -1.
          1   -1    0    0  501    0 -0.00000000000E+00 -0.00000000000E+00 -0.42624852741E+02  0.42624852741E+02  0.00000000000E+00 0. -1.
         25    2    1    2    0    0  0.19614716939E+02 -0.12792552071E+03  0.21580688600E+03  0.28097031833E+03  0.12498812652E+03 0.  0.
          2    1    1    2  501    0 -0.11739491039E+02  0.42332004291E+02  0.46970938488E+02  0.64312388384E+02  0.00000000000E+00 0. -1.
          1    1    1    2  502    0 -0.78752259002E+01  0.85593516418E+02  0.13444827786E+04  0.13472276019E+04  0.00000000000E+00 0. -1.
         22    1    3    3    0    0  0.71613303699E+02 -0.92041149957E+02  0.13496073808E+03  0.17836602640E+03  0.00000000000E+00 0. -1.
         22    1    3    3    0    0 -0.51998586759E+02 -0.35884370752E+02  0.80846147921E+02  0.10260429193E+03  0.00000000000E+00 0. -1.
</event>
<event>
 7    1  0.2895750E-005  0.8000474E+03  0.7818608E-02  0.1173010E+00
          2   -1    0    0  502    0  0.00000000000E+00  0.00000000000E+00  0.10961672128E+04  0.10961672128E+04  0.00000000000E+00 0. -1.
          1   -1    0    0  501    0 -0.00000000000E+00 -0.00000000000E+00 -0.19806273331E+04  0.19806273331E+04  0.00000000000E+00 0. -1.
         25    2    1    2    0    0 -0.79466586503E+03  0.20326481225E+03 -0.79039632279E+03  0.11459318180E+04  0.12499185380E+03 0.  0.
          2    1    1    2  501    0  0.76024639642E+03 -0.18679304378E+03 -0.86058722631E+03  0.11633901317E+04  0.00000000000E+00 0. -1.
          1    1    1    2  502    0  0.34419468605E+02 -0.16471768468E+02  0.76652342883E+03  0.76747259620E+03  0.00000000000E+00 0. -1.
         22    1    3    3    0    0 -0.71489828654E+03  0.21773535527E+03 -0.69271017702E+03  0.10189875536E+04  0.00000000000E+00 0.  1.
         22    1    3    3    0    0 -0.79767578486E+02 -0.14470543026E+02 -0.97686145772E+02  0.12694426442E+03  0.00000000000E+00 0.  1.
</event>
<event>
 7    1  0.2895750E-005  0.1847215E+04  0.7818608E-02  0.1103677E+00
          2   -1    0    0  502    0  0.00000000000E+00  0.00000000000E+00  0.24131028833E+04  0.24131028833E+04  0.00000000000E+00 0. -1.
          1   -1    0    0  501    0 -0.00000000000E+00 -0.00000000000E+00 -0.23139555418E+04  0.23139555418E+04  0.00000000000E+00 0. -1.
         25    2    1    2    0    0  0.17845539494E+04 -0.47861893417E+03  0.11608763272E+04  0.21856274715E+04  0.12499885971E+03 0.  0.
          2    1    1    2  501    0 -0.11302527849E+02 -0.36554200666E+02 -0.64793645634E+03  0.64906518023E+03  0.00000000000E+00 0. -1.
          1    1    1    2  502    0 -0.17732514215E+04  0.51517313484E+03 -0.41379252943E+03  0.18923657733E+04  0.00000000000E+00 0. -1.
         22    1    3    3    0    0  0.65998960493E+03 -0.18552543114E+03  0.50201603682E+03  0.84972116923E+03  0.00000000000E+00 0. -1.
         22    1    3    3    0    0  0.11245643444E+04 -0.29309350303E+03  0.65886029038E+03  0.13359063023E+04  0.00000000000E+00 0. -1.
</event>
<event>
 7    1  0.2895750E-005  0.2976336E+03  0.7818608E-02  0.1321016E+00
          2   -1    0    0  502    0  0.00000000000E+00  0.00000000000E+00  0.21931043703E+04  0.21931043703E+04  0.00000000000E+00 0. -1.
          1   -1    0    0  501    0 -0.00000000000E+00 -0.00000000000E+00 -0.82004442990E+03  0.82004442990E+03  0.00000000000E+00 0. -1.
         25    2    1    2    0    0  0.27084450741E+03  0.15514738118E+03  0.16950882575E+00  0.33623199909E+03  0.12499788556E+03 0.  0.
          2    1    1    2  501    0 -0.54497617584E+01 -0.22438160430E+02 -0.64093376222E+03  0.64134956030E+03  0.00000000000E+00 0. -1.
          1    1    1    2  502    0 -0.26539474566E+03 -0.13270922075E+03  0.20138241938E+04  0.20355672408E+04  0.00000000000E+00 0. -1.
         22    1    3    3    0    0  0.13061034992E+03  0.82465193740E+02  0.62226185551E+02  0.16652828545E+03  0.00000000000E+00 0. -1.
         22    1    3    3    0    0  0.14023415749E+03  0.72682187437E+02 -0.62056676725E+02  0.16970371364E+03  0.00000000000E+00 0. -1.
</event>
<event>
 7    1  0.2895750E-005  0.1361573E+03  0.7818608E-02  0.1230610E+00
          2   -1    0    0  502    0  0.00000000000E+00  0.00000000000E+00  0.52177855388E+03  0.52177855388E+03  0.00000000000E+00 0. -1.
          1   -1    0    0  501    0 -0.00000000000E+00 -0.00000000000E+00 -0.14694932734E+04  0.14694932734E+04  0.00000000000E+00 0. -1.
         25    2    1    2    0    0 -0.96062650550E+00  0.93109291264E+02  0.14549039188E+03  0.21322623205E+03  0.12501083545E+03 0.  0.
          2    1    1    2  501    0  0.11881162280E+03 -0.69778428467E+02 -0.14216534396E+04  0.14283149978E+04  0.00000000000E+00 0. -1.
          1    1    1    2  502    0 -0.11785099630E+03 -0.23330862798E+02  0.32844832817E+03  0.34973059741E+03  0.00000000000E+00 0. -1.
         22    1    3    3    0    0 -0.59719887364E+02  0.44269887411E+02  0.98942876178E+02  0.12375774976E+03  0.00000000000E+00 0.  1.
         22    1    3    3    0    0  0.58759260859E+02  0.48839403853E+02  0.46547515702E+02  0.89468482291E+02  0.00000000000E+00 0.  1.
</event>
<event>
 7    1  0.2895750E-005  0.1228370E+03  0.7818608E-02  0.1335208E+00
          2   -1    0    0  502    0  0.00000000000E+00  0.00000000000E+00  0.79277114600E+03  0.79277114600E+03  0.00000000000E+00 0. -1.
          1   -1    0    0  501    0 -0.00000000000E+00 -0.00000000000E+00 -0.97740521193E+03  0.97740521193E+03  0.00000000000E+00 0. -1.
         25    2    1    2    0    0 -0.77860513500E+02  0.90360445040E+02 -0.25516087657E+03  0.30814415552E+03  0.12497390953E+03 0.  0.
          2    1    1    2  501    0  0.41237375150E+02  0.27133653565E+02 -0.68992370270E+03  0.69168740903E+03  0.00000000000E+00 0. -1.
          1    1    1    2  502    0  0.36623138350E+02 -0.11749409860E+03  0.76045051332E+03  0.77034479338E+03  0.00000000000E+00 0. -1.
         22    1    3    3    0    0  0.77609613490E+01 -0.26237323324E+02 -0.51784571047E+02  0.58568519315E+02  0.00000000000E+00 0.  1.
         22    1    3    3    0    0 -0.85621474849E+02  0.11659776836E+03 -0.20337630552E+03  0.24957563621E+03  0.00000000000E+00 0.  1.
</event>
<event>
 7    1  0.2895750E-005  0.2046650E+03  0.7818608E-02  0.1270968E+00
          2   -1    0    0  502    0  0.00000000000E+00  0.00000000000E+00  0.13901610266E+04  0.13901610266E+04  0.00000000000E+00 0. -1.
          1   -1    0    0  501    0 -0.00000000000E+00 -0.00000000000E+00 -0.29914723073E+03  0.29914723073E+03  0.00000000000E+00 0. -1.
         25    2    1    2    0    0  0.32061074955E+02  0.21910161927E+03  0.53774275204E+02  0.25990504546E+03  0.12500211153E+03 0.  0.
          2    1    1    2  501    0  0.44128657422E+02 -0.30120961735E+02 -0.18383649343E+03  0.19144311703E+03  0.00000000000E+00 0. -1.
          1    1    1    2  502    0 -0.76189732377E+02 -0.18898065753E+03  0.12210760141E+04  0.12379600948E+04  0.00000000000E+00 0. -1.
         22    1    3    3    0    0  0.34066824265E+02  0.72157393312E+01 -0.13856885952E+02  0.37478376404E+02  0.00000000000E+00 0.  1.
         22    1    3    3    0    0 -0.20057493103E+01  0.21188587994E+03  0.67631161156E+02  0.22242666906E+03  0.00000000000E+00 0.  1.
</event>
<event>
 7    1  0.2895750E-005  0.1721558E+03  0.7818608E-02  0.1208898E+00
          2   -1    0    0  502    0  0.00000000000E+00  0.00000000000E+00  0.76471143509E+02  0.76471143509E+02  0.00000000000E+00 0. -1.
          1   -1    0    0  501    0 -0.00000000000E+00 -0.00000000000E+00 -0.11511068718E+04  0.11511068718E+04  0.00000000000E+00 0. -1.
         25    2    1    2    0    0  0.18296699163E+03  0.25404399287E+02 -0.36904562824E+03  0.43121025789E+03  0.12500122901E+03 0.  0.
          2    1    1    2  501    0 -0.28146427116E+02 -0.11598915494E+03 -0.53733472844E+03  0.55043102729E+03  0.00000000000E+00 0. -1.
          1    1    1    2  502    0 -0.15482056451E+03  0.90584755649E+02 -0.16825537162E+03  0.24593673014E+03  0.00000000000E+00 0. -1.
         22    1    3    3    0    0  0.17830836693E+03 -0.18082272663E+02 -0.29188824901E+03  0.34251947713E+03  0.00000000000E+00 0. -1.
         22    1    3    3    0    0  0.46586246951E+01  0.43486671950E+02 -0.77157379232E+02  0.88690780757E+02  0.00000000000E+00 0. -1.
</event>
<event>
 7    1  0.2895750E-005  0.3229786E+03  0.7818608E-02  0.1132844E+00
          2   -1    0    0  502    0  0.00000000000E+00  0.00000000000E+00  0.93699049134E+03  0.93699049134E+03  0.00000000000E+00 0. -1.
          1   -1    0    0  501    0 -0.00000000000E+00 -0.00000000000E+00 -0.29981241935E+03  0.29981241935E+03  0.00000000000E+00 0. -1.
         25    2    1    2    0    0  0.41141238999E+03 -0.12451318503E+03  0.60969451636E+03  0.75638613613E+03  0.12501558207E+03 0.  0.
          2    1    1    2  501    0 -0.25988635863E+03  0.13308502831E+03  0.10463656103E+03  0.31016343122E+03  0.00000000000E+00 0. -1.
          1    1    1    2  502    0 -0.15152603136E+03 -0.85718432837E+01 -0.77153005405E+02  0.17025334334E+03  0.00000000000E+00 0. -1.
         22    1    3    3    0    0  0.39663632619E+03 -0.14502818894E+03  0.57256632218E+03  0.71146731769E+03  0.00000000000E+00 0. -1.
         22    1    3    3    0    0  0.14776063795E+02  0.20515003909E+02  0.37128194182E+02  0.44918818438E+02  0.00000000000E+00 0. -1.
</event>
<event>
 7    1  0.2895750E-005  0.1254066E+03  0.7818608E-02  0.1244692E+00
          2   -1    0    0  502    0  0.00000000000E+00  0.00000000000E+00  0.46457726245E+04  0.46457726245E+04  0.00000000000E+00 0. -1.
          1   -1    0    0  501    0 -0.00000000000E+00 -0.00000000000E+00 -0.10554752349E+02  0.10554752349E+02  0.00000000000E+00 0. -1.
         25    2    1    2    0    0 -0.11370976050E+03 -0.10859935245E+03  0.21092728394E+04  0.21188157572E+04  0.12499829109E+03 0.  0.
          2    1    1    2  501    0  0.11247935063E+03 -0.10772090853E+02  0.15852836725E+04  0.15893054976E+04  0.00000000000E+00 0. -1.
          1    1    1    2  502    0  0.12304098720E+01  0.11937144330E+03  0.94066136027E+03  0.94820612215E+03  0.00000000000E+00 0. -1.
         22    1    3    3    0    0 -0.49201877055E+01  0.16735297918E+02  0.51760502966E+02  0.54620766296E+02  0.00000000000E+00 0.  1.
         22    1    3    3    0    0 -0.10878957280E+03 -0.12533465036E+03  0.20575123364E+04  0.20641949909E+04  0.00000000000E+00 0.  1.
</event>
<event>
 7    1  0.2895750E-005  0.1568444E+03  0.7818608E-02  0.1343768E+00
          2   -1    0    0  502    0  0.00000000000E+00  0.00000000000E+00  0.39468446966E+03  0.39468446966E+03  0.00000000000E+00 0. -1.
          1   -1    0    0  501    0 -0.00000000000E+00 -0.00000000000E+00 -0.79307748525E+03  0.79307748525E+03  0.00000000000E+00 0. -1.
         25    2    1    2    0    0  0.16474530189E+03 -0.26653223482E+02 -0.32307138604E+03  0.38450963103E+03  0.12498450729E+03 0.  0.
          2    1    1    2  501    0 -0.18997796866E+02 -0.30456045702E+02 -0.42165793916E+03  0.42318306282E+03  0.00000000000E+00 0. -1.
          1    1    1    2  502    0 -0.14574750502E+03  0.57109269185E+02  0.34633630960E+03  0.38006926105E+03  0.00000000000E+00 0. -1.
         22    1    3    3    0    0  0.80847407539E+02  0.18994097115E+02 -0.25235151028E+03  0.26566588748E+03  0.00000000000E+00 0.  1.
         22    1    3    3    0    0  0.83897894347E+02 -0.45647320597E+02 -0.70719875759E+02  0.11884374355E+03  0.00000000000E+00 0.  1.
</event>
<event>
 7    1  0.2895750E-005  0.1135023E+03  0.7818608E-02  0.1435643E+00
          2   -1    0    0  502    0  0.00000000000E+00  0.00000000000E+00  0.77297221945E+03  0.77297221945E+03  0.00000000000E+00 0. -1.
          1   -1    0    0  501    0 -0.00000000000E+00 -0.00000000000E+00 -0.11443377708E+04  0.11443377708E+04  0.00000000000E+00 0. -1.
         25    2    1    2    0    0 -0.11965307920E+03  0.75741927338E+01 -0.16434008201E+03  0.23876166920E+03  0.12500097747E+03 0.  0.
          2    1    1    2  501    0  0.11212614831E+03  0.14878144644E+02 -0.93920228169E+03  0.94598866708E+03  0.00000000000E+00 0. -1.
          1    1    1    2  502    0  0.75269308911E+01 -0.22452337378E+02  0.73217681232E+03  0.73255965399E+03  0.00000000000E+00 0. -1.
         22    1    3    3    0    0 -0.27725987766E+02  0.38235104540E+02  0.85914264394E+00  0.47237609411E+02  0.00000000000E+00 0.  1.
         22    1    3    3    0    0 -0.91927091433E+02 -0.30660911806E+02 -0.16519922466E+03  0.19152405979E+03  0.00000000000E+00 0.  1.
</event>
<event>
 7    1  0.2895750E-005  0.1833183E+03  0.7818608E-02  0.1308622E+00
          2   -1    0    0  502    0  0.00000000000E+00  0.00000000000E+00  0.10213335308E+04  0.10213335308E+04  0.00000000000E+00 0. -1.
          1   -1    0    0  501    0 -0.00000000000E+00 -0.00000000000E+00 -0.20782496040E+03  0.20782496040E+03  0.00000000000E+00 0. -1.
         25    2    1    2    0    0 -0.89394531534E+02  0.14476577449E+03 -0.87371892158E+02  0.22848712420E+03  0.12499602655E+03 0.  0.
          2    1    1    2  501    0  0.29684142829E+02  0.29595071828E+02 -0.30112198579E+02  0.51611637402E+02  0.00000000000E+00 0. -1.
          1    1    1    2  502    0  0.59710388705E+02 -0.17436084632E+03  0.93099266118E+03  0.94905972964E+03  0.00000000000E+00 0. -1.
         22    1    3    3    0    0 -0.55545124915E+02  0.80768805536E+01  0.10360558926E+02  0.57077474388E+02  0.00000000000E+00 0. -1.
         22    1    3    3    0    0 -0.33849406619E+02  0.13668889394E+03 -0.97732451084E+02  0.17140964981E+03  0.00000000000E+00 0. -1.
</event>
<event>
 7    1  0.2895750E-005  0.2586827E+03  0.7818608E-02  0.1200063E+00
          2   -1    0    0  502    0  0.00000000000E+00  0.00000000000E+00  0.35510413609E+04  0.35510413609E+04  0.00000000000E+00 0. -1.
          1   -1    0    0  501    0 -0.00000000000E+00 -0.00000000000E+00 -0.28886090745E+03  0.28886090745E+03  0.00000000000E+00 0. -1.
         25    2    1    2    0    0  0.15712626843E+03  0.80346656744E+02  0.22645302627E+04  0.22748338092E+04  0.12500919686E+03 0.  0.
          2    1    1    2  501    0 -0.21855802633E+03 -0.14246842232E+03 -0.22183645234E+03  0.34245623636E+03  0.00000000000E+00 0. -1.
          1    1    1    2  502    0  0.61431757900E+02  0.62121765577E+02  0.12194866431E+04  0.12226122228E+04  0.00000000000E+00 0. -1.
         22    1    3    3    0    0  0.15534722060E+03  0.20847018903E+02  0.16376934496E+04  0.16451769486E+04  0.00000000000E+00 0.  1.
         22    1    3    3    0    0  0.17790478297E+01  0.59499637842E+02  0.62683681308E+03  0.62965686064E+03  0.00000000000E+00 0.  1.
</event>
<event>
 7    1  0.2895750E-005  0.4576244E+03  0.7818608E-02  0.1062882E+00
          2   -1    0    0  502    0  0.00000000000E+00  0.00000000000E+00  0.11254512934E+04  0.11254512934E+04  0.00000000000E+00 0. -1.
          1   -1    0    0  501    0 -0.00000000000E+00 -0.00000000000E+00 -0.11694273339E+04  0.11694273339E+04  0.00000000000E+00 0. -1.
         25    2    1    2    0    0 -0.45860601290E+03 -0.61260845903E+02  0.81123896200E+03  0.94223434474E+03  0.12499816248E+03 0.  0.
          2    1    1    2  501    0  0.34767480452E+03  0.30379020407E+03 -0.96066922848E+03  0.10658572251E+04  0.00000000000E+00 0. -1.
          1    1    1    2  502    0  0.11093120837E+03 -0.24252935816E+03  0.10545422589E+03  0.28678705745E+03  0.00000000000E+00 0. -1.
         22    1    3    3    0    0 -0.27641467753E+03 -0.97781171214E+02  0.51132785257E+03  0.58942548657E+03  0.00000000000E+00 0.  1.
         22    1    3    3    0    0 -0.18219133536E+03  0.36520325311E+02  0.29991110943E+03  0.35280885817E+03  0.00000000000E+00 0.  1.
</event>
<event>
 7    1  0.2895750E-005  0.1020999E+03  0.7818608E-02  0.1399744E+00
          2   -1    0    0  502    0  0.00000000000E+00  0.00000000000E+00  0.22832910614E+03  0.22832910614E+03  0.00000000000E+00 0. -1.
          1   -1    0    0  501    0 -0.00000000000E+00 -0.00000000000E+00 -0.56622804512E+03  0.56622804512E+03  0.00000000000E+00 0. -1.
         25    2    1    2    0    0  0.72139195607E+02 -0.87296512488E+02  0.10628462158E+03  0.19936423021E+03  0.12499972347E+03 0.  0.
          2    1    1    2  501    0 -0.34691909332E+02 -0.16008747097E+01 -0.48800778521E+03  0.48924195425E+03  0.00000000000E+00 0. -1.
          1    1    1    2  502    0 -0.37447286274E+02  0.88897387198E+02  0.43824224650E+02  0.10595096680E+03  0.00000000000E+00 0. -1.
         22    1    3    3    0    0  0.73321354246E+02 -0.92991649901E+02  0.29077582584E+02  0.12193840145E+03  0.00000000000E+00 0. -1.
         22    1    3    3    0    0 -0.11821586397E+01  0.56951374123E+01  0.77207038991E+02  0.77425828759E+02  0.00000000000E+00 0. -1.
</event>
<event>
 7    1  0.2895750E-005  0.5052509E+03  0.7818608E-02  0.1210287E+00
          2   -1    0    0  502    0  0.00000000000E+00  0.00000000000E+00  0.16520685046E+04  0.16520685046E+04  0.00000000000E+00 0. -1.
          1   -1    0    0  501    0 -0.00000000000E+00 -0.00000000000E+00 -0.22258350477E+03  0.22258350477E+03  0.00000000000E+00 0. -1.
         25    2    1    2    0    0 -0.51515013355E+03 -0.70783813005E+02  0.38388822997E+03  0.65831986097E+03  0.12499943186E+03 0.  0.
          2    1    1    2  501    0  0.16741899947E+02  0.36403853891E+02 -0.15928641776E+02  0.43119060992E+02  0.00000000000E+00 0. -1.
          1    1    1    2  502    0  0.49840823360E+03  0.34379959114E+02  0.10615254116E+04  0.11732130874E+04  0.00000000000E+00 0. -1.
         22    1    3    3    0    0 -0.41901674816E+03 -0.75642910372E+02  0.36368232877E+03  0.55996582162E+03  0.00000000000E+00 0.  1.
         22    1    3    3    0    0 -0.96133385389E+02  0.48590973661E+01  0.20205901206E+02  0.98354039353E+02  0.00000000000E+00 0.  1.
</event>
<event>
 7    1  0.2895750E-005  0.8315684E+02  0.7818608E-02  0.1329830E+00
          2   -1    0    0  502    0  0.00000000000E+00  0.00000000000E+00  0.97233274280E+03  0.97233274280E+03  0.00000000000E+00 0. -1.
          1   -1    0    0  501    0 -0.00000000000E+00 -0.00000000000E+00 -0.11155370032E+04  0.11155370032E+04  0.00000000000E+00 0. -1.
         25    2    1    2    0    0 -0.88718354874E+02  0.12828851113E+03  0.36742607371E+02  0.20323276107E+03  0.12499858957E+03 0.  0.
          2    1    1    2  501    0  0.32733760083E+02 -0.69073203870E+02 -0.10289232608E+04  0.10317585391E+04  0.00000000000E+00 0. -1.
          1    1    1    2  502    0  0.55984594791E+02 -0.59215307260E+02  0.84897639298E+03  0.85287844580E+03  0.00000000000E+00 0. -1.
         22    1    3    3    0    0 -0.84092935663E+02  0.20004960967E+02 -0.61805841779E+01  0.86660371061E+02  0.00000000000E+00 0.  1.
         22    1    3    3    0    0 -0.46254192113E+01  0.10828355016E+03  0.42923191548E+02  0.11657239001E+03  0.00000000000E+00 0.  1.
</event>
<event>
 7    1  0.2895750E-005  0.8694676E+02  0.7818608E-02  0.1324336E+00
          2   -1    0    0  502    0  0.00000000000E+00  0.00000000000E+00  0.11298620338E+04  0.11298620338E+04  0.00000000000E+00 0. -1.
          1   -1    0    0  501    0 -0.00000000000E+00 -0.00000000000E+00 -0.73809882354E+03  0.73809882354E+03  0.00000000000E+00 0. -1.
         25    2    1    2    0    0  0.64330463277E+02 -0.14537223068E+03 -0.15741720923E+03  0.25627588200E+03  0.12500262387E+03 0.  0.
          2    1    1    2  501    0 -0.35390936845E+02  0.74295895004E+02 -0.52669029055E+03  0.53308072614E+03  0.00000000000E+00 0. -1.
          1    1    1    2  502    0 -0.28939526433E+02  0.71076335676E+02  0.10758707100E+04  0.10786042492E+04  0.00000000000E+00 0. -1.
         22    1    3    3    0    0  0.13797766390E+02 -0.77382052295E+02 -0.12504323365E+01  0.78612492365E+02  0.00000000000E+00 0. -1.
         22    1    3    3    0    0  0.50532696887E+02 -0.67990178385E+02 -0.15616677689E+03  0.17766338963E+03  0.00000000000E+00 0. -1.
</event>
<event>
 7    1  0.2895750E-005  0.2440416E+03  0.7818608E-02  0.1180225E+00
          2   -1    0    0  502    0  0.00000000000E+00  0.00000000000E+00  0.30388223143E+03  0.30388223143E+03  0.00000000000E+00 0. -1.
          1   -1    0    0  501    0 -0.00000000000E+00 -0.00000000000E+00 -0.44651002064E+03  0.44651002064E+03  0.00000000000E+00 0. -1.
         25    2    1    2    0    0  0.17172252892E+03 -0.25030624992E+03 -0.87221045092E+02  0.33966751264E+03  0.12499865098E+03 0.  0.
          2    1    1    2  501    0 -0.17403828167E+03  0.13503471348E+03 -0.14584941485E+03  0.26418885129E+03  0.00000000000E+00 0. -1.
          1    1    1    2  502    0  0.23157527589E+01  0.11527153644E+03  0.90442670735E+02  0.14653588814E+03  0.00000000000E+00 0. -1.
         22    1    3    3    0    0  0.10318196150E+03 -0.15854139362E+03 -0.11557425451E+03  0.22167385722E+03  0.00000000000E+00 0. -1.
         22    1    3    3    0    0  0.68540567420E+02 -0.91764856302E+02  0.28353209417E+02  0.11799365542E+03  0.00000000000E+00 0. -1.
</event>
<event>
 7    1  0.2895750E-005  0.5124134E+02  0.7818608E-02  0.1520729E+00
          2   -1    0    0  502    0  0.00000000000E+00  0.00000000000E+00  0.11014001180E+04  0.11014001180E+04  0.00000000000E+00 0. -1.
          1   -1    0    0  501    0 -0.00000000000E+00 -0.00000000000E+00 -0.27765815525E+03  0.27765815525E+03  0.00000000000E+00 0. -1.
         25    2    1    2    0    0  0.30930218391E+02 -0.44992683903E+02  0.41403564410E+03  0.43592651177E+03  0.12500155625E+03 0.  0.
          2    1    1    2  501    0 -0.27950859874E+02 -0.65128514630E+01 -0.26495293091E+03  0.26650276434E+03  0.00000000000E+00 0. -1.
          1    1    1    2  502    0 -0.29793585172E+01  0.51505535366E+02  0.67465924954E+03  0.67662899712E+03  0.00000000000E+00 0. -1.
         22    1    3    3    0    0  0.72165509297E+02 -0.43395587054E+02  0.34811282424E+03  0.35815300656E+03  0.00000000000E+00 0.  1.
         22    1    3    3    0    0 -0.41235290906E+02 -0.15970968494E+01  0.65922819857E+02  0.77773505208E+02  0.00000000000E+00 0.  1.
</event>
<event>
 7    1  0.2895750E-005  0.6734054E+02  0.7818608E-02  0.1474241E+00
          2   -1    0    0  502    0  0.00000000000E+00  0.00000000000E+00  0.22721497938E+04  0.22721497938E+04  0.00000000000E+00 0. -1.
          1   -1    0    0  501    0 -0.00000000000E+00 -0.00000000000E+00 -0.45839543463E+03  0.45839543463E+03  0.00000000000E+00 0. -1.
         25    2    1    2    0    0  0.82353166984E+02  0.26399746708E+02  0.55879525943E+03  0.57909968579E+03  0.12500125351E+03 0.  0.
          2    1    1    2  501    0 -0.16015616564E+02 -0.25476780190E+02 -0.44709117046E+03  0.44810275719E+03  0.00000000000E+00 0. -1.
          1    1    1    2  502    0 -0.66337550419E+02 -0.92296651894E+00  0.17020502702E+04  0.17033427854E+04  0.00000000000E+00 0. -1.
         22    1    3    3    0    0  0.25974680372E+02  0.53550594933E+02  0.10244550420E+03  0.11847966732E+03  0.00000000000E+00 0. -1.
         22    1    3    3    0    0  0.56378486611E+02 -0.27150848225E+02  0.45634975523E+03  0.46062001846E+03  0.00000000000E+00 0. -1.
</event>
<event>
 7    1  0.2895750E-005  0.6323342E+02  0.7818608E-02  0.1417704E+00
          2   -1    0    0  502    0  0.00000000000E+00  0.00000000000E+00  0.14773978299E+04  0.14773978299E+04  0.00000000000E+00 0. -1.
          1   -1    0    0  501    0 -0.00000000000E+00 -0.00000000000E+00 -0.24129845637E+03  0.24129845637E+03  0.00000000000E+00 0. -1.
         25    2    1    2    0    0 -0.52941379647E+02  0.73613792368E+02  0.51675409936E+03  0.53933684806E+03  0.12501062500E+03 0.  0.
          2    1    1    2  501    0  0.47201438630E+02 -0.12106343624E+02 -0.22640710644E+03  0.23159170368E+03  0.00000000000E+00 0. -1.
          1    1    1    2  502    0  0.57399410162E+01 -0.61507448744E+02  0.94575238061E+03  0.94776773452E+03  0.00000000000E+00 0. -1.
         22    1    3    3    0    0 -0.75318479312E+02  0.86166884702E+02  0.48596180954E+03  0.49925593204E+03  0.00000000000E+00 0.  1.
         22    1    3    3    0    0  0.22377099666E+02 -0.12553092334E+02  0.30792289822E+02  0.40080916020E+02  0.00000000000E+00 0.  1.
</event>
<event>
 7    1  0.2895750E-005  0.1103953E+03  0.7818608E-02  0.1275273E+00
          2   -1    0    0  502    0  0.00000000000E+00  0.00000000000E+00  0.54119219986E+03  0.54119219986E+03  0.00000000000E+00 0. -1.
          1   -1    0    0  501    0 -0.00000000000E+00 -0.00000000000E+00 -0.46290034103E+03  0.46290034103E+03  0.00000000000E+00 0. -1.
         25    2    1    2    0    0 -0.76886793181E+02  0.14882391240E+03 -0.88485235582E+02  0.22696708661E+03  0.12499714246E+03 0.  0.
          2    1    1    2  501    0  0.86135959315E+02 -0.40152366026E+02 -0.29121332942E+03  0.30632796023E+03  0.00000000000E+00 0. -1.
          1    1    1    2  502    0 -0.92491661342E+01 -0.10867154637E+03  0.45799042384E+03  0.47079749404E+03  0.00000000000E+00 0. -1.
         22    1    3    3    0    0  0.37376888395E+01  0.77538383812E+02  0.13391838730E+02  0.78775076177E+02  0.00000000000E+00 0. -1.
         22    1    3    3    0    0 -0.80624482021E+02  0.71285528589E+02 -0.10187707431E+03  0.14819201044E+03  0.00000000000E+00 0. -1.
</event>
<event>
 7    1  0.2895750E-005  0.7089588E+02  0.7818608E-02  0.1520129E+00
          2   -1    0    0  502    0  0.00000000000E+00  0.00000000000E+00  0.68336726343E+03  0.68336726343E+03  0.00000000000E+00 0. -1.
          1   -1    0    0  501    0 -0.00000000000E+00 -0.00000000000E+00 -0.16654039927E+03  0.16654039927E+03  0.00000000000E+00 0. -1.
         25    2    1    2    0    0  0.17622436000E+02 -0.47221774113E+02  0.49934163681E+03  0.51721160948E+03  0.12500133009E+03 0.  0.
          2    1    1    2  501    0 -0.24271833309E+02  0.66958234136E+02 -0.14887661189E+03  0.16503567063E+03  0.00000000000E+00 0. -1.
          1    1    1    2  502    0  0.66493973086E+01 -0.19736460023E+02  0.16636183923E+03  0.16766038260E+03  0.00000000000E+00 0. -1.
         22    1    3    3    0    0  0.38516980533E+00 -0.74413265044E+02  0.46179431042E+03  0.46775150187E+03  0.00000000000E+00 0. -1.
         22    1    3    3    0    0  0.17237266195E+02  0.27191490931E+02  0.37547326398E+02  0.49460107607E+02  0.00000000000E+00 0. -1.
</event>
<event>
 7    1  0.2895750E-005  0.4259774E+03  0.7818608E-02  0.1083130E+00
          2   -1    0    0  502    0  0.00000000000E+00  0.00000000000E+00  0.20911570940E+04  0.20911570940E+04  0.00000000000E+00 0. -1.
          1   -1    0    0  501    0 -0.00000000000E+00 -0.00000000000E+00 -0.12048296679E+04  0.12048296679E+04  0.00000000000E+00 0. -1.
         25    2    1    2    0    0 -0.12551187038E+03 -0.39774966584E+03 -0.68442291635E+03  0.81118127850E+03  0.12498924702E+03 0.  0.
          2    1    1    2  501    0 -0.18887692879E+03  0.10749467567E+03 -0.40695148030E+03  0.46134488926E+03  0.00000000000E+00 0. -1.
          1    1    1    2  502    0  0.31438879916E+03  0.29025499017E+03  0.19777018228E+04  0.20234605942E+04  0.00000000000E+00 0. -1.
         22    1    3    3    0    0 -0.11094197783E+03 -0.37324291739E+03 -0.55071068712E+03  0.67446323749E+03  0.00000000000E+00 0. -1.
         22    1    3    3    0    0 -0.14569892546E+02 -0.24506748454E+02 -0.13371222923E+03  0.13671804100E+03  0.00000000000E+00 0. -1.
</event>
<event>
 7    1  0.2895750E-005  0.1251118E+03  0.7818608E-02  0.1318099E+00
          2   -1    0    0  502    0  0.00000000000E+00  0.00000000000E+00  0.18338063942E+04  0.18338063942E+04  0.00000000000E+00 0. -1.
          1   -1    0    0  501    0 -0.00000000000E+00 -0.00000000000E+00 -0.34087071568E+03  0.34087071568E+03  0.00000000000E+00 0. -1.
         25    2    1    2    0    0 -0.13021073521E+03  0.65971566943E+01  0.43459690029E+03  0.47064141273E+03  0.12502206045E+03 0.  0.
          2    1    1    2  501    0  0.19202990441E+02  0.53011448342E+02 -0.31748588051E+03  0.32245348939E+03  0.00000000000E+00 0. -1.
          1    1    1    2  502    0  0.11100774477E+03 -0.59608605036E+02  0.13758246587E+04  0.13815822077E+04  0.00000000000E+00 0. -1.
         22    1    3    3    0    0 -0.13264024255E+02 -0.49075684441E+02  0.13448877901E+03  0.14377617613E+03  0.00000000000E+00 0. -1.
         22    1    3    3    0    0 -0.11694671095E+03  0.55672841135E+02  0.30010812128E+03  0.32686523661E+03  0.00000000000E+00 0. -1.
</event>
<event>
 7    1  0.2895750E-005  0.5920020E+03  0.7818608E-02  0.1129728E+00
          2   -1    0    0  502    0  0.00000000000E+00  0.00000000000E+00  0.10064738387E+04  0.10064738387E+04  0.00000000000E+00 0. -1.
          1   -1    0    0  501    0 -0.00000000000E+00 -0.00000000000E+00 -0.11030002865E+04  0.11030002865E+04  0.00000000000E+00 0. -1.
         25    2    1    2    0    0 -0.59732514933E+03 -0.20737573563E+03  0.89026461772E+02  0.65065615442E+03  0.12500276253E+03 0.  0.
          2    1    1    2  501    0  0.52402281004E+03  0.25239236963E+03 -0.71541434226E+03  0.92201924861E+03  0.00000000000E+00 0. -1.
          1    1    1    2  502    0  0.73302339292E+02 -0.45016634006E+02  0.52986143272E+03  0.53679872221E+03  0.00000000000E+00 0. -1.
         22    1    3    3    0    0 -0.53690609320E+03 -0.14178221094E+03  0.79397477134E+02  0.56095838315E+03  0.00000000000E+00 0. -1.
         22    1    3    3    0    0 -0.60419056127E+02 -0.65593524693E+02  0.96289846378E+01  0.89697771266E+02  0.00000000000E+00 0. -1.
</event>
<event>
 7    1  0.2895750E-005  0.1556453E+03  0.7818608E-02  0.1209697E+00
          2   -1    0    0  502    0  0.00000000000E+00  0.00000000000E+00  0.77724915884E+03  0.77724915884E+03  0.00000000000E+00 0. -1.
          1   -1    0    0  501    0 -0.00000000000E+00 -0.00000000000E+00 -0.98119112391E+03  0.98119112391E+03  0.00000000000E+00 0. -1.
         25    2    1    2    0    0  0.23285191096E+03 -0.59346385977E+01 -0.93726492169E+02  0.28047455245E+03  0.12500434737E+03 0.  0.
          2    1    1    2  501    0 -0.10463943057E+03 -0.78637554417E+02 -0.77994360029E+03  0.79085099420E+03  0.00000000000E+00 0. -1.
          1    1    1    2  502    0 -0.12821248039E+03  0.84572193015E+02  0.66972812739E+03  0.68711473611E+03  0.00000000000E+00 0. -1.
         22    1    3    3    0    0  0.13343157948E+03 -0.29938143976E+02  0.69963638511E+01  0.13692782031E+03  0.00000000000E+00 0. -1.
         22    1    3    3    0    0  0.99420331476E+02  0.24003505379E+02 -0.10072285602E+03  0.14354673213E+03  0.00000000000E+00 0. -1.
</event>
<event>
 7    1  0.2895750E-005  0.4910240E+03  0.7818608E-02  0.1112486E+00
          2   -1    0    0  502    0  0.00000000000E+00  0.00000000000E+00  0.11997378236E+04  0.11997378236E+04  0.00000000000E+00 0. -1.
          1   -1    0    0  501    0 -0.00000000000E+00 -0.00000000000E+00 -0.80318767050E+03  0.80318767050E+03  0.00000000000E+00 0. -1.
         25    2    1    2    0    0 -0.31151402610E+03 -0.36539569191E+03  0.38945748766E+03  0.63075839228E+03  0.12499605837E+03 0.  0.
          2    1    1    2  501    0 -0.10397906160E+03  0.75691851083E+02 -0.58154662926E+03  0.59559834081E+03  0.00000000000E+00 0. -1.
          1    1    1    2  502    0  0.41549308771E+03  0.28970384083E+03  0.58863929472E+03  0.77656876103E+03  0.00000000000E+00 0. -1.
         22    1    3    3    0    0  0.82428013364E+01 -0.20333427644E+01  0.20373329100E+02  0.22071492820E+02  0.00000000000E+00 0.  1.
         22    1    3    3    0    0 -0.31975682744E+03 -0.36336234914E+03  0.36908415856E+03  0.60868689946E+03  0.00000000000E+00 0.  1.
</event>
<event>
 7    1  0.2895750E-005  0.1519676E+03  0.7818608E-02  0.1229789E+00
          2   -1    0    0  502    0  0.00000000000E+00  0.00000000000E+00  0.12257596663E+04  0.12257596663E+04  0.00000000000E+00 0. -1.
          1   -1    0    0  501    0 -0.00000000000E+00 -0.00000000000E+00 -0.74565420975E+02  0.74565420975E+02  0.00000000000E+00 0. -1.
         25    2    1    2    0    0  0.17861308545E+03 -0.11304352862E+03  0.76300197388E+03  0.80154719274E+03  0.12499766556E+03 0.  0.
          2    1    1    2  501    0 -0.12736202017E+03  0.17348484736E+02  0.36608414517E+03  0.38799440131E+03  0.00000000000E+00 0. -1.
          1    1    1    2  502    0 -0.51251065277E+02  0.95695043886E+02  0.22108126244E+02  0.11078349319E+03  0.00000000000E+00 0. -1.
         22    1    3    3    0    0  0.64217393542E+01 -0.63910086076E+02  0.25288657659E+03  0.26091638212E+03  0.00000000000E+00 0. -1.
         22    1    3    3    0    0  0.17219134610E+03 -0.49133442546E+02  0.51011539729E+03  0.54063081062E+03  0.00000000000E+00 0. -1.
</event>
<event>
 7    1  0.2895750E-005  0.3453145E+03  0.7818608E-02  0.1158119E+00
          2   -1    0    0  502    0  0.00000000000E+00  0.00000000000E+00  0.25512542601E+04  0.25512542601E+04  0.00000000000E+00 0. -1.
          1   -1    0    0  501    0 -0.00000000000E+00 -0.00000000000E+00 -0.30298784289E+04  0.30298784289E+04  0.00000000000E+00 0. -1.
         25    2    1    2    0    0 -0.30833688977E+03 -0.27666426710E+03  0.20013005494E+03  0.47675097730E+03  0.12499880471E+03 0.  0.
          2    1    1    2  501    0  0.16203736231E+02  0.10370254598E+03 -0.28775839285E+04  0.28794975334E+04  0.00000000000E+00 0. -1.
          1    1    1    2  502    0  0.29213315354E+03  0.17296172111E+03  0.21988297048E+04  0.22248841784E+04  0.00000000000E+00 0. -1.
         22    1    3    3    0    0 -0.23736664708E+03 -0.13255231569E+03  0.11872341213E+03  0.29666191217E+03  0.00000000000E+00 0.  1.
         22    1    3    3    0    0 -0.70970242692E+02 -0.14411195141E+03  0.81406642808E+02  0.18008906513E+03  0.00000000000E+00 0.  1.
</event>
<event>
 7    1  0.2895750E-005  0.2307489E+03  0.7818608E-02  0.1202565E+00
          2   -1    0    0  502    0  0.00000000000E+00  0.00000000000E+00  0.11000464809E+04  0.11000464809E+04  0.00000000000E+00 0. -1.
          1   -1    0    0  501    0 -0.00000000000E+00 -0.00000000000E+00 -0.27099068748E+03  0.27099068748E+03  0.00000000000E+00 0. -1.
         25    2    1    2    0    0  0.17650334977E+03 -0.84597787873E+02 -0.21418220038E+01  0.23225603269E+03  0.12501223591E+03 0.  0.
          2    1    1    2  501    0 -0.26638591226E+03  0.52852260412E+02 -0.29177720249E+02  0.27314127305E+03  0.00000000000E+00 0. -1.
          1    1    1    2  502    0  0.89882562489E+02  0.31745527461E+02  0.86037533572E+03  0.86563986269E+03  0.00000000000E+00 0. -1.
         22    1    3    3    0    0  0.12566148433E+03 -0.21069419723E+02  0.48592413398E+02  0.13636697449E+03  0.00000000000E+00 0. -1.
         22    1    3    3    0    0  0.50841865445E+02 -0.63528368150E+02 -0.50734235402E+02  0.95889058205E+02  0.00000000000E+00 0. -1.
</event>
<event>
 7    1  0.2895750E-005  0.7214501E+03  0.7818608E-02  0.1064470E+00
          2   -1    0    0  502    0  0.00000000000E+00  0.00000000000E+00  0.54266998035E+03  0.54266998035E+03  0.00000000000E+00 0. -1.
          1   -1    0    0  501    0 -0.00000000000E+00 -0.00000000000E+00 -0.28234558492E+04  0.28234558492E+04  0.00000000000E+00 0. -1.
         25    2    1    2    0    0 -0.80397569541E+03 -0.18021720318E+03 -0.63744323651E+03  0.10491962962E+04  0.12499531600E+03 0.  0.
          2    1    1    2  501    0  0.64964724612E+03  0.23992261087E+03 -0.18939644804E+04  0.20166075118E+04  0.00000000000E+00 0. -1.
          1    1    1    2  502    0  0.15432844928E+03 -0.59705407695E+02  0.25062184801E+03  0.30032202162E+03  0.00000000000E+00 0. -1.
         22    1    3    3    0    0 -0.76884647176E+03 -0.19211775998E+03 -0.58524709286E+03  0.98516409321E+03  0.00000000000E+00 0.  1.
         22    1    3    3    0    0 -0.35129223648E+02  0.11900556804E+02 -0.52196143646E+02  0.64032202976E+02  0.00000000000E+00 0.  1.
</event>
<event>
 7    1  0.2895750E-005  0.8133671E+02  0.7818608E-02  0.1470597E+00
          2   -1    0    0  502    0  0.00000000000E+00  0.00000000000E+00  0.14631712748E+04  0.14631712748E+04  0.00000000000E+00 0. -1.
          1   -1    0    0  501    0 -0.00000000000E+00 -0.00000000000E+00 -0.20647567294E+02  0.20647567294E+02  0.00000000000E+00 0. -1.
         25    2    1    2    0    0 -0.57159541638E+02  0.11906783229E+02  0.24403489961E+03  0.28033394480E+03  0.12500041477E+03 0.  0.
          2    1    1    2  501    0 -0.24224795399E+02  0.81871562859E+01  0.30743205979E+03  0.30849366545E+03  0.00000000000E+00 0. -1.
          1    1    1    2  502    0  0.81384337037E+02 -0.20093939515E+02  0.89105674816E+03  0.89499123189E+03  0.00000000000E+00 0. -1.
         22    1    3    3    0    0  0.21917183618E+01  0.84329318706E+01 -0.13476886387E+02  0.16048191051E+02  0.00000000000E+00 0. -1.
         22    1    3    3    0    0 -0.59351259999E+02  0.34738513587E+01  0.25751178600E+03  0.26428575375E+03  0.00000000000E+00 0. -1.
</event>
<event>
 7    1  0.2895750E-005  0.7546468E+02  0.7818608E-02  0.1449806E+00
          2   -1    0    0  502    0  0.00000000000E+00  0.00000000000E+00  0.37198704432E+02  0.37198704432E+02  0.00000000000E+00 0. -1.
          1   -1    0    0  501    0 -0.00000000000E+00 -0.00000000000E+00 -0.54223307697E+03  0.54223307697E+03  0.00000000000E+00 0. -1.
         25    2    1    2    0    0 -0.81818880819E+02  0.34929522710E+02 -0.40351039931E+03  0.43169547038E+03  0.12500374385E+03 0.  0.
          2    1    1    2  501    0  0.28011128340E+02  0.15580435920E+02 -0.42522666211E+02  0.53249886723E+02  0.00000000000E+00 0. -1.
          1    1    1    2  502    0  0.53807752478E+02 -0.50509958630E+02 -0.59001307011E+02  0.94486424298E+02  0.00000000000E+00 0. -1.
         22    1    3    3    0    0  0.22608671939E+01 -0.21178607946E+01 -0.26774010647E+03  0.26775802783E+03  0.00000000000E+00 0. -1.
         22    1    3    3    0    0 -0.84079748013E+02  0.37047383505E+02 -0.13577029284E+03  0.16393744254E+03  0.00000000000E+00 0. -1.
</event>
<event>
 7    1  0.2895750E-005  0.2976520E+02  0.7818608E-02  0.1660601E+00
          2   -1    0    0  502    0  0.00000000000E+00  0.00000000000E+00  0.85799997890E+02  0.85799997890E+02  0.00000000000E+00 0. -1.
          1   -1    0    0  501    0 -0.00000000000E+00 -0.00000000000E+00 -0.33071871900E+03  0.33071871900E+03  0.00000000000E+00 0. -1.
         25    2    1    2    0    0  0.29436623298E+00 -0.48796964263E+01 -0.27929029634E+03  0.30602602812E+03  0.12499984867E+03 0.  0.
          2    1    1    2  501    0  0.28576693957E+02  0.12120496080E+02 -0.27732038178E+02  0.41624509658E+02  0.00000000000E+00 0. -1.
          1    1    1    2  502    0 -0.28871060190E+02 -0.72407996534E+01  0.62103613409E+02  0.68868179115E+02  0.00000000000E+00 0. -1.
         22    1    3    3    0    0 -0.40577050926E+02 -0.37633787815E+02 -0.64719705635E+02  0.85155383533E+02  0.00000000000E+00 0.  1.
         22    1    3    3    0    0  0.40871417159E+02  0.32754091389E+02 -0.21457059071E+03  0.22087064459E+03  0.00000000000E+00 0.  1.
</event>
<event>
 7    1  0.2895750E-005  0.4856572E+03  0.7818608E-02  0.1143935E+00
          2   -1    0    0  502    0  0.00000000000E+00  0.00000000000E+00  0.84085875061E+03  0.84085875061E+03  0.00000000000E+00 0. -1.
          1   -1    0    0  501    0 -0.00000000000E+00 -0.00000000000E+00 -0.77666625513E+03  0.77666625513E+03  0.00000000000E+00 0. -1.
         25    2    1    2    0    0 -0.10233953800E+03  0.49678113296E+03 -0.21200907387E+03  0.56378027018E+03  0.12504187515E+03 0.  0.
          2    1    1    2  501    0  0.86990953656E+02 -0.14907628224E+02 -0.29404550350E+03  0.30700557247E+03  0.00000000000E+00 0. -1.
          1    1    1    2  502    0  0.15348584348E+02 -0.48187350473E+03  0.57024707285E+03  0.74673916309E+03  0.00000000000E+00 0. -1.
         22    1    3    3    0    0  0.10572331626E+02  0.13979465058E+03 -0.15840648022E+02  0.14108594777E+03  0.00000000000E+00 0.  1.
         22    1    3    3    0    0 -0.11291186963E+03  0.35698648237E+03 -0.19616842585E+03  0.42269432241E+03  0.00000000000E+00 0.  1.
</event>
<event>
 7    1  0.2895750E-005  0.3566119E+03  0.7818608E-02  0.1068685E+00
          2   -1    0    0  502    0  0.00000000000E+00  0.00000000000E+00  0.30237126361E+04  0.30237126361E+04  0.00000000000E+00 0. -1.
          1   -1    0    0  501    0 -0.00000000000E+00 -0.00000000000E+00 -0.56357832305E+03  0.56357832305E+03  0.00000000000E+00 0. -1.
         25    2    1    2    0    0 -0.45656385006E+03 -0.18351061793E+03  0.19003606811E+04  0.19670084186E+04  0.12499881840E+03 0.  0.
          2    1    1    2  501    0  0.16862800830E+03  0.31327891645E+03 -0.44344389441E+03  0.56852578848E+03  0.00000000000E+00 0. -1.
          1    1    1    2  502    0  0.28793584176E+03 -0.12976829851E+03  0.10032175263E+04  0.10517567520E+04  0.00000000000E+00 0. -1.
         22    1    3    3    0    0 -0.19053347441E+02  0.17742148216E+02  0.10537056917E+03  0.10853925889E+03  0.00000000000E+00 0.  1.
         22    1    3    3    0    0 -0.43751050262E+03 -0.20125276615E+03  0.17949901119E+04  0.18584691597E+04  0.00000000000E+00 0.  1.
</event>
<event>
 7    1  0.2895750E-005  0.8725593E+03  0.7818608E-02  0.9653542E-01
          2   -1    0    0  502    0  0.00000000000E+00  0.00000000000E+00  0.17569949325E+04  0.17569949325E+04  0.00000000000E+00 0. -1.
          1   -1    0    0  501    0 -0.00000000000E+00 -0.00000000000E+00 -0.18666381121E+04  0.18666381121E+04  0.00000000000E+00 0. -1.
         25    2    1    2    0    0  0.15403955617E+03 -0.79871184795E+03 -0.42420020413E+03  0.92587314239E+03  0.12500584665E+03 0.  0.
          2    1    1    2  501    0 -0.62505767771E+03  0.28225350075E+01 -0.94629333185E+03  0.11340970581E+04  0.00000000000E+00 0. -1.
          1    1    1    2  502    0  0.47101812154E+03  0.79588931294E+03  0.12608503564E+04  0.15636628442E+04  0.00000000000E+00 0. -1.
         22    1    3    3    0    0  0.79348914203E+02 -0.40391163502E+03 -0.14430965982E+03  0.43619506761E+03  0.00000000000E+00 0. -1.
         22    1    3    3    0    0  0.74690641963E+02 -0.39480021293E+03 -0.27989054432E+03  0.48967807479E+03  0.00000000000E+00 0. -1.
</event>
<event>
 7    1  0.2895750E-005  0.1723064E+03  0.7818608E-02  0.1190380E+00
          2   -1    0    0  502    0  0.00000000000E+00  0.00000000000E+00  0.55181371927E+03  0.55181371927E+03  0.00000000000E+00 0. -1.
          1   -1    0    0  501    0 -0.00000000000E+00 -0.00000000000E+00 -0.44317206390E+03  0.44317206390E+03  0.00000000000E+00 0. -1.
         25    2    1    2    0    0 -0.43375675642E+02 -0.20770348835E+02 -0.14810601658E+03  0.19968727787E+03  0.12500704047E+03 0.  0.
          2    1    1    2  501    0 -0.14092986677E+03  0.37500730482E+02 -0.23124704050E+03  0.27339115910E+03  0.00000000000E+00 0. -1.
          1    1    1    2  502    0  0.18430554241E+03 -0.16730381648E+02  0.48799471245E+03  0.52190734620E+03  0.00000000000E+00 0. -1.
         22    1    3    3    0    0 -0.64577788956E+02  0.13592572882E+02 -0.14485492134E+03  0.15917913526E+03  0.00000000000E+00 0. -1.
         22    1    3    3    0    0  0.21202113314E+02 -0.34362921717E+02 -0.32510952406E+01  0.40508142615E+02  0.00000000000E+00 0. -1.
</event>
<event>
 7    1  0.2895750E-005  0.1000713E+03  0.7818608E-02  0.1401292E+00
          2   -1    0    0  502    0  0.00000000000E+00  0.00000000000E+00  0.54857568905E+03  0.54857568905E+03  0.00000000000E+00 0. -1.
          1   -1    0    0  501    0 -0.00000000000E+00 -0.00000000000E+00 -0.10686776416E+03  0.10686776416E+03  0.00000000000E+00 0. -1.
         25    2    1    2    0    0 -0.77411003597E+02 -0.70652914669E+02  0.30734242977E+03  0.34795070905E+03  0.12500411578E+03 0.  0.
          2    1    1    2  501    0 -0.14302404735E+02  0.31945999569E+02 -0.71063211782E+02  0.79215438763E+02  0.00000000000E+00 0. -1.
          1    1    1    2  502    0  0.91713408332E+02  0.38706915100E+02  0.20542870689E+03  0.22827730540E+03  0.00000000000E+00 0. -1.
         22    1    3    3    0    0 -0.68088028005E+02 -0.10622736187E+03  0.23104935153E+03  0.26325659500E+03  0.00000000000E+00 0. -1.
         22    1    3    3    0    0 -0.93229755922E+01  0.35574447201E+02  0.76293078239E+02  0.84694114050E+02  0.00000000000E+00 0. -1.
</event>
<event>
 7    1  0.2895750E-005  0.1158658E+03  0.7818608E-02  0.1373683E+00
          2   -1    0    0  502    0  0.00000000000E+00  0.00000000000E+00  0.44875692955E+03  0.44875692955E+03  0.00000000000E+00 0. -1.
          1   -1    0    0  501    0 -0.00000000000E+00 -0.00000000000E+00 -0.14864133164E+03  0.14864133164E+03  0.00000000000E+00 0. -1.
         25    2    1    2    0    0 -0.94121941128E+02  0.11177542966E+03  0.10041831901E+03  0.21693578281E+03  0.12499843437E+03 0.  0.
          2    1    1    2  501    0  0.15143098725E+02 -0.34602187388E+02 -0.75234877329E+02  0.84183796409E+02  0.00000000000E+00 0. -1.
          1    1    1    2  502    0  0.78978842403E+02 -0.77173242268E+02  0.27493215622E+03  0.29627868198E+03  0.00000000000E+00 0. -1.
         22    1    3    3    0    0 -0.96766597345E+02  0.95152258532E+02  0.22923914567E+02  0.13763441621E+03  0.00000000000E+00 0.  1.
         22    1    3    3    0    0  0.26446562167E+01  0.16623171124E+02  0.77494404448E+02  0.79301366605E+02  0.00000000000E+00 0.  1.
</event>
<event>
 7    1  0.2895750E-005  0.5881005E+02  0.7818608E-02  0.1445348E+00
          2   -1    0    0  502    0  0.00000000000E+00  0.00000000000E+00  0.29984782642E+02  0.29984782642E+02  0.00000000000E+00 0. -1.
          1   -1    0    0  501    0 -0.00000000000E+00 -0.00000000000E+00 -0.20607180891E+04  0.20607180891E+04  0.00000000000E+00 0. -1.
         25    2    1    2    0    0 -0.41679948359E+01  0.48806632898E+01 -0.14130834992E+04  0.14186160399E+04  0.12500119946E+03 0.  0.
          2    1    1    2  501    0  0.40134050115E+02 -0.51410914527E+02 -0.60919000311E+03  0.61267143234E+03  0.00000000000E+00 0. -1.
          1    1    1    2  502    0 -0.35966055279E+02  0.46530251237E+02 -0.84598041379E+01  0.59415399507E+02  0.00000000000E+00 0. -1.
         22    1    3    3    0    0  0.38295963552E+02  0.47521493275E+02 -0.88811858162E+03  0.89021317007E+03  0.00000000000E+00 0.  1.
         22    1    3    3    0    0 -0.42463958388E+02 -0.42640829985E+02 -0.52496491758E+03  0.52840286981E+03  0.00000000000E+00 0.  1.
</event>
<event>
 7    1  0.2895750E-005  0.1046695E+03  0.7818608E-02  0.1277621E+00
          2   -1    0    0  502    0  0.00000000000E+00  0.00000000000E+00  0.79615771430E+03  0.79615771430E+03  0.00000000000E+00 0. -1.
          1   -1    0    0  501    0 -0.00000000000E+00 -0.00000000000E+00 -0.10840459757E+03  0.10840459757E+03  0.00000000000E+00 0. -1.
         25    2    1    2    0    0 -0.31994116557E+02  0.61627377859E+02  0.29644618551E+03  0.32913226957E+03  0.12500461101E+03 0.  0.
          2    1    1    2  501    0  0.69744001089E+02  0.68854906457E+02 -0.52583549732E+02  0.11122164148E+03  0.00000000000E+00 0. -1.
          1    1    1    2  502    0 -0.37749884533E+02 -0.13048228432E+03  0.44389048096E+03  0.46420840082E+03  0.00000000000E+00 0. -1.
         22    1    3    3    0    0  0.15591553574E+02  0.43409595319E+02  0.26558671119E+03  0.26956222040E+03  0.00000000000E+00 0. -1.
         22    1    3    3    0    0 -0.47585670131E+02  0.18217782540E+02  0.30859474318E+02  0.59570049166E+02  0.00000000000E+00 0. -1.
</event>
<event>
 7    1  0.2895750E-005  0.3180023E+03  0.7818608E-02  0.1134159E+00
          2   -1    0    0  502    0  0.00000000000E+00  0.00000000000E+00  0.29139039492E+04  0.29139039492E+04  0.00000000000E+00 0. -1.
          1   -1    0    0  501    0 -0.00000000000E+00 -0.00000000000E+00 -0.17492548693E+04  0.17492548693E+04  0.00000000000E+00 0. -1.
         25    2    1    2    0    0  0.28794734359E+03 -0.19724044047E+03 -0.10185309876E+03  0.38446893033E+03  0.12499936251E+03 0.  0.
          2    1    1    2  501    0 -0.12968581023E+03 -0.78684373323E+02 -0.14931151308E+04  0.15008005976E+04  0.00000000000E+00 0. -1.
          1    1    1    2  502    0 -0.15826153336E+03  0.27592481379E+03  0.27596173095E+04  0.27778892905E+04  0.00000000000E+00 0. -1.
         22    1    3    3    0    0  0.18917815240E+03 -0.55999742344E+02 -0.39644210422E+02  0.20123619930E+03  0.00000000000E+00 0.  1.
         22    1    3    3    0    0  0.98769191192E+02 -0.14124069812E+03 -0.62208888334E+02  0.18323273103E+03  0.00000000000E+00 0.  1.
</event>
<event>
 7    1  0.2895750E-005  0.3625147E+03  0.7818608E-02  0.1149527E+00
          2   -1    0    0  502    0  0.00000000000E+00  0.00000000000E+00  0.16638062524E+04  0.16638062524E+04  0.00000000000E+00 0. -1.
          1   -1    0    0  501    0 -0.00000000000E+00 -0.00000000000E+00 -0.31866062614E+03  0.31866062614E+03  0.00000000000E+00 0. -1.
         25    2    1    2    0    0 -0.26766696912E+03  0.11310850313E+03  0.39641404718E+03  0.50715718523E+03  0.12500069555E+03 0.  0.
          2    1    1    2  501    0  0.37578356849E+03 -0.89717657380E+02 -0.11714019733E+03  0.40371323266E+03  0.00000000000E+00 0. -1.
          1    1    1    2  502    0 -0.10811659936E+03 -0.23390845752E+02  0.10658717764E+04  0.10715964606E+04  0.00000000000E+00 0. -1.
         22    1    3    3    0    0 -0.28150185500E+03  0.10625727547E+03  0.37662602819E+03  0.48205919561E+03  0.00000000000E+00 0.  1.
         22    1    3    3    0    0  0.13834885875E+02  0.68512276619E+01  0.19788018988E+02  0.25097989623E+02  0.00000000000E+00 0.  1.
</event>
<event>
 7    1  0.2895750E-005  0.1320272E+03  0.7818608E-02  0.1265403E+00
          2   -1    0    0  502    0  0.00000000000E+00  0.00000000000E+00  0.27383109002E+04  0.27383109002E+04  0.00000000000E+00 0. -1.
          1   -1    0    0  501    0 -0.00000000000E+00 -0.00000000000E+00 -0.73458971180E+03  0.73458971180E+03  0.00000000000E+00 0. -1.
         25    2    1    2    0    0  0.80524312172E+02  0.47695750770E+02  0.46493360427E+03  0.49045745167E+03  0.12500482403E+03 0.  0.
          2    1    1    2  501    0  0.60301728074E+02 -0.63287559269E+02 -0.71695029369E+03  0.72225988203E+03  0.00000000000E+00 0. -1.
          1    1    1    2  502    0 -0.14082604025E+03  0.15591808499E+02  0.22557378778E+04  0.22601832783E+04  0.00000000000E+00 0. -1.
         22    1    3    3    0    0 -0.13431008078E+02 -0.24878999620E+02  0.38248417115E+02  0.47563620677E+02  0.00000000000E+00 0. -1.
         22    1    3    3    0    0  0.93955320249E+02  0.72574750390E+02  0.42668518715E+03  0.44289383100E+03  0.00000000000E+00 0. -1.
</event>
<event>
 7    1  0.2895750E-005  0.1847535E+03  0.7818608E-02  0.1255535E+00
          2   -1    0    0  502    0  0.00000000000E+00  0.00000000000E+00  0.98395806695E+03  0.98395806695E+03  0.00000000000E+00 0. -1.
          1   -1    0    0  501    0 -0.00000000000E+00 -0.00000000000E+00 -0.17300498206E+03  0.17300498206E+03  0.00000000000E+00 0. -1.
         25    2    1    2    0    0  0.19697564255E+03  0.37506252132E+02 -0.35235323296E+02  0.23889806817E+03  0.12499854504E+03 0.  0.
          2    1    1    2  501    0 -0.14959269476E+02 -0.67180448175E+02  0.20185175624E+02  0.71724707565E+02  0.00000000000E+00 0. -1.
          1    1    1    2  502    0 -0.18201637307E+03  0.29674196043E+02  0.82600323256E+03  0.84634027328E+03  0.00000000000E+00 0. -1.
         22    1    3    3    0    0  0.21483919336E+03  0.31998075571E+02 -0.28708906694E+02  0.21909805377E+03  0.00000000000E+00 0. -1.
         22    1    3    3    0    0 -0.17863550811E+02  0.55081765610E+01 -0.65264166020E+01  0.19800014401E+02  0.00000000000E+00 0. -1.
</event>
<event>
 7    1  0.2895750E-005  0.1329056E+03  0.7818608E-02  0.1260130E+00
          2   -1    0    0  502    0  0.00000000000E+00  0.00000000000E+00  0.73931486315E+03  0.73931486315E+03  0.00000000000E+00 0. -1.
          1   -1    0    0  501    0 -0.00000000000E+00 -0.00000000000E+00 -0.99434683577E+03  0.99434683577E+03  0.00000000000E+00 0. -1.
         25    2    1    2    0    0 -0.43349476750E+02 -0.79019802838E+01  0.17986279216E+03  0.22341993471E+03  0.12499689915E+03 0.  0.
          2    1    1    2  501    0  0.13478440240E+03  0.73678671863E+01 -0.96394382592E+03  0.97334927962E+03  0.00000000000E+00 0. -1.
          1    1    1    2  502    0 -0.91434925647E+02  0.53411309755E+00  0.52904906115E+03  0.53689248459E+03  0.00000000000E+00 0. -1.
         22    1    3    3    0    0 -0.66471320421E+02  0.40434545103E+02  0.12066437033E+03  0.14357325358E+03  0.00000000000E+00 0. -1.
         22    1    3    3    0    0  0.23121843670E+02 -0.48336525387E+02  0.59198421832E+02  0.79846681137E+02  0.00000000000E+00 0. -1.
</event>
<event>
 7    1  0.2895750E-005  0.2240544E+03  0.7818608E-02  0.1158599E+00
          2   -1    0    0  502    0  0.00000000000E+00  0.00000000000E+00  0.25638251489E+04  0.25638251489E+04  0.00000000000E+00 0. -1.
          1   -1    0    0  501    0 -0.00000000000E+00 -0.00000000000E+00 -0.12423456289E+04  0.12423456289E+04  0.00000000000E+00 0. -1.
         25    2    1    2    0    0 -0.29311150699E+03  0.87898558977E+02  0.19612739406E+04  0.19889347352E+04  0.12500159445E+03 0.  0.
          2    1    1    2  501    0  0.13086027901E+03 -0.93554649492E+02 -0.12119058403E+04  0.12225353373E+04  0.00000000000E+00 0. -1.
          1    1    1    2  502    0  0.16225122799E+03  0.56560905145E+01  0.57211141963E+03  0.59470070524E+03  0.00000000000E+00 0. -1.
         22    1    3    3    0    0 -0.12694445088E+03  0.43264622240E+02  0.50400241739E+03  0.52154113729E+03  0.00000000000E+00 0.  1.
         22    1    3    3    0    0 -0.16616705612E+03  0.44633936737E+02  0.14572715233E+04  0.14673935980E+04  0.00000000000E+00 0.  1.
</event>
<event>
 7    1  0.2895750E-005  0.3440891E+03  0.7818608E-02  0.1136345E+00
          2   -1    0    0  502    0  0.00000000000E+00  0.00000000000E+00  0.65466268378E+03  0.65466268378E+03  0.00000000000E+00 0. -1.
          1   -1    0    0  501    0 -0.00000000000E+00 -0.00000000000E+00 -0.14124557196E+04  0.14124557196E+04  0.00000000000E+00 0. -1.
         25    2    1    2    0    0  0.35073573970E+03 -0.22301445756E+03  0.43858903542E+02  0.43622937085E+03  0.12498581197E+03 0.  0.
          2    1    1    2  501    0 -0.13512946030E+03 -0.19362578819E+02 -0.11481507561E+04  0.11562374493E+04  0.00000000000E+00 0. -1.
          1    1    1    2  502    0 -0.21560627939E+03  0.24237703638E+03  0.34649881671E+03  0.47465158322E+03  0.00000000000E+00 0. -1.
         22    1    3    3    0    0  0.86954933544E+02 -0.49863055688E+02 -0.42829281344E+02  0.10900381705E+03  0.00000000000E+00 0. -1.
         22    1    3    3    0    0  0.26378080615E+03 -0.17315140187E+03  0.86688184886E+02  0.32722555381E+03  0.00000000000E+00 0. -1.
</event>
<event>
 7    1  0.2895750E-005  0.5317616E+02  0.7818608E-02  0.1537739E+00
          2   -1    0    0  502    0  0.00000000000E+00  0.00000000000E+00  0.14175850283E+03  0.14175850283E+03  0.00000000000E+00 0. -1.
          1   -1    0    0  501    0 -0.00000000000E+00 -0.00000000000E+00 -0.10964481511E+04  0.10964481511E+04  0.00000000000E+00 0. -1.
         25    2    1    2    0    0  0.47337560171E+02 -0.76651196889E+01 -0.34892302400E+03  0.37372702925E+03  0.12500006822E+03 0.  0.
          2    1    1    2  501    0 -0.51337348520E+02 -0.16725935543E+02 -0.73294026314E+03  0.73492632937E+03  0.00000000000E+00 0. -1.
          1    1    1    2  502    0  0.39997883486E+01  0.24391055231E+02  0.12717363890E+03  0.12955329526E+03  0.00000000000E+00 0. -1.
         22    1    3    3    0    0  0.61057578261E+02 -0.56304074567E+02 -0.22868045048E+03  0.24329596196E+03  0.00000000000E+00 0. -1.
         22    1    3    3    0    0 -0.13720018090E+02  0.48638954878E+02 -0.12024257352E+03  0.13043106729E+03  0.00000000000E+00 0. -1.
</event>
<event>
 7    1  0.2895750E-005  0.8256791E+03  0.7818608E-02  0.1032323E+00
          2   -1    0    0  502    0  0.00000000000E+00  0.00000000000E+00  0.32512162155E+04  0.32512162155E+04  0.00000000000E+00 0. -1.
          1   -1    0    0  501    0 -0.00000000000E+00 -0.00000000000E+00 -0.37238993610E+03  0.37238993610E+03  0.00000000000E+00 0. -1.
         25    2    1    2    0    0 -0.72268585302E+02 -0.76889506360E+03  0.19074241334E+04  0.20616287996E+04  0.12499646224E+03 0.  0.
          2    1    1    2  501    0 -0.85313936731E+02 -0.21259193939E+03  0.18712553688E+03  0.29578669180E+03  0.00000000000E+00 0. -1.
          1    1    1    2  502    0  0.15758252203E+03  0.98148700299E+03  0.78427660912E+03  0.12661906602E+04  0.00000000000E+00 0. -1.
         22    1    3    3    0    0  0.11906158789E+02 -0.33816451745E+03  0.94831405449E+03  0.10068746414E+04  0.00000000000E+00 0. -1.
         22    1    3    3    0    0 -0.84174744091E+02 -0.43073054615E+03  0.95911007889E+03  0.10547541583E+04  0.00000000000E+00 0. -1.
</event>
<event>
 7    1  0.2895750E-005  0.3485525E+03  0.7818608E-02  0.1192763E+00
          2   -1    0    0  502    0  0.00000000000E+00  0.00000000000E+00  0.10918432605E+04  0.10918432605E+04  0.00000000000E+00 0. -1.
          1   -1    0    0  501    0 -0.00000000000E+00 -0.00000000000E+00 -0.83633052726E+03  0.83633052726E+03  0.00000000000E+00 0. -1.
         25    2    1    2    0    0  0.26675370885E+03 -0.13589017997E+03 -0.91083291230E+02  0.33696511183E+03  0.12500255379E+03 0.  0.
          2    1    1    2  501    0  0.28095447428E+02 -0.64359080502E+02 -0.58736562081E+03  0.59154866065E+03  0.00000000000E+00 0. -1.
          1    1    1    2  502    0 -0.29484915627E+03  0.20024926047E+03  0.93396164526E+03  0.99966001525E+03  0.00000000000E+00 0. -1.
         22    1    3    3    0    0  0.21085269930E+03 -0.65888413105E+02 -0.10784600579E+03  0.24582698133E+03  0.00000000000E+00 0. -1.
         22    1    3    3    0    0  0.55901009548E+02 -0.70001766862E+02  0.16762714561E+02  0.91138130503E+02  0.00000000000E+00 0. -1.
</event>
<event>
 7    1  0.2895750E-005  0.5286683E+03  0.7818608E-02  0.1159586E+00
          2   -1    0    0  502    0  0.00000000000E+00  0.00000000000E+00  0.33255113557E+04  0.33255113557E+04  0.00000000000E+00 0. -1.
          1   -1    0    0  501    0 -0.00000000000E+00 -0.00000000000E+00 -0.12657445269E+03  0.12657445269E+03  0.00000000000E+00 0. -1.
         25    2    1    2    0    0 -0.28673201966E+03 -0.48759989009E+03  0.12729021544E+04  0.13985254898E+04  0.12499898868E+03 0.  0.
          2    1    1    2  501    0 -0.14584620953E+01  0.67379539313E+02  0.66863450824E+01  0.67726188733E+02  0.00000000000E+00 0. -1.
          1    1    1    2  502    0  0.28819048175E+03  0.42022035078E+03  0.19193484035E+04  0.19858341298E+04  0.00000000000E+00 0. -1.
         22    1    3    3    0    0 -0.33001535026E+02 -0.16750985519E+03  0.38820161268E+03  0.42408624711E+03  0.00000000000E+00 0. -1.
         22    1    3    3    0    0 -0.25373048463E+03 -0.32009003490E+03  0.88470054171E+03  0.97443924273E+03  0.00000000000E+00 0. -1.
</event>
<event>
 7    1  0.2895750E-005  0.2499898E+03  0.7818608E-02  0.1123761E+00
          2   -1    0    0  502    0  0.00000000000E+00  0.00000000000E+00  0.18118879490E+04  0.18118879490E+04  0.00000000000E+00 0. -1.
          1   -1    0    0  501    0 -0.00000000000E+00 -0.00000000000E+00 -0.27830642538E+03  0.27830642538E+03  0.00000000000E+00 0. -1.
         25    2    1    2    0    0 -0.10302393591E+03 -0.36246834847E+02  0.45760419408E+03  0.48677928277E+03  0.12499882916E+03 0.  0.
          2    1    1    2  501    0  0.10981895152E+03  0.25543151607E+03 -0.17817869619E+03  0.33023190229E+03  0.00000000000E+00 0. -1.
          1    1    1    2  502    0 -0.67950156121E+01 -0.21918468122E+03  0.12541560258E+04  0.12731831894E+04  0.00000000000E+00 0. -1.
         22    1    3    3    0    0 -0.36730498169E+02 -0.67377296023E+02  0.12888927715E+03  0.15000425087E+03  0.00000000000E+00 0.  1.
         22    1    3    3    0    0 -0.66293437739E+02  0.31130461176E+02  0.32871491693E+03  0.33677503190E+03  0.00000000000E+00 0.  1.
</event>
<event>
 7    1  0.2895750E-005  0.1155317E+03  0.7818608E-02  0.1302399E+00
          2   -1    0    0  502    0  0.00000000000E+00  0.00000000000E+00  0.13664356219E+02  0.13664356219E+02  0.00000000000E+00 0. -1.
          1   -1    0    0  501    0 -0.00000000000E+00 -0.00000000000E+00 -0.30031590895E+04  0.30031590895E+04  0.00000000000E+00 0. -1.
         25    2    1    2    0    0 -0.58674025212E+02 -0.14012128288E+03 -0.10498969907E+04  0.10681671804E+04  0.12498327481E+03 0.  0.
          2    1    1    2  501    0 -0.47772801177E+01  0.10961722083E+03 -0.14323166487E+04  0.14365130489E+04  0.00000000000E+00 0. -1.
          1    1    1    2  502    0  0.63451305330E+02  0.30504062053E+02 -0.50728109383E+03  0.51214321640E+03  0.00000000000E+00 0. -1.
         22    1    3    3    0    0 -0.76129221575E+02 -0.49059294378E+02 -0.71353485956E+03  0.71925966699E+03  0.00000000000E+00 0.  1.
         22    1    3    3    0    0  0.17455196363E+02 -0.91061988504E+02 -0.33636213112E+03  0.34890751337E+03  0.00000000000E+00 0.  1.
</event>
<event>
 7    1  0.2895750E-005  0.3206977E+03  0.7818608E-02  0.1124887E+00
          2   -1    0    0  502    0  0.00000000000E+00  0.00000000000E+00  0.52847570640E+03  0.52847570640E+03  0.00000000000E+00 0. -1.
          1   -1    0    0  501    0 -0.00000000000E+00 -0.00000000000E+00 -0.35535922235E+03  0.35535922235E+03  0.00000000000E+00 0. -1.
         25    2    1    2    0    0 -0.32829950716E+03  0.15822370441E+03 -0.10692600978E+02  0.38542869999E+03  0.12500257605E+03 0.  0.
          2    1    1    2  501    0  0.17231231540E+03 -0.22212957778E+03  0.17167089669E+03  0.32939942340E+03  0.00000000000E+00 0. -1.
          1    1    1    2  502    0  0.15598719176E+03  0.63905873370E+02  0.12138188332E+02  0.16900680536E+03  0.00000000000E+00 0. -1.
         22    1    3    3    0    0 -0.19862303008E+03  0.16081384982E+03 -0.54594361807E+01  0.25562082821E+03  0.00000000000E+00 0. -1.
         22    1    3    3    0    0 -0.12967647708E+03 -0.25901454116E+01 -0.52331647976E+01  0.12980787178E+03  0.00000000000E+00 0. -1.
</event>
<event>
 7    1  0.2895750E-005  0.6705780E+02  0.7818608E-02  0.1398606E+00
          2   -1    0    0  502    0  0.00000000000E+00  0.00000000000E+00  0.56316405750E+03  0.56316405750E+03  0.00000000000E+00 0. -1.
          1   -1    0    0  501    0 -0.00000000000E+00 -0.00000000000E+00 -0.78172313781E+03  0.78172313781E+03  0.00000000000E+00 0. -1.
         25    2    1    2    0    0  0.67834113016E+02 -0.40246207885E+02 -0.26602955222E+03  0.30433146297E+03  0.12499877023E+03 0.  0.
          2    1    1    2  501    0 -0.47755141633E+02 -0.23797546061E+02 -0.49302761615E+03  0.49590634905E+03  0.00000000000E+00 0. -1.
          1    1    1    2  502    0 -0.20078971384E+02  0.64043753946E+02  0.54049808806E+03  0.54464938328E+03  0.00000000000E+00 0. -1.
         22    1    3    3    0    0  0.55252268032E+02 -0.82593659906E+02 -0.21488571406E+03  0.23674964812E+03  0.00000000000E+00 0. -1.
         22    1    3    3    0    0  0.12581844985E+02  0.42347452021E+02 -0.51143838165E+02  0.67581814847E+02  0.00000000000E+00 0. -1.
</event>
<event>
 7    1  0.2895750E-005  0.2510455E+03  0.7818608E-02  0.1158997E+00
          2   -1    0    0  502    0  0.00000000000E+00  0.00000000000E+00  0.85314190120E+03  0.85314190120E+03  0.00000000000E+00 0. -1.
          1   -1    0    0  501    0 -0.00000000000E+00 -0.00000000000E+00 -0.12203117313E+04  0.12203117313E+04  0.00000000000E+00 0. -1.
         25    2    1    2    0    0 -0.13544611790E+03  0.22429149189E+03  0.24038266370E+03  0.37691020589E+03  0.12500061641E+03 0.  0.
          2    1    1    2  501    0  0.13874310255E+03  0.34226286826E+02 -0.11165452920E+04  0.11256529111E+04  0.00000000000E+00 0. -1.
          1    1    1    2  502    0 -0.32969846550E+01 -0.25851777872E+03  0.50899279822E+03  0.57089051547E+03  0.00000000000E+00 0. -1.
         22    1    3    3    0    0 -0.41447629322E+02  0.77615343359E+02  0.16519360242E+03  0.18716563195E+03  0.00000000000E+00 0.  1.
         22    1    3    3    0    0 -0.93998488574E+02  0.14667614853E+03  0.75189061280E+02  0.18974457394E+03  0.00000000000E+00 0.  1.
</event>
<event>
 7    1  0.2895750E-005  0.2502180E+03  0.7818608E-02  0.1189874E+00
          2   -1    0    0  502    0  0.00000000000E+00  0.00000000000E+00  0.26243060529E+03  0.26243060529E+03  0.00000000000E+00 0. -1.
          1   -1    0    0  501    0 -0.00000000000E+00 -0.00000000000E+00 -0.56210982123E+03  0.56210982123E+03  0.00000000000E+00 0. -1.
         25    2    1    2    0    0 -0.16144146488E+03 -0.55413948091E+02  0.13152839552E+03  0.24911620629E+03  0.12500045272E+03 0.  0.
          2    1    1    2  501    0  0.24248641562E+03  0.11566415150E+03 -0.37029476147E+03  0.45748887208E+03  0.00000000000E+00 0. -1.
          1    1    1    2  502    0 -0.81044950737E+02 -0.60250203411E+02 -0.60912849985E+02  0.11793534816E+03  0.00000000000E+00 0. -1.
         22    1    3    3    0    0 -0.10924595214E+03 -0.61319245080E+02  0.21388278441E+02  0.12709125198E+03  0.00000000000E+00 0.  1.
         22    1    3    3    0    0 -0.52195512740E+02  0.59052969888E+01  0.11014011708E+03  0.12202495430E+03  0.00000000000E+00 0.  1.
</event>
<event>
 7    1  0.3461312E-005  0.1083002E+03  0.7818608E-02  0.1278835E+00
          2   -1    0    0  502    0  0.00000000000E+00  0.00000000000E+00  0.18585620431E+04  0.18585620431E+04  0.00000000000E+00 0. -1.
          1   -1    0    0  501    0 -0.00000000000E+00 -0.00000000000E+00 -0.45787356878E+03  0.45787356878E+03  0.00000000000E+00 0. -1.
         25    2    1    2    0    0 -0.11042582705E+03 -0.78012466121E+02 -0.21084806432E+02  0.18533537424E+03  0.12499929493E+03 0.  0.
          2    1    1    2  501    0  0.30943095298E+01  0.93578251812E+02 -0.34679384137E+03  0.35921084668E+03  0.00000000000E+00 0. -1.
          1    1    1    2  502    0  0.10733151752E+03 -0.15565785691E+02  0.17685671221E+04  0.17718893909E+04  0.00000000000E+00 0. -1.
         22    1    3    3    0    0 -0.32812975018E+01 -0.63174932808E+02 -0.40952641758E+02  0.75358860896E+02  0.00000000000E+00 0. -1.
         22    1    3    3    0    0 -0.10714452955E+03 -0.14837533313E+02  0.19867835326E+02  0.10997651335E+03  0.00000000000E+00 0. -1.
</event>
<event>
 7    1  0.2895750E-005  0.9075674E+03  0.7818608E-02  0.1054205E+00
          2   -1    0    0  502    0  0.00000000000E+00  0.00000000000E+00  0.18506409966E+04  0.18506409966E+04  0.00000000000E+00 0. -1.
          1   -1    0    0  501    0 -0.00000000000E+00 -0.00000000000E+00 -0.92197694026E+03  0.92197694026E+03  0.00000000000E+00 0. -1.
         25    2    1    2    0    0 -0.64248447363E+03 -0.71738738587E+03  0.22689328198E+03  0.99726480796E+03  0.12500230206E+03 0.  0.
          2    1    1    2  501    0  0.49095290452E+03  0.72776408573E+03 -0.16681306122E+03  0.89358934435E+03  0.00000000000E+00 0. -1.
          1    1    1    2  502    0  0.15153156911E+03 -0.10376699857E+02  0.86858383556E+03  0.88176378455E+03  0.00000000000E+00 0. -1.
         22    1    3    3    0    0 -0.22153461114E+03 -0.33511473082E+03  0.74430167043E+02  0.40855760488E+03  0.00000000000E+00 0.  1.
         22    1    3    3    0    0 -0.42094986250E+03 -0.38227265505E+03  0.15246311494E+03  0.58870720307E+03  0.00000000000E+00 0.  1.
</event>
<event>
 7    1  0.2895750E-005  0.1915821E+03  0.7818608E-02  0.1161458E+00
          2   -1    0    0  502    0  0.00000000000E+00  0.00000000000E+00  0.25555915679E+03  0.25555915679E+03  0.00000000000E+00 0. -1.
          1   -1    0    0  501    0 -0.00000000000E+00 -0.00000000000E+00 -0.51950449082E+03  0.51950449082E+03  0.00000000000E+00 0. -1.
         25    2    1    2    0    0  0.13606409877E+03 -0.14553831424E+03 -0.18979519253E+03  0.30222881507E+03  0.12500080667E+03 0.  0.
          2    1    1    2  501    0 -0.22432875209E+03 -0.13594634771E+02 -0.15571958434E+03  0.27341688327E+03  0.00000000000E+00 0. -1.
          1    1    1    2  502    0  0.88264653323E+02  0.15913294901E+03  0.81569442840E+02  0.19941794927E+03  0.00000000000E+00 0. -1.
         22    1    3    3    0    0  0.51239632400E+02 -0.13349544766E+03 -0.83071158989E+02  0.16537034779E+03  0.00000000000E+00 0.  1.
         22    1    3    3    0    0  0.84824466371E+02 -0.12042866579E+02 -0.10672403354E+03  0.13685846728E+03  0.00000000000E+00 0.  1.
</event>
<event>
 7    1  0.2895750E-005  0.5493837E+02  0.7818608E-02  0.1498047E+00
          2   -1    0    0  502    0  0.00000000000E+00  0.00000000000E+00  0.39231688381E+03  0.39231688381E+03  0.00000000000E+00 0. -1.
          1   -1    0    0  501    0 -0.00000000000E+00 -0.00000000000E+00 -0.86895576275E+03  0.86895576275E+03  0.00000000000E+00 0. -1.
         25    2    1    2    0    0  0.24138373024E+02 -0.24075253925E+02  0.18688632353E+03  0.22740623320E+03  0.12499927229E+03 0.  0.
          2    1    1    2  501    0  0.48440579417E+00 -0.31217334234E+02 -0.84345307752E+03  0.84403071661E+03  0.00000000000E+00 0. -1.
          1    1    1    2  502    0 -0.24622778819E+02  0.55292588158E+02  0.17992787505E+03  0.18983569675E+03  0.00000000000E+00 0. -1.
         22    1    3    3    0    0 -0.42983015901E+02  0.60704711198E+01  0.12131772322E+03  0.12885022407E+03  0.00000000000E+00 0. -1.
         22    1    3    3    0    0  0.67121388926E+02 -0.30145725044E+02  0.65568600304E+02  0.98556009130E+02  0.00000000000E+00 0. -1.
</event>
<event>
 7    1  0.2895750E-005  0.4461240E+02  0.7818608E-02  0.1558949E+00
          2   -1    0    0  502    0  0.00000000000E+00  0.00000000000E+00  0.20718735791E+03  0.20718735791E+03  0.00000000000E+00 0. -1.
          1   -1    0    0  501    0 -0.00000000000E+00 -0.00000000000E+00 -0.62621693673E+03  0.62621693673E+03  0.00000000000E+00 0. -1.
         25    2    1    2    0    0  0.43915943727E+02  0.51984490514E+02 -0.31849390875E+03  0.34884759817E+03  0.12500111787E+03 0.  0.
          2    1    1    2  501    0 -0.21966376845E+02 -0.13343346253E+02 -0.28939764365E+03  0.29053668056E+03  0.00000000000E+00 0. -1.
          1    1    1    2  502    0 -0.21949566882E+02 -0.38641144261E+02  0.18886197357E+03  0.19402001592E+03  0.00000000000E+00 0. -1.
         22    1    3    3    0    0  0.53699452311E+02 -0.10771830762E+02 -0.24793700829E+03  0.25391420518E+03  0.00000000000E+00 0.  1.
         22    1    3    3    0    0 -0.97835085840E+01  0.62756321276E+02 -0.70556900462E+02  0.94933392982E+02  0.00000000000E+00 0.  1.
</event>
<event>
 7    1  0.2895750E-005  0.1558711E+03  0.7818608E-02  0.1196402E+00
          2   -1    0    0  502    0  0.00000000000E+00  0.00000000000E+00  0.47409035735E+04  0.47409035735E+04  0.00000000000E+00 0. -1.
          1   -1    0    0  501    0 -0.00000000000E+00 -0.00000000000E+00 -0.12669221945E+03  0.12669221945E+03  0.00000000000E+00 0. -1.
         25    2    1    2    0    0  0.85139945452E+02 -0.11918252277E+03  0.42961934489E+03  0.47079774249E+03  0.12499779510E+03 0.  0.
          2    1    1    2  501    0 -0.15991718905E+03 -0.17580681563E+02 -0.42845277008E+02  0.16648815418E+03  0.00000000000E+00 0. -1.
          1    1    1    2  502    0  0.74777243603E+02  0.13676320433E+03  0.42274372862E+04  0.42303098963E+04  0.00000000000E+00 0. -1.
         22    1    3    3    0    0  0.16207429562E+02 -0.98272897642E+02  0.13660948255E+03  0.16906328373E+03  0.00000000000E+00 0.  1.
         22    1    3    3    0    0  0.68932515889E+02 -0.20909625129E+02  0.29300986234E+03  0.30173445875E+03  0.00000000000E+00 0.  1.
</event>
<event>
 7    1  0.2895750E-005  0.7041675E+03  0.7818608E-02  0.9890710E-01
          2   -1    0    0  502    0  0.00000000000E+00  0.00000000000E+00  0.12810937628E+04  0.12810937628E+04  0.00000000000E+00 0. -1.
          1   -1    0    0  501    0 -0.00000000000E+00 -0.00000000000E+00 -0.20165088464E+04  0.20165088464E+04  0.00000000000E+00 0. -1.
         25    2    1    2    0    0 -0.25718483692E+03 -0.99072966441E+03 -0.42493292686E+03  0.11152948694E+04  0.12500138054E+03 0.  0.
          2    1    1    2  501    0 -0.18274220088E+03  0.49054237114E+03 -0.10583870109E+04  0.11807665285E+04  0.00000000000E+00 0. -1.
          1    1    1    2  502    0  0.43992703780E+03  0.50018729327E+03  0.74790485424E+03  0.10015412113E+04  0.00000000000E+00 0. -1.
         22    1    3    3    0    0 -0.17939218180E+03 -0.59789249157E+03 -0.19734628097E+03  0.65467743277E+03  0.00000000000E+00 0.  1.
         22    1    3    3    0    0 -0.77792655119E+02 -0.39283717284E+03 -0.22758664589E+03  0.46061743665E+03  0.00000000000E+00 0.  1.
</event>
<event>
 7    1  0.2895750E-005  0.8751774E+02  0.7818608E-02  0.1436924E+00
          2   -1    0    0  502    0  0.00000000000E+00  0.00000000000E+00  0.23002689854E+03  0.23002689854E+03  0.00000000000E+00 0. -1.
          1   -1    0    0  501    0 -0.00000000000E+00 -0.00000000000E+00 -0.20237893453E+04  0.20237893453E+04  0.00000000000E+00 0. -1.
         25    2    1    2    0    0  0.18018717749E+01  0.58478340975E+02 -0.66609688522E+03  0.68024510667E+03  0.12500152616E+03 0.  0.
          2    1    1    2  501    0  0.10478154356E+02  0.28555438139E+02 -0.13417763771E+04  0.13421211014E+04  0.00000000000E+00 0. -1.
          1    1    1    2  502    0 -0.12280026131E+02 -0.87033779114E+02  0.21411081551E+03  0.23145003579E+03  0.00000000000E+00 0. -1.
         22    1    3    3    0    0  0.90664255082E+01  0.81398347777E+02 -0.24232166843E+03  0.25578835408E+03  0.00000000000E+00 0.  1.
         22    1    3    3    0    0 -0.72645537333E+01 -0.22920006801E+02 -0.42377521679E+03  0.42445675259E+03  0.00000000000E+00 0.  1.
</event>
<event>
 7    1  0.2895750E-005  0.2677327E+03  0.7818608E-02  0.1185409E+00
          2   -1    0    0  502    0  0.00000000000E+00  0.00000000000E+00  0.10871659260E+04  0.10871659260E+04  0.00000000000E+00 0. -1.
          1   -1    0    0  501    0 -0.00000000000E+00 -0.00000000000E+00 -0.14142609329E+04  0.14142609329E+04  0.00000000000E+00 0. -1.
         25    2    1    2    0    0  0.35088261702E+03 -0.38511375396E+02 -0.29330120119E+02  0.37561534517E+03  0.12499957848E+03 0.  0.
          2    1    1    2  501    0 -0.26096875117E+03 -0.33309122048E+01 -0.11949714948E+04  0.12231404897E+04  0.00000000000E+00 0. -1.
          1    1    1    2  502    0 -0.89913865848E+02  0.41842287600E+02  0.89720660799E+03  0.90267102408E+03  0.00000000000E+00 0. -1.
         22    1    3    3    0    0  0.25782242751E+03 -0.13107212143E+02  0.33755906769E+02  0.26035296115E+03  0.00000000000E+00 0. -1.
         22    1    3    3    0    0  0.93060189508E+02 -0.25404163253E+02 -0.63086026888E+02  0.11526238402E+03  0.00000000000E+00 0. -1.
</event>
<event>
 7    1  0.2895750E-005  0.1142217E+03  0.7818608E-02  0.1336542E+00
          2   -1    0    0  502    0  0.00000000000E+00  0.00000000000E+00  0.11199715429E+04  0.11199715429E+04  0.00000000000E+00 0. -1.
          1   -1    0    0  501    0 -0.00000000000E+00 -0.00000000000E+00 -0.65133183797E+03  0.65133183797E+03  0.00000000000E+00 0. -1.
         25    2    1    2    0    0 -0.11703176324E+03 -0.90323044000E+02 -0.26096348905E+02  0.19534545735E+03  0.12499656953E+03 0.  0.
          2    1    1    2  501    0  0.64582068258E+02  0.91899581991E+02 -0.53410075992E+03  0.54578383858E+03  0.00000000000E+00 0. -1.
          1    1    1    2  502    0  0.52449694979E+02 -0.15765379908E+01  0.10288368137E+04  0.10301740849E+04  0.00000000000E+00 0. -1.
         22    1    3    3    0    0  0.11023227865E+02 -0.44170100929E+01  0.29205750711E+02  0.31527724392E+02  0.00000000000E+00 0.  1.
         22    1    3    3    0    0 -0.12805499110E+03 -0.85906033907E+02 -0.55302099616E+02  0.16381773295E+03  0.00000000000E+00 0.  1.
</event>
<event>
 7    1  0.2895750E-005  0.1415755E+03  0.7818608E-02  0.1323541E+00
          2   -1    0    0  502    0  0.00000000000E+00  0.00000000000E+00  0.17727532507E+04  0.17727532507E+04  0.00000000000E+00 0. -1.
          1   -1    0    0  501    0 -0.00000000000E+00 -0.00000000000E+00 -0.15965294186E+04  0.15965294186E+04  0.00000000000E+00 0. -1.
         25    2    1    2    0    0 -0.37945343704E+02 -0.17684166399E+03 -0.29480988018E+02  0.22182688249E+03  0.12500085564E+03 0.  0.
          2    1    1    2  501    0 -0.12947155052E+02  0.45664027995E+02 -0.14675390474E+04  0.14683064013E+04  0.00000000000E+00 0. -1.
          1    1    1    2  502    0  0.50892498756E+02  0.13117763599E+03  0.16732438675E+04  0.16791493855E+04  0.00000000000E+00 0. -1.
         22    1    3    3    0    0 -0.65122060088E+02 -0.14841380026E+03  0.14627521801E+02  0.16273138361E+03  0.00000000000E+00 0. -1.
         22    1    3    3    0    0  0.27176716384E+02 -0.28427863726E+02 -0.44108509819E+02  0.59095498880E+02  0.00000000000E+00 0. -1.
</event>
<event>
 7    1  0.2895750E-005  0.6809283E+03  0.7818608E-02  0.1075392E+00
          2   -1    0    0  502    0  0.00000000000E+00  0.00000000000E+00  0.26099204933E+04  0.26099204933E+04  0.00000000000E+00 0. -1.
          1   -1    0    0  501    0 -0.00000000000E+00 -0.00000000000E+00 -0.69289353121E+03  0.69289353121E+03  0.00000000000E+00 0. -1.
         25    2    1    2    0    0  0.20277476040E+03  0.59714341289E+03  0.13595412483E+04  0.15038867777E+04  0.12500070133E+03 0.  0.
          2    1    1    2  501    0  0.10199034283E+03  0.11122885751E+03 -0.48174878814E+03  0.50483243126E+03  0.00000000000E+00 0. -1.
          1    1    1    2  502    0 -0.30476510323E+03 -0.70837227040E+03  0.10392345019E+04  0.12940948155E+04  0.00000000000E+00 0. -1.
         22    1    3    3    0    0  0.11019670862E+03  0.29654834197E+03  0.53699190478E+03  0.62325319054E+03  0.00000000000E+00 0. -1.
         22    1    3    3    0    0  0.92578051782E+02  0.30059507091E+03  0.82254934354E+03  0.88063358719E+03  0.00000000000E+00 0. -1.
</event>
<event>
 7    1  0.2895750E-005  0.2502274E+03  0.7818608E-02  0.1153208E+00
          2   -1    0    0  502    0  0.00000000000E+00  0.00000000000E+00  0.20363887290E+04  0.20363887290E+04  0.00000000000E+00 0. -1.
          1   -1    0    0  501    0 -0.00000000000E+00 -0.00000000000E+00 -0.92240658969E+03  0.92240658969E+03  0.00000000000E+00 0. -1.
         25    2    1    2    0    0 -0.36314789572E+03  0.11520791982E+03  0.43941906358E+03  0.59486459025E+03  0.12500203333E+03 0.  0.
          2    1    1    2  501    0  0.24546303564E+03 -0.16757093615E+02 -0.82276398441E+03  0.85876275892E+03  0.00000000000E+00 0. -1.
          1    1    1    2  502    0  0.11768486008E+03 -0.98450826210E+02  0.14973270602E+04  0.15051679695E+04  0.00000000000E+00 0. -1.
         22    1    3    3    0    0 -0.48130000167E+02  0.55790329909E+02  0.43986907535E+02  0.85813203308E+02  0.00000000000E+00 0.  1.
         22    1    3    3    0    0 -0.31501789555E+03  0.59417589915E+02  0.39543215605E+03  0.50905138694E+03  0.00000000000E+00 0.  1.
</event>
<event>
 7    1  0.2895750E-005  0.7765441E+02  0.7818608E-02  0.1497721E+00
          2   -1    0    0  502    0  0.00000000000E+00  0.00000000000E+00  0.10974708752E+04  0.10974708752E+04  0.00000000000E+00 0. -1.
          1   -1    0    0  501    0 -0.00000000000E+00 -0.00000000000E+00 -0.67516048106E+03  0.67516048106E+03  0.00000000000E+00 0. -1.
         25    2    1    2    0    0  0.93053127006E+02 -0.31695552425E+02  0.11655479729E+03  0.19716437037E+03  0.12500110273E+03 0.  0.
          2    1    1    2  501    0 -0.18880999661E+02  0.11557908700E+02 -0.63309190786E+03  0.63347884038E+03  0.00000000000E+00 0. -1.
          1    1    1    2  502    0 -0.74172127345E+02  0.20137643725E+02  0.93884750476E+03  0.94198814556E+03  0.00000000000E+00 0. -1.
         22    1    3    3    0    0  0.21230133446E+02 -0.56481043137E+02  0.10388328912E+03  0.12013560903E+03  0.00000000000E+00 0. -1.
         22    1    3    3    0    0  0.71822993560E+02  0.24785490712E+02  0.12671508171E+02  0.77028761337E+02  0.00000000000E+00 0. -1.
</event>
<event>
 7    1  0.2895750E-005  0.4676483E+02  0.7818608E-02  0.1549223E+00
          2   -1    0    0  502    0  0.00000000000E+00  0.00000000000E+00  0.12807099121E+04  0.12807099121E+04  0.00000000000E+00 0. -1.
          1   -1    0    0  501    0 -0.00000000000E+00 -0.00000000000E+00 -0.29067514266E+03  0.29067514266E+03  0.00000000000E+00 0. -1.
         25    2    1    2    0    0 -0.26654784385E+02 -0.11957995302E+02  0.35677148415E+03  0.37916134035E+03  0.12499583566E+03 0.  0.
          2    1    1    2  501    0 -0.21172313684E+02  0.15245841080E+02 -0.27824003029E+03  0.27946058218E+03  0.00000000000E+00 0. -1.
          1    1    1    2  502    0  0.47827098069E+02 -0.32878457784E+01  0.91150331554E+03  0.91276313219E+03  0.00000000000E+00 0. -1.
         22    1    3    3    0    0 -0.51155895850E+01  0.40367466852E+02  0.38901383915E+02  0.56294043267E+02  0.00000000000E+00 0.  1.
         22    1    3    3    0    0 -0.21539194800E+02 -0.52325462154E+02  0.31787010024E+03  0.32286729709E+03  0.00000000000E+00 0.  1.
</event>
<event>
 7    1  0.2895750E-005  0.1678801E+03  0.7818608E-02  0.1322639E+00
          2   -1    0    0  502    0  0.00000000000E+00  0.00000000000E+00  0.50875592649E+03  0.50875592649E+03  0.00000000000E+00 0. -1.
          1   -1    0    0  501    0 -0.00000000000E+00 -0.00000000000E+00 -0.76556405730E+03  0.76556405730E+03  0.00000000000E+00 0. -1.
         25    2    1    2    0    0  0.17792285818E+03  0.88699441227E+02  0.13414692491E+03  0.27045294183E+03  0.12500104778E+03 0.  0.
          2    1    1    2  501    0 -0.34889574843E+02 -0.20267723530E+02 -0.67625958407E+03  0.67746224109E+03  0.00000000000E+00 0. -1.
          1    1    1    2  502    0 -0.14303328334E+03 -0.68431717697E+02  0.28530452836E+03  0.32640480087E+03  0.00000000000E+00 0. -1.
         22    1    3    3    0    0 -0.90746814831E+01 -0.37970914072E+01  0.40673848878E+02  0.41846502001E+02  0.00000000000E+00 0.  1.
         22    1    3    3    0    0  0.18699753966E+03  0.92496532634E+02  0.93473076030E+02  0.22860643983E+03  0.00000000000E+00 0.  1.
</event>
<event>
 7    1  0.2895750E-005  0.6053215E+02  0.7818608E-02  0.1406101E+00
          2   -1    0    0  502    0  0.00000000000E+00  0.00000000000E+00  0.15813211086E+04  0.15813211086E+04  0.00000000000E+00 0. -1.
          1   -1    0    0  501    0 -0.00000000000E+00 -0.00000000000E+00 -0.12858867684E+04  0.12858867684E+04  0.00000000000E+00 0. -1.
         25    2    1    2    0    0  0.94050112236E+02 -0.64343001010E+02  0.10573114038E+04  0.10707560676E+04  0.12500282469E+03 0.  0.
          2    1    1    2  501    0 -0.42608462431E+02  0.42947342507E+02 -0.12769460721E+04  0.12783783581E+04  0.00000000000E+00 0. -1.
          1    1    1    2  502    0 -0.51441649805E+02  0.21395658503E+02  0.51506900849E+03  0.51807345140E+03  0.00000000000E+00 0. -1.
         22    1    3    3    0    0  0.38119656271E+02 -0.96868747680E+02  0.61812811429E+03  0.62683253597E+03  0.00000000000E+00 0.  1.
         22    1    3    3    0    0  0.55930455965E+02  0.32525746670E+02  0.43918328952E+03  0.44392353159E+03  0.00000000000E+00 0.  1.
</event>
<event>
 7    1  0.2895750E-005  0.1410871E+03  0.7818608E-02  0.1292549E+00
          2   -1    0    0  502    0  0.00000000000E+00  0.00000000000E+00  0.20399036083E+03  0.20399036083E+03  0.00000000000E+00 0. -1.
          1   -1    0    0  501    0 -0.00000000000E+00 -0.00000000000E+00 -0.13955239147E+04  0.13955239147E+04  0.00000000000E+00 0. -1.
         25    2    1    2    0    0 -0.18328371774E+03 -0.11560568552E+02 -0.68972913673E+03  0.72462214700E+03  0.12499762371E+03 0.  0.
          2    1    1    2  501    0  0.46934321286E+02  0.42254279683E+02 -0.66045110420E+03  0.66346357527E+03  0.00000000000E+00 0. -1.
          1    1    1    2  502    0  0.13634939645E+03 -0.30693711131E+02  0.15864668707E+03  0.21142855326E+03  0.00000000000E+00 0. -1.
         22    1    3    3    0    0 -0.52997530211E+02 -0.30510708841E+02 -0.79214138963E+02  0.10007258053E+03  0.00000000000E+00 0.  1.
         22    1    3    3    0    0 -0.13028618753E+03  0.18950140289E+02 -0.61051499776E+03  0.62454956647E+03  0.00000000000E+00 0.  1.
</event>
<event>
 7    1  0.2895750E-005  0.5383054E+02  0.7818608E-02  0.1467550E+00
          2   -1    0    0  502    0  0.00000000000E+00  0.00000000000E+00  0.73596362933E+03  0.73596362933E+03  0.00000000000E+00 0. -1.
          1   -1    0    0  501    0 -0.00000000000E+00 -0.00000000000E+00 -0.12171875761E+04  0.12171875761E+04  0.00000000000E+00 0. -1.
         25    2    1    2    0    0  0.41894077300E+02 -0.40128952146E+02  0.52784807750E+03  0.54553987302E+03  0.12499885446E+03 0.  0.
          2    1    1    2  501    0 -0.36151648020E+02 -0.15892539180E+02 -0.12040327224E+04  0.12046801696E+04  0.00000000000E+00 0. -1.
          1    1    1    2  502    0 -0.57424292800E+01  0.56021491326E+02  0.19496069817E+03  0.20293116275E+03  0.00000000000E+00 0. -1.
         22    1    3    3    0    0 -0.33090595361E+02 -0.50937611772E+02  0.19823861799E+03  0.20733590489E+03  0.00000000000E+00 0.  1.
         22    1    3    3    0    0  0.74984672661E+02  0.10808659626E+02  0.32960945951E+03  0.33820396813E+03  0.00000000000E+00 0.  1.
</event>
<event>
 7    1  0.2895750E-005  0.5582771E+03  0.7818608E-02  0.1102234E+00
          2   -1    0    0  502    0  0.00000000000E+00  0.00000000000E+00  0.16684061465E+04  0.16684061465E+04  0.00000000000E+00 0. -1.
          1   -1    0    0  501    0 -0.00000000000E+00 -0.00000000000E+00 -0.27859596607E+03  0.27859596607E+03  0.00000000000E+00 0. -1.
         25    2    1    2    0    0  0.30987843376E+03 -0.51966171026E+03  0.62205725335E+03  0.87672849546E+03  0.12499876594E+03 0.  0.
          2    1    1    2  501    0 -0.18260427961E+03  0.49875952027E+03  0.35755027050E+03  0.64027148767E+03  0.00000000000E+00 0. -1.
          1    1    1    2  502    0 -0.12727415415E+03  0.20902189990E+02  0.41020265654E+03  0.43000212941E+03  0.00000000000E+00 0. -1.
         22    1    3    3    0    0  0.93125474640E+02 -0.64194946787E+02  0.10361422381E+03  0.15339247894E+03  0.00000000000E+00 0.  1.
         22    1    3    3    0    0  0.21675295912E+03 -0.45546676347E+03  0.51844302954E+03  0.72333601652E+03  0.00000000000E+00 0.  1.
</event>
<event>
 7    1  0.2895750E-005  0.1055679E+03  0.7818608E-02  0.1416283E+00
          2   -1    0    0  502    0  0.00000000000E+00  0.00000000000E+00  0.82109403448E+03  0.82109403448E+03  0.00000000000E+00 0. -1.
          1   -1    0    0  501    0 -0.00000000000E+00 -0.00000000000E+00 -0.28559608632E+03  0.28559608632E+03  0.00000000000E+00 0. -1.
         25    2    1    2    0    0 -0.75786991405E+02  0.10923734095E+03  0.14214453898E+03  0.23133254640E+03  0.12503284502E+03 0.  0.
          2    1    1    2  501    0  0.63060839198E+02 -0.82612277634E+02 -0.22943169805E+03  0.25187370233E+03  0.00000000000E+00 0. -1.
          1    1    1    2  502    0  0.12726152207E+02 -0.26625063320E+02  0.62278510722E+03  0.62348387207E+03  0.00000000000E+00 0. -1.
         22    1    3    3    0    0 -0.34925242545E+02  0.11896748366E+03  0.14306755146E+03  0.18931814233E+03  0.00000000000E+00 0. -1.
         22    1    3    3    0    0 -0.40861748861E+02 -0.97301427085E+01 -0.92301247119E+00  0.42014404067E+02  0.00000000000E+00 0. -1.
</event>
<event>
 7    1  0.2895750E-005  0.1356163E+03  0.7818608E-02  0.1430876E+00
          2   -1    0    0  502    0  0.00000000000E+00  0.00000000000E+00  0.17956305341E+04  0.17956305341E+04  0.00000000000E+00 0. -1.
          1   -1    0    0  501    0 -0.00000000000E+00 -0.00000000000E+00 -0.75995614538E+03  0.75995614538E+03  0.00000000000E+00 0. -1.
         25    2    1    2    0    0  0.13070276743E+03  0.84107462262E+02  0.35527033749E+03  0.40742905753E+03  0.12499658236E+03 0.  0.
          2    1    1    2  501    0 -0.11166041642E+03 -0.76395232311E+02 -0.72756573146E+03  0.74003795424E+03  0.00000000000E+00 0. -1.
          1    1    1    2  502    0 -0.19042351007E+02 -0.77122299508E+01  0.14079697827E+04  0.14081196677E+04  0.00000000000E+00 0. -1.
         22    1    3    3    0    0  0.94807933265E+02  0.49024510858E+02  0.96672529182E+02  0.14400529425E+03  0.00000000000E+00 0. -1.
         22    1    3    3    0    0  0.35894834165E+02  0.35082951404E+02  0.25859780830E+03  0.26342376328E+03  0.00000000000E+00 0. -1.
</event>
<event>
 7    1  0.2895750E-005  0.2286354E+03  0.7818608E-02  0.1254397E+00
          2   -1    0    0  502    0  0.00000000000E+00  0.00000000000E+00  0.83230871602E+03  0.83230871602E+03  0.00000000000E+00 0. -1.
          1   -1    0    0  501    0 -0.00000000000E+00 -0.00000000000E+00 -0.22325059241E+04  0.22325059241E+04  0.00000000000E+00 0. -1.
         25    2    1    2    0    0  0.12790477936E+03  0.12122473243E+03 -0.10886886322E+04  0.11099187708E+04  0.12498668569E+03 0.  0.
          2    1    1    2  501    0  0.23562825169E+02  0.51073045161E+02 -0.11164681128E+04  0.11178840322E+04  0.00000000000E+00 0. -1.
          1    1    1    2  502    0 -0.15146760453E+03 -0.17229777759E+03  0.80495953689E+03  0.83701183708E+03  0.00000000000E+00 0. -1.
         22    1    3    3    0    0 -0.22092678449E+02  0.24540895597E+02 -0.26962537276E+03  0.27163980495E+03  0.00000000000E+00 0.  1.
         22    1    3    3    0    0  0.14999745781E+03  0.96683836829E+02 -0.81906325946E+03  0.83827896589E+03  0.00000000000E+00 0.  1.
</event>
<event>
 7    1  0.2895750E-005  0.2100998E+03  0.7818608E-02  0.1284229E+00
          2   -1    0    0  502    0  0.00000000000E+00  0.00000000000E+00  0.10620205580E+03  0.10620205580E+03  0.00000000000E+00 0. -1.
          1   -1    0    0  501    0 -0.00000000000E+00 -0.00000000000E+00 -0.16258565452E+04  0.16258565452E+04  0.00000000000E+00 0. -1.
         25    2    1    2    0    0  0.12983368374E+03 -0.20350998456E+03 -0.47087842491E+03  0.54371559612E+03  0.12500823641E+03 0.  0.
          2    1    1    2  501    0 -0.12688488302E+03  0.15775047430E+03 -0.11006465293E+04  0.11191102574E+04  0.00000000000E+00 0. -1.
          1    1    1    2  502    0 -0.29488007274E+01  0.45759510253E+02  0.51870464832E+02  0.69232747499E+02  0.00000000000E+00 0. -1.
         22    1    3    3    0    0 -0.15172386848E+01 -0.25783577826E+02 -0.16126823362E+03  0.16332341557E+03  0.00000000000E+00 0. -1.
         22    1    3    3    0    0  0.13135092243E+03 -0.17772640673E+03 -0.30961019129E+03  0.38039218055E+03  0.00000000000E+00 0. -1.
</event>
<event>
 7    1  0.2895750E-005  0.3967676E+03  0.7818608E-02  0.1095042E+00
          2   -1    0    0  502    0  0.00000000000E+00  0.00000000000E+00  0.23047258895E+04  0.23047258895E+04  0.00000000000E+00 0. -1.
          1   -1    0    0  501    0 -0.00000000000E+00 -0.00000000000E+00 -0.10686979749E+04  0.10686979749E+04  0.00000000000E+00 0. -1.
         25    2    1    2    0    0 -0.94993964222E+02  0.37284821315E+03 -0.46473088529E+03  0.61615068539E+03  0.12500891197E+03 0.  0.
          2    1    1    2  501    0  0.28890860200E+03 -0.32693494412E+03 -0.43272900814E+03  0.61449900934E+03  0.00000000000E+00 0. -1.
          1    1    1    2  502    0 -0.19391463778E+03 -0.45913269036E+02  0.21334878081E+04  0.21427741697E+04  0.00000000000E+00 0. -1.
         22    1    3    3    0    0 -0.11702811798E+03  0.35292266047E+03 -0.40730386606E+03  0.55149471800E+03  0.00000000000E+00 0.  1.
         22    1    3    3    0    0  0.22034153758E+02  0.19925552682E+02 -0.57427019230E+02  0.64655967390E+02  0.00000000000E+00 0.  1.
</event>
<event>
 7    1  0.2895750E-005  0.1228148E+03  0.7818608E-02  0.1370678E+00
          2   -1    0    0  502    0  0.00000000000E+00  0.00000000000E+00  0.33908726044E+03  0.33908726044E+03  0.00000000000E+00 0. -1.
          1   -1    0    0  501    0 -0.00000000000E+00 -0.00000000000E+00 -0.20209815981E+03  0.20209815981E+03  0.00000000000E+00 0. -1.
         25    2    1    2    0    0  0.11220536486E+03  0.16383510889E+02  0.25217566181E+03  0.30343995140E+03  0.12499910545E+03 0.  0.
          2    1    1    2  501    0 -0.11211099859E+03 -0.52911629251E+02 -0.14487372195E+03  0.19067488515E+03  0.00000000000E+00 0. -1.
          1    1    1    2  502    0 -0.94366278344E-01  0.36528118362E+02  0.29687160765E+02  0.47070583705E+02  0.00000000000E+00 0. -1.
         22    1    3    3    0    0  0.55364144984E+02  0.17312539193E+02  0.23783965942E+03  0.24481138895E+03  0.00000000000E+00 0.  1.
         22    1    3    3    0    0  0.56841219881E+02 -0.92902830330E+00  0.14336002386E+02  0.58628562455E+02  0.00000000000E+00 0.  1.
</event>
<event>
 7    1  0.2895750E-005  0.1279100E+03  0.7818608E-02  0.1248818E+00
          2   -1    0    0  502    0  0.00000000000E+00  0.00000000000E+00  0.16836049898E+03  0.16836049898E+03  0.00000000000E+00 0. -1.
          1   -1    0    0  501    0 -0.00000000000E+00 -0.00000000000E+00 -0.12992632034E+04  0.12992632034E+04  0.00000000000E+00 0. -1.
         25    2    1    2    0    0  0.18457558268E+02 -0.17793180495E+03 -0.91336422827E+01  0.21843036337E+03  0.12501196564E+03 0.  0.
          2    1    1    2  501    0 -0.71772189022E+02  0.78391899617E+02 -0.11309209148E+04  0.11359043325E+04  0.00000000000E+00 0. -1.
          1    1    1    2  502    0  0.53314630754E+02  0.99539905328E+02  0.91518526030E+01  0.11328900658E+03  0.00000000000E+00 0. -1.
         22    1    3    3    0    0  0.14283857081E+02 -0.19754441184E+03 -0.61311023952E+01  0.19815502425E+03  0.00000000000E+00 0. -1.
         22    1    3    3    0    0  0.41737011866E+01  0.19612606891E+02 -0.30025398875E+01  0.20275339120E+02  0.00000000000E+00 0. -1.
</event>
<event>
 7    1  0.2895750E-005  0.3918095E+03  0.7818608E-02  0.1208077E+00
          2   -1    0    0  502    0  0.00000000000E+00  0.00000000000E+00  0.10882415935E+04  0.10882415935E+04  0.00000000000E+00 0. -1.
          1   -1    0    0  501    0 -0.00000000000E+00 -0.00000000000E+00 -0.43924661512E+03  0.43924661512E+03  0.00000000000E+00 0. -1.
         25    2    1    2    0    0  0.34384380299E+03  0.25923149130E+03  0.22067318925E+03  0.49974785384E+03  0.12498693543E+03 0.  0.
          2    1    1    2  501    0 -0.38259042923E+02 -0.36541604643E+02 -0.24763010252E+03  0.25321870174E+03  0.00000000000E+00 0. -1.
          1    1    1    2  502    0 -0.30558476007E+03 -0.22268988666E+03  0.67595189170E+03  0.77452165308E+03  0.00000000000E+00 0. -1.
         22    1    3    3    0    0  0.32024491202E+03  0.21204964770E+03  0.22773073194E+03  0.44652339584E+03  0.00000000000E+00 0.  1.
         22    1    3    3    0    0  0.23598890971E+02  0.47181843605E+02 -0.70575426871E+01  0.53224458004E+02  0.00000000000E+00 0.  1.
</event>
<event>
 7    1  0.2895750E-005  0.3228165E+03  0.7818608E-02  0.1215480E+00
          2   -1    0    0  502    0  0.00000000000E+00  0.00000000000E+00  0.47193362100E+03  0.47193362100E+03  0.00000000000E+00 0. -1.
          1   -1    0    0  501    0 -0.00000000000E+00 -0.00000000000E+00 -0.31866675084E+03  0.31866675084E+03  0.00000000000E+00 0. -1.
         25    2    1    2    0    0 -0.28354255303E+01  0.33670082645E+03 -0.59662184339E+02  0.36409257948E+03  0.12501337536E+03 0.  0.
          2    1    1    2  501    0  0.48844635171E+02 -0.29921423122E+03  0.14425950088E+03  0.33574656833E+03  0.00000000000E+00 0. -1.
          1    1    1    2  502    0 -0.46009209640E+02 -0.37486595230E+02  0.68669553618E+02  0.90761224032E+02  0.00000000000E+00 0. -1.
         22    1    3    3    0    0 -0.51679340090E+02  0.22454021887E+03 -0.71339638758E+02  0.24120200692E+03  0.00000000000E+00 0.  1.
         22    1    3    3    0    0  0.48843914560E+02  0.11216060758E+03  0.11677454419E+02  0.12289057256E+03  0.00000000000E+00 0.  1.
</event>
<event>
 7    1  0.2895750E-005  0.1911300E+03  0.7818608E-02  0.1169869E+00
          2   -1    0    0  502    0  0.00000000000E+00  0.00000000000E+00  0.39466171185E+02  0.39466171185E+02  0.00000000000E+00 0. -1.
          1   -1    0    0  501    0 -0.00000000000E+00 -0.00000000000E+00 -0.24176983834E+04  0.24176983834E+04  0.00000000000E+00 0. -1.
         25    2    1    2    0    0  0.15096742168E+02 -0.18617675852E+03 -0.73869436920E+03  0.77212878343E+03  0.12499516024E+03 0.  0.
          2    1    1    2  501    0  0.14897844553E+03  0.16411528465E+03 -0.10158570747E+04  0.10397567024E+04  0.00000000000E+00 0. -1.
          1    1    1    2  502    0 -0.16407518770E+03  0.22061473873E+02 -0.62368076829E+03  0.64527906876E+03  0.00000000000E+00 0. -1.
         22    1    3    3    0    0  0.41014744184E+02 -0.19307264262E+03 -0.63135228133E+03  0.66148692936E+03  0.00000000000E+00 0. -1.
         22    1    3    3    0    0 -0.25918002016E+02  0.68958840959E+01 -0.10734208786E+03  0.11064185407E+03  0.00000000000E+00 0. -1.
</event>
<event>
 7    1  0.2895750E-005  0.4623157E+03  0.7818608E-02  0.1147266E+00
          2   -1    0    0  502    0  0.00000000000E+00  0.00000000000E+00  0.20304730866E+04  0.20304730866E+04  0.00000000000E+00 0. -1.
          1   -1    0    0  501    0 -0.00000000000E+00 -0.00000000000E+00 -0.35064261523E+03  0.35064261523E+03  0.00000000000E+00 0. -1.
         25    2    1    2    0    0 -0.20127396665E+03 -0.39024396935E+03  0.56467465650E+03  0.72614397565E+03  0.12500416160E+03 0.  0.
          2    1    1    2  501    0 -0.88321547226E+02  0.11757959066E+02 -0.21997539861E+03  0.23733546153E+03  0.00000000000E+00 0. -1.
          1    1    1    2  502    0  0.28959551388E+03  0.37848601028E+03  0.13351312135E+04  0.14176362646E+04  0.00000000000E+00 0. -1.
         22    1    3    3    0    0 -0.20103544245E+03 -0.39877985472E+03  0.56043947447E+03  0.71661218675E+03  0.00000000000E+00 0. -1.
         22    1    3    3    0    0 -0.23852420672E+00  0.85358853718E+01  0.42351820255E+01  0.95317889017E+01  0.00000000000E+00 0. -1.
</event>
<event>
 7    1  0.2895750E-005  0.1919168E+03  0.7818608E-02  0.1372961E+00
          2   -1    0    0  502    0  0.00000000000E+00  0.00000000000E+00  0.41065377833E+03  0.41065377833E+03  0.00000000000E+00 0. -1.
          1   -1    0    0  501    0 -0.00000000000E+00 -0.00000000000E+00 -0.17268566510E+04  0.17268566510E+04  0.00000000000E+00 0. -1.
         25    2    1    2    0    0  0.52687077365E+02 -0.17970239456E+03 -0.13651569512E+04  0.13835998486E+04  0.12500464368E+03 0.  0.
          2    1    1    2  501    0 -0.20811091278E+02 -0.96494962567E+01 -0.32909446725E+03  0.32989298669E+03  0.00000000000E+00 0. -1.
          1    1    1    2  502    0 -0.31875986087E+02  0.18935189082E+03  0.37804854579E+03  0.42401759400E+03  0.00000000000E+00 0. -1.
         22    1    3    3    0    0  0.27734872871E+02 -0.95109108258E+02 -0.32636366612E+03  0.34106921323E+03  0.00000000000E+00 0.  1.
         22    1    3    3    0    0  0.24952204494E+02 -0.84593286306E+02 -0.10387932851E+04  0.10425306354E+04  0.00000000000E+00 0.  1.
</event>
<event>
 7    1  0.2895750E-005  0.3164239E+02  0.7818608E-02  0.1646982E+00
          2   -1    0    0  502    0  0.00000000000E+00  0.00000000000E+00  0.37376885888E+03  0.37376885888E+03  0.00000000000E+00 0. -1.
          1   -1    0    0  501    0 -0.00000000000E+00 -0.00000000000E+00 -0.51241898176E+02  0.51241898176E+02  0.00000000000E+00 0. -1.
         25    2    1    2    0    0  0.97653816915E+01 -0.86887743502E+01  0.31312173946E+03  0.33740403305E+03  0.12500160127E+03 0.  0.
          2    1    1    2  501    0 -0.31117476050E+02  0.77936626241E+01 -0.29266328562E+02  0.43422994834E+02  0.00000000000E+00 0. -1.
          1    1    1    2  502    0  0.21352094359E+02  0.89511172615E+00  0.38671549806E+02  0.44183729165E+02  0.00000000000E+00 0. -1.
         22    1    3    3    0    0  0.32289787635E+02  0.40529648438E+02  0.24487663795E+03  0.25029952178E+03  0.00000000000E+00 0.  1.
         22    1    3    3    0    0 -0.22524405944E+02 -0.49218422789E+02  0.68245101501E+02  0.87104511272E+02  0.00000000000E+00 0.  1.
</event>
<event>
 7    1  0.2895750E-005  0.3054714E+03  0.7818608E-02  0.1219550E+00
          2   -1    0    0  502    0  0.00000000000E+00  0.00000000000E+00  0.25552601653E+03  0.25552601653E+03  0.00000000000E+00 0. -1.
          1   -1    0    0  501    0 -0.00000000000E+00 -0.00000000000E+00 -0.44106462068E+04  0.44106462068E+04  0.00000000000E+00 0. -1.
         25    2    1    2    0    0  0.30737290805E+03 -0.28813012711E+02  0.82080238937E+00  0.33306756790E+03  0.12500014708E+03 0.  0.
          2    1    1    2  501    0 -0.16062799311E+02 -0.57896008197E+02 -0.39829081846E+04  0.39833613404E+04  0.00000000000E+00 0. -1.
          1    1    1    2  502    0 -0.29131010874E+03  0.86709020908E+02 -0.17303280811E+03  0.34974331508E+03  0.00000000000E+00 0. -1.
         22    1    3    3    0    0  0.36739699456E+02 -0.55567129264E+01 -0.44186763056E+02  0.57733461736E+02  0.00000000000E+00 0.  1.
         22    1    3    3    0    0  0.27063320859E+03 -0.23256299784E+02  0.45007565445E+02  0.27533410617E+03  0.00000000000E+00 0.  1.
</event>
<event>
 7    1  0.2895750E-005  0.1047004E+04  0.7818608E-02  0.1170760E+00
          2   -1    0    0  502    0  0.00000000000E+00  0.00000000000E+00  0.13976062619E+04  0.13976062619E+04  0.00000000000E+00 0. -1.
          1   -1    0    0  501    0 -0.00000000000E+00 -0.00000000000E+00 -0.12383911797E+04  0.12383911797E+04  0.00000000000E+00 0. -1.
         25    2    1    2    0    0  0.67419241718E+02  0.10587156827E+04  0.13486925605E+03  0.10766809682E+04  0.12501175989E+03 0.  0.
          2    1    1    2  501    0 -0.45819850734E+02 -0.10380182564E+04 -0.41508171156E+03  0.11188718366E+04  0.00000000000E+00 0. -1.
          1    1    1    2  502    0 -0.21599390984E+02 -0.20697426244E+02  0.43942753775E+03  0.44044463679E+03  0.00000000000E+00 0. -1.
         22    1    3    3    0    0  0.46666792088E+02  0.28130017067E+03 -0.11311810981E+02  0.28536911636E+03  0.00000000000E+00 0. -1.
         22    1    3    3    0    0  0.20752449630E+02  0.77741551200E+03  0.14618106703E+03  0.79131185182E+03  0.00000000000E+00 0. -1.
</event>
<event>
 7    1  0.2895750E-005  0.3789319E+03  0.7818608E-02  0.1116155E+00
          2   -1    0    0  502    0  0.00000000000E+00  0.00000000000E+00  0.20924452112E+04  0.20924452112E+04  0.00000000000E+00 0. -1.
          1   -1    0    0  501    0 -0.00000000000E+00 -0.00000000000E+00 -0.17845781220E+03  0.17845781220E+03  0.00000000000E+00 0. -1.
         25    2    1    2    0    0 -0.24664795927E+03 -0.29685418364E+03  0.15994483482E+04  0.16500962571E+04  0.12500006816E+03 0.  0.
          2    1    1    2  501    0 -0.89622237231E+02  0.13146606307E+03  0.11442942496E+03  0.19598358207E+03  0.00000000000E+00 0. -1.
          1    1    1    2  502    0  0.33627019650E+03  0.16538812057E+03  0.20010962581E+03  0.42482318419E+03  0.00000000000E+00 0. -1.
         22    1    3    3    0    0 -0.21922378931E+03 -0.24099149841E+03  0.11135264199E+04  0.11602056111E+04  0.00000000000E+00 0.  1.
         22    1    3    3    0    0 -0.27424169955E+02 -0.55862685228E+02  0.48592192826E+03  0.48989064602E+03  0.00000000000E+00 0.  1.
</event>
<event>
 7    1  0.2895750E-005  0.1206707E+03  0.7818608E-02  0.1265591E+00
          2   -1    0    0  502    0  0.00000000000E+00  0.00000000000E+00  0.34071414581E+03  0.34071414581E+03  0.00000000000E+00 0. -1.
          1   -1    0    0  501    0 -0.00000000000E+00 -0.00000000000E+00 -0.14632014432E+03  0.14632014432E+03  0.00000000000E+00 0. -1.
         25    2    1    2    0    0 -0.13182328492E+03 -0.54317315470E+02  0.48948447134E+02  0.19582689187E+03  0.12499788756E+03 0.  0.
          2    1    1    2  501    0  0.16251756083E+02  0.94075166006E+02 -0.71087302132E+01  0.95732912210E+02  0.00000000000E+00 0. -1.
          1    1    1    2  502    0  0.11557152884E+03 -0.39757850536E+02  0.15255428457E+03  0.19547448605E+03  0.00000000000E+00 0. -1.
         22    1    3    3    0    0 -0.63301011780E+02 -0.87007797642E+01 -0.39404248911E+02  0.75069411168E+02  0.00000000000E+00 0.  1.
         22    1    3    3    0    0 -0.68522273142E+02 -0.45616535706E+02  0.88352696045E+02  0.12075748070E+03  0.00000000000E+00 0.  1.
</event>
<event>
 7    1  0.2895750E-005  0.1509031E+03  0.7818608E-02  0.1299166E+00
          2   -1    0    0  502    0  0.00000000000E+00  0.00000000000E+00  0.54925301110E+02  0.54925301110E+02  0.00000000000E+00 0. -1.
          1   -1    0    0  501    0 -0.00000000000E+00 -0.00000000000E+00 -0.20319559828E+04  0.20319559828E+04  0.00000000000E+00 0. -1.
         25    2    1    2    0    0 -0.17109898463E+03  0.25569108474E+02 -0.24686524414E+03  0.32633788294E+03  0.12500129292E+03 0.  0.
          2    1    1    2  501    0  0.50172928283E+02  0.23793195583E+02 -0.14538804927E+04  0.14549405232E+04  0.00000000000E+00 0. -1.
          1    1    1    2  502    0  0.12092605635E+03 -0.49362304057E+02 -0.27628494479E+03  0.30560287774E+03  0.00000000000E+00 0. -1.
         22    1    3    3    0    0 -0.12100928868E+03  0.74682282521E+02 -0.18034732351E+03  0.22966464326E+03  0.00000000000E+00 0.  1.
         22    1    3    3    0    0 -0.50089695951E+02 -0.49113174047E+02 -0.66517920628E+02  0.96673239679E+02  0.00000000000E+00 0.  1.
</event>
<event>
 7    1  0.2895750E-005  0.1265232E+03  0.7818608E-02  0.1279123E+00
          2   -1    0    0  502    0  0.00000000000E+00  0.00000000000E+00  0.15352658177E+03  0.15352658177E+03  0.00000000000E+00 0. -1.
          1   -1    0    0  501    0 -0.00000000000E+00 -0.00000000000E+00 -0.76957978479E+03  0.76957978479E+03  0.00000000000E+00 0. -1.
         25    2    1    2    0    0 -0.11664289366E+03  0.22004647595E+02 -0.45539765982E+02  0.17829446364E+03  0.12500110528E+03 0.  0.
          2    1    1    2  501    0  0.20385729596E+02  0.77280835023E+02 -0.59842366456E+03  0.60373734997E+03  0.00000000000E+00 0. -1.
          1    1    1    2  502    0  0.96257164061E+02 -0.99285482618E+02  0.27910227520E+02  0.14107455296E+03  0.00000000000E+00 0. -1.
         22    1    3    3    0    0 -0.20848988940E+02  0.56845820195E+02  0.11286359750E+02  0.61591472867E+02  0.00000000000E+00 0.  1.
         22    1    3    3    0    0 -0.95793904718E+02 -0.34841172600E+02 -0.56826125733E+02  0.11670299077E+03  0.00000000000E+00 0.  1.
</event>
<event>
 7    1  0.2895750E-005  0.6019908E+02  0.7818608E-02  0.1547147E+00
          2   -1    0    0  502    0  0.00000000000E+00  0.00000000000E+00  0.53648928798E+03  0.53648928798E+03  0.00000000000E+00 0. -1.
          1   -1    0    0  501    0 -0.00000000000E+00 -0.00000000000E+00 -0.11542363475E+03  0.11542363475E+03  0.00000000000E+00 0. -1.
         25    2    1    2    0    0  0.29583518672E+02 -0.53288638043E+02  0.21552045574E+02  0.14072834338E+03  0.12500044976E+03 0.  0.
          2    1    1    2  501    0 -0.45405210207E+02  0.40189384015E+02 -0.39061197525E+02  0.72129029201E+02  0.00000000000E+00 0. -1.
          1    1    1    2  502    0  0.15821691535E+02  0.13099254028E+02  0.43857480518E+03  0.43905555015E+03  0.00000000000E+00 0. -1.
         22    1    3    3    0    0 -0.23360584704E+02 -0.24660450222E+02  0.60254973739E+02  0.69170200109E+02  0.00000000000E+00 0.  1.
         22    1    3    3    0    0  0.52944103376E+02 -0.28628187821E+02 -0.38702928165E+02  0.71558143273E+02  0.00000000000E+00 0.  1.
</event>
<event>
 7    1  0.2895750E-005  0.7521291E+02  0.7818608E-02  0.1372457E+00
          2   -1    0    0  502    0  0.00000000000E+00  0.00000000000E+00  0.18354289332E+04  0.18354289332E+04  0.00000000000E+00 0. -1.
          1   -1    0    0  501    0 -0.00000000000E+00 -0.00000000000E+00 -0.92026415255E+02  0.92026415255E+02  0.00000000000E+00 0. -1.
         25    2    1    2    0    0  0.11237065733E+03 -0.31915988360E+02  0.64440846802E+03  0.66673307215E+03  0.12499968357E+03 0.  0.
          2    1    1    2  501    0 -0.57061141664E+02 -0.14097825968E+02 -0.68928239359E+02  0.90586007563E+02  0.00000000000E+00 0. -1.
          1    1    1    2  502    0 -0.55309515666E+02  0.46013814328E+02  0.11679222893E+04  0.11701362687E+04  0.00000000000E+00 0. -1.
         22    1    3    3    0    0  0.53071799275E+02  0.34635432917E+02  0.42830145938E+03  0.43296462811E+03  0.00000000000E+00 0.  1.
         22    1    3    3    0    0  0.59298858055E+02 -0.66551421278E+02  0.21610700864E+03  0.23376844403E+03  0.00000000000E+00 0.  1.
</event>
<event>
 7    1  0.2895750E-005  0.1126061E+03  0.7818608E-02  0.1433916E+00
          2   -1    0    0  502    0  0.00000000000E+00  0.00000000000E+00  0.55805390490E+03  0.55805390490E+03  0.00000000000E+00 0. -1.
          1   -1    0    0  501    0 -0.00000000000E+00 -0.00000000000E+00 -0.85908962969E+03  0.85908962969E+03  0.00000000000E+00 0. -1.
         25    2    1    2    0    0  0.67223727979E+02  0.11517238602E+03  0.26181711715E+03  0.31930752854E+03  0.12500154737E+03 0.  0.
          2    1    1    2  501    0 -0.46886499614E+02 -0.10209091409E+03 -0.82598761445E+03  0.83359248906E+03  0.00000000000E+00 0. -1.
          1    1    1    2  502    0 -0.20337228365E+02 -0.13081471930E+02  0.26313477251E+03  0.26424351699E+03  0.00000000000E+00 0. -1.
         22    1    3    3    0    0  0.57084581998E+01  0.11809038803E+03  0.14357066473E+03  0.18598511234E+03  0.00000000000E+00 0.  1.
         22    1    3    3    0    0  0.61515269779E+02 -0.29180020174E+01  0.11824645242E+03  0.13332241620E+03  0.00000000000E+00 0.  1.
</event>
<event>
 7    1  0.2895750E-005  0.1687157E+03  0.7818608E-02  0.1317608E+00
          2   -1    0    0  502    0  0.00000000000E+00  0.00000000000E+00  0.53042539602E+03  0.53042539602E+03  0.00000000000E+00 0. -1.
          1   -1    0    0  501    0 -0.00000000000E+00 -0.00000000000E+00 -0.86031499280E+03  0.86031499280E+03  0.00000000000E+00 0. -1.
         25    2    1    2    0    0 -0.18554549854E+03  0.55921640924E+02  0.27689358182E+03  0.36034383362E+03  0.12499304310E+03 0.  0.
          2    1    1    2  501    0  0.16713566281E+03 -0.18177097876E+02 -0.80776451139E+03  0.82507468906E+03  0.00000000000E+00 0. -1.
          1    1    1    2  502    0  0.18409835730E+02 -0.37744543048E+02  0.20098133279E+03  0.20532186613E+03  0.00000000000E+00 0. -1.
         22    1    3    3    0    0 -0.23403472598E+01  0.17894700906E+02 -0.78053382946E+01  0.19662676616E+02  0.00000000000E+00 0.  1.
         22    1    3    3    0    0 -0.18320515128E+03  0.38026940018E+02  0.28469892011E+03  0.34068115700E+03  0.00000000000E+00 0.  1.
</event>
<event>
 7    1  0.2895750E-005  0.1359438E+03  0.7818608E-02  0.1285306E+00
          2   -1    0    0  502    0  0.00000000000E+00  0.00000000000E+00  0.71790919656E+03  0.71790919656E+03  0.00000000000E+00 0. -1.
          1   -1    0    0  501    0 -0.00000000000E+00 -0.00000000000E+00 -0.30045843361E+03  0.30045843361E+03  0.00000000000E+00 0. -1.
         25    2    1    2    0    0  0.25504874320E+02  0.17408472903E+03  0.35221880033E+02  0.21867905032E+03  0.12499581880E+03 0.  0.
          2    1    1    2  501    0  0.39893944342E+02 -0.57701841446E+02 -0.19499426379E+03  0.20722884020E+03  0.00000000000E+00 0. -1.
          1    1    1    2  502    0 -0.65398818662E+02 -0.11638288759E+03  0.57722314671E+03  0.59245973965E+03  0.00000000000E+00 0. -1.
         22    1    3    3    0    0  0.58126993510E+02  0.78166462526E+02  0.59964676231E+02  0.11438752394E+03  0.00000000000E+00 0.  1.
         22    1    3    3    0    0 -0.32622119189E+02  0.95918266508E+02 -0.24742796198E+02  0.10429152638E+03  0.00000000000E+00 0.  1.
</event>
<event>
 7    1  0.2895750E-005  0.7218858E+02  0.7818608E-02  0.1392112E+00
          2   -1    0    0  502    0  0.00000000000E+00  0.00000000000E+00  0.64004986248E+03  0.64004986248E+03  0.00000000000E+00 0. -1.
          1   -1    0    0  501    0 -0.00000000000E+00 -0.00000000000E+00 -0.17527612822E+03  0.17527612822E+03  0.00000000000E+00 0. -1.
         25    2    1    2    0    0  0.59805192528E+01 -0.11822291222E+03  0.45965497643E+02  0.17819624164E+03  0.12501459905E+03 0.  0.
          2    1    1    2  501    0 -0.18665702574E+02  0.48745570163E+02 -0.10039052072E+03  0.11314943974E+03  0.00000000000E+00 0. -1.
          1    1    1    2  502    0  0.12685183321E+02  0.69477342054E+02  0.51919875733E+03  0.52398030932E+03  0.00000000000E+00 0. -1.
         22    1    3    3    0    0  0.24701499576E+02  0.99398723735E+01 -0.19563080534E+02  0.33040569972E+02  0.00000000000E+00 0.  1.
         22    1    3    3    0    0 -0.18720980323E+02 -0.12816278459E+03  0.65528578178E+02  0.14515567166E+03  0.00000000000E+00 0.  1.
</event>
<event>
 7    1  0.2895750E-005  0.3670185E+03  0.7818608E-02  0.1058828E+00
          2   -1    0    0  502    0  0.00000000000E+00  0.00000000000E+00  0.11815985227E+04  0.11815985227E+04  0.00000000000E+00 0. -1.
          1   -1    0    0  501    0 -0.00000000000E+00 -0.00000000000E+00 -0.94353029596E+03  0.94353029596E+03  0.00000000000E+00 0. -1.
         25    2    1    2    0    0 -0.18606177204E+03 -0.26259225964E+03 -0.55028190728E+03  0.64962199278E+03  0.12499951275E+03 0.  0.
          2    1    1    2  501    0  0.55211602240E+03  0.23600503555E+03 -0.59946618033E+01  0.60047182695E+03  0.00000000000E+00 0. -1.
          1    1    1    2  502    0 -0.36605425035E+03  0.26587224085E+02  0.79434479580E+03  0.87503499890E+03  0.00000000000E+00 0. -1.
         22    1    3    3    0    0 -0.68079795359E+02 -0.16704420842E+02 -0.14590413050E+03  0.16187004512E+03  0.00000000000E+00 0. -1.
         22    1    3    3    0    0 -0.11798197668E+03 -0.24588783879E+03 -0.40437777678E+03  0.48775194766E+03  0.00000000000E+00 0. -1.
</event>
<event>
 7    1  0.2895750E-005  0.1489112E+03  0.7818608E-02  0.1291974E+00
          2   -1    0    0  502    0  0.00000000000E+00  0.00000000000E+00  0.80941994330E+03  0.80941994330E+03  0.00000000000E+00 0. -1.
          1   -1    0    0  501    0 -0.00000000000E+00 -0.00000000000E+00 -0.57444745287E+02  0.57444745287E+02  0.00000000000E+00 0. -1.
         25    2    1    2    0    0 -0.11248599324E+03 -0.13179224430E+03  0.40976015987E+03  0.46211534454E+03  0.12499963484E+03 0.  0.
          2    1    1    2  501    0 -0.51844659188E+01  0.59932812560E+02  0.39092906272E+02  0.71743125308E+02  0.00000000000E+00 0. -1.
          1    1    1    2  502    0  0.11767045916E+03  0.71859431741E+02  0.30312213187E+03  0.33300621874E+03  0.00000000000E+00 0. -1.
         22    1    3    3    0    0 -0.12524626037E+03 -0.12703734384E+03  0.41138612099E+03  0.44840121879E+03  0.00000000000E+00 0. -1.
         22    1    3    3    0    0  0.12760267131E+02 -0.47549004616E+01 -0.16259611194E+01  0.13714125755E+02  0.00000000000E+00 0. -1.
</event>
<event>
 7    1  0.2895750E-005  0.1020154E+03  0.7818608E-02  0.1314038E+00
          2   -1    0    0  502    0  0.00000000000E+00  0.00000000000E+00  0.94421071564E+02  0.94421071564E+02  0.00000000000E+00 0. -1.
          1   -1    0    0  501    0 -0.00000000000E+00 -0.00000000000E+00 -0.10913178999E+04  0.10913178999E+04  0.00000000000E+00 0. -1.
         25    2    1    2    0    0  0.63622613527E+02 -0.87725781717E+02 -0.18226386082E+03  0.24615114277E+03  0.12500648141E+03 0.  0.
          2    1    1    2  501    0 -0.10027741612E+03  0.26082729873E+02 -0.85230347442E+03  0.85857852378E+03  0.00000000000E+00 0. -1.
          1    1    1    2  502    0  0.36654802594E+02  0.61643051844E+02  0.37670506902E+02  0.81009304923E+02  0.00000000000E+00 0. -1.
         22    1    3    3    0    0 -0.17856829648E+02 -0.67286053064E+02 -0.38259338591E+02  0.79435862754E+02  0.00000000000E+00 0.  1.
         22    1    3    3    0    0  0.81479443175E+02 -0.20439728653E+02 -0.14400452223E+03  0.16671528001E+03  0.00000000000E+00 0.  1.
</event>
<event>
 7    1  0.2895750E-005  0.2399585E+03  0.7818608E-02  0.1235459E+00
          2   -1    0    0  502    0  0.00000000000E+00  0.00000000000E+00  0.13250716948E+04  0.13250716948E+04  0.00000000000E+00 0. -1.
          1   -1    0    0  501    0 -0.00000000000E+00 -0.00000000000E+00 -0.78522982675E+03  0.78522982675E+03  0.00000000000E+00 0. -1.
         25    2    1    2    0    0  0.12758132958E+03 -0.15830759206E+03 -0.19358190848E+03  0.30730591209E+03  0.12499871581E+03 0.  0.
          2    1    1    2  501    0 -0.23954865823E+02 -0.60270436147E+02 -0.52122289103E+03  0.52524248039E+03  0.00000000000E+00 0. -1.
          1    1    1    2  502    0 -0.10362646376E+03  0.21857802821E+03  0.12546466675E+04  0.12777531290E+04  0.00000000000E+00 0. -1.
         22    1    3    3    0    0  0.14711013671E+03 -0.12476928773E+03 -0.18559448683E+03  0.26768279927E+03  0.00000000000E+00 0.  1.
         22    1    3    3    0    0 -0.19528807128E+02 -0.33538304330E+02 -0.79874216505E+01  0.39623112823E+02  0.00000000000E+00 0.  1.
</event>
<event>
 7    1  0.2895750E-005  0.2341821E+03  0.7818608E-02  0.1179496E+00
          2   -1    0    0  502    0  0.00000000000E+00  0.00000000000E+00  0.89044962562E+03  0.89044962562E+03  0.00000000000E+00 0. -1.
          1   -1    0    0  501    0 -0.00000000000E+00 -0.00000000000E+00 -0.55821603162E+03  0.55821603162E+03  0.00000000000E+00 0. -1.
         25    2    1    2    0    0 -0.16315323253E+03 -0.27141289859E+03  0.63949185446E+03  0.72447163444E+03  0.12500151355E+03 0.  0.
          2    1    1    2  501    0  0.17556813440E+03  0.15091329666E+03 -0.46846271301E+03  0.52254789867E+03  0.00000000000E+00 0. -1.
          1    1    1    2  502    0 -0.12414901868E+02  0.12049960193E+03  0.16120445255E+03  0.20164612413E+03  0.00000000000E+00 0. -1.
         22    1    3    3    0    0 -0.12244500964E+03 -0.90522403850E+02  0.24300302928E+03  0.28677091593E+03  0.00000000000E+00 0. -1.
         22    1    3    3    0    0 -0.40708222898E+02 -0.18089049474E+03  0.39648882518E+03  0.43770071852E+03  0.00000000000E+00 0. -1.
</event>
<event>
 7    1  0.2895750E-005  0.1028676E+03  0.7818608E-02  0.1317144E+00
          2   -1    0    0  502    0  0.00000000000E+00  0.00000000000E+00  0.93284779755E+02  0.93284779755E+02  0.00000000000E+00 0. -1.
          1   -1    0    0  501    0 -0.00000000000E+00 -0.00000000000E+00 -0.10675246278E+04  0.10675246278E+04  0.00000000000E+00 0. -1.
         25    2    1    2    0    0 -0.88661677800E+02  0.10462440801E+03 -0.54556074738E+03  0.57625374204E+03  0.12499874506E+03 0.  0.
          2    1    1    2  501    0  0.68998175973E+02 -0.47866634610E+01 -0.46975700363E+03  0.47482133786E+03  0.00000000000E+00 0. -1.
          1    1    1    2  502    0  0.19663501827E+02 -0.99837744551E+02  0.41077903003E+02  0.10973432761E+03  0.00000000000E+00 0. -1.
         22    1    3    3    0    0  0.11576645153E+02  0.10235005203E+01  0.35343236229E+00  0.11627174237E+02  0.00000000000E+00 0.  1.
         22    1    3    3    0    0 -0.10023832295E+03  0.10360090749E+03 -0.54591417974E+03  0.56462656780E+03  0.00000000000E+00 0.  1.
</event>
<event>
 7    1  0.2895750E-005  0.5569902E+02  0.7818608E-02  0.1421081E+00
          2   -1    0    0  502    0  0.00000000000E+00  0.00000000000E+00  0.37313914349E+03  0.37313914349E+03  0.00000000000E+00 0. -1.
          1   -1    0    0  501    0 -0.00000000000E+00 -0.00000000000E+00 -0.13254914929E+04  0.13254914929E+04  0.00000000000E+00 0. -1.
         25    2    1    2    0    0  0.35766117431E+02  0.32169251285E+02 -0.23117134379E+03  0.26716623216E+03  0.12499411798E+03 0.  0.
          2    1    1    2  501    0  0.12784983088E+02 -0.55581914426E+02 -0.10735161448E+04  0.10750301010E+04  0.00000000000E+00 0. -1.
          1    1    1    2  502    0 -0.48551100519E+02  0.23412663142E+02  0.35233513920E+03  0.35643430317E+03  0.00000000000E+00 0. -1.
         22    1    3    3    0    0 -0.13564865326E+02  0.65375096104E+02 -0.16609453743E+03  0.17901202229E+03  0.00000000000E+00 0. -1.
         22    1    3    3    0    0  0.49330982756E+02 -0.33205844820E+02 -0.65076806368E+02  0.88154209865E+02  0.00000000000E+00 0. -1.
</event>
<event>
 7    1  0.2895750E-005  0.3334047E+02  0.7818608E-02  0.1583601E+00
          2   -1    0    0  502    0  0.00000000000E+00  0.00000000000E+00  0.23065560152E+03  0.23065560152E+03  0.00000000000E+00 0. -1.
          1   -1    0    0  501    0 -0.00000000000E+00 -0.00000000000E+00 -0.28414107885E+03  0.28414107885E+03  0.00000000000E+00 0. -1.
         25    2    1    2    0    0 -0.17547402994E+02  0.67032659966E+01 -0.27527862389E+02  0.12937618603E+03  0.12501027629E+03 0.  0.
          2    1    1    2  501    0  0.26409253531E+02  0.21416756979E+02 -0.20305678679E+03  0.20588391101E+03  0.00000000000E+00 0. -1.
          1    1    1    2  502    0 -0.88618505368E+01 -0.28120022975E+02  0.17709917184E+03  0.17953658333E+03  0.00000000000E+00 0. -1.
         22    1    3    3    0    0 -0.33415665322E+02 -0.49717534882E+02  0.86125319444E+01  0.60519547835E+02  0.00000000000E+00 0.  1.
         22    1    3    3    0    0  0.15868262328E+02  0.56420800878E+02 -0.36140394333E+02  0.68856638196E+02  0.00000000000E+00 0.  1.
</event>
<event>
 7    1  0.2895750E-005  0.2374424E+03  0.7818608E-02  0.1314238E+00
          2   -1    0    0  502    0  0.00000000000E+00  0.00000000000E+00  0.35468209272E+03  0.35468209272E+03  0.00000000000E+00 0. -1.
          1   -1    0    0  501    0 -0.00000000000E+00 -0.00000000000E+00 -0.17990937731E+04  0.17990937731E+04  0.00000000000E+00 0. -1.
         25    2    1    2    0    0  0.21903794162E+03  0.12385201732E+03 -0.18064091216E+03  0.33402591086E+03  0.12500091166E+03 0.  0.
          2    1    1    2  501    0 -0.19157379561E+03 -0.13769909600E+03 -0.15318502242E+04  0.15499118264E+04  0.00000000000E+00 0. -1.
          1    1    1    2  502    0 -0.27464146008E+02  0.13847078683E+02  0.26807945599E+03  0.26983812857E+03  0.00000000000E+00 0. -1.
         22    1    3    3    0    0  0.12779625019E+03  0.13158141442E+03 -0.86856396301E+02  0.20295217112E+03  0.00000000000E+00 0.  1.
         22    1    3    3    0    0  0.91241691433E+02 -0.77293971028E+01 -0.93784515863E+02  0.13107373974E+03  0.00000000000E+00 0.  1.
</event>
<event>
 7    1  0.2895750E-005  0.1136978E+03  0.7818608E-02  0.1287365E+00
          2   -1    0    0  502    0  0.00000000000E+00  0.00000000000E+00  0.16505988812E+04  0.16505988812E+04  0.00000000000E+00 0. -1.
          1   -1    0    0  501    0 -0.00000000000E+00 -0.00000000000E+00 -0.25180000933E+02  0.25180000933E+02  0.00000000000E+00 0. -1.
         25    2    1    2    0    0 -0.88019179355E+02  0.88016410555E+02  0.45316122074E+03  0.48628659430E+03  0.12500118140E+03 0.  0.
          2    1    1    2  501    0  0.77219439138E+02  0.28366098582E+02  0.39300618810E+03  0.40152377415E+03  0.00000000000E+00 0. -1.
          1    1    1    2  502    0  0.10799740217E+02 -0.11638250914E+03  0.77925147142E+03  0.78796851367E+03  0.00000000000E+00 0. -1.
         22    1    3    3    0    0 -0.10264849107E+03  0.51961867613E+02  0.41900069417E+03  0.43450929808E+03  0.00000000000E+00 0. -1.
         22    1    3    3    0    0  0.14629311714E+02  0.36054542942E+02  0.34160526569E+02  0.51777296216E+02  0.00000000000E+00 0. -1.
</event>
<event>
 7    1  0.2895750E-005  0.1424272E+03  0.7818608E-02  0.1282385E+00
          2   -1    0    0  502    0  0.00000000000E+00  0.00000000000E+00  0.14002989891E+03  0.14002989891E+03  0.00000000000E+00 0. -1.
          1   -1    0    0  501    0 -0.00000000000E+00 -0.00000000000E+00 -0.47662244807E+03  0.47662244807E+03  0.00000000000E+00 0. -1.
         25    2    1    2    0    0  0.84074434647E+02  0.83161563427E+02 -0.74227407904E+02  0.18737345082E+03  0.12495897645E+03 0.  0.
          2    1    1    2  501    0  0.65328714911E+02 -0.21679852709E+02 -0.25867655243E+03  0.26767782086E+03  0.00000000000E+00 0. -1.
          1    1    1    2  502    0 -0.14940314956E+03 -0.61481710719E+02 -0.36885888304E+01  0.16160107530E+03  0.00000000000E+00 0. -1.
         22    1    3    3    0    0 -0.26311646400E+02  0.34175420812E+02  0.42624437594E+01  0.43340864675E+02  0.00000000000E+00 0. -1.
         22    1    3    3    0    0  0.11038608105E+03  0.48986142615E+02 -0.78489851663E+02  0.14403258614E+03  0.00000000000E+00 0. -1.
</event>
<event>
 7    1  0.2895750E-005  0.2042053E+03  0.7818608E-02  0.1154692E+00
          2   -1    0    0  502    0  0.00000000000E+00  0.00000000000E+00  0.16820974483E+04  0.16820974483E+04  0.00000000000E+00 0. -1.
          1   -1    0    0  501    0 -0.00000000000E+00 -0.00000000000E+00 -0.25471072772E+03  0.25471072772E+03  0.00000000000E+00 0. -1.
         25    2    1    2    0    0  0.64133372656E+02  0.53617190160E+02  0.99169823240E+03  0.10030341861E+04  0.12499720710E+03 0.  0.
          2    1    1    2  501    0  0.36084989699E+02 -0.20883642914E+03 -0.18799649409E+03  0.28329748041E+03  0.00000000000E+00 0. -1.
          1    1    1    2  502    0 -0.10021836236E+03  0.15521923898E+03  0.62368498226E+03  0.65047650949E+03  0.00000000000E+00 0. -1.
         22    1    3    3    0    0 -0.82194588695E+01  0.27273284232E+02  0.45318355339E+02  0.53527048000E+02  0.00000000000E+00 0. -1.
         22    1    3    3    0    0  0.72352831526E+02  0.26343905928E+02  0.94637987706E+03  0.94950713810E+03  0.00000000000E+00 0. -1.
</event>
<event>
 7    1  0.2895750E-005  0.3062348E+03  0.7818608E-02  0.1097129E+00
          2   -1    0    0  502    0  0.00000000000E+00  0.00000000000E+00  0.12979206788E+04  0.12979206788E+04  0.00000000000E+00 0. -1.
          1   -1    0    0  501    0 -0.00000000000E+00 -0.00000000000E+00 -0.20452122907E+04  0.20452122907E+04  0.00000000000E+00 0. -1.
         25    2    1    2    0    0 -0.40341259687E+03 -0.31824276539E+03  0.17128274484E+03  0.55586205076E+03  0.12499863902E+03 0.  0.
          2    1    1    2  501    0  0.16063937132E+03  0.25355550828E+03 -0.18235390752E+04  0.18480774232E+04  0.00000000000E+00 0. -1.
          1    1    1    2  502    0  0.24277322554E+03  0.64687257108E+02  0.90496471845E+03  0.93919349546E+03  0.00000000000E+00 0. -1.
         22    1    3    3    0    0 -0.24359549249E+03 -0.26571405071E+03  0.12206293220E+03  0.38058123985E+03  0.00000000000E+00 0. -1.
         22    1    3    3    0    0 -0.15981710438E+03 -0.52528714682E+02  0.49219812640E+02  0.17528081091E+03  0.00000000000E+00 0. -1.
</event>
<event>
 7    1  0.2895750E-005  0.2340049E+03  0.7818608E-02  0.1201367E+00
          2   -1    0    0  502    0  0.00000000000E+00  0.00000000000E+00  0.98442785133E+03  0.98442785133E+03  0.00000000000E+00 0. -1.
          1   -1    0    0  501    0 -0.00000000000E+00 -0.00000000000E+00 -0.19895993963E+03  0.19895993963E+03  0.00000000000E+00 0. -1.
         25    2    1    2    0    0 -0.25224850651E+03  0.12400679132E+03  0.78028447143E+02  0.31736466335E+03  0.12499959061E+03 0.  0.
          2    1    1    2  501    0  0.19900434120E+03 -0.45058753992E+02  0.61508880903E+02  0.21311114837E+03  0.00000000000E+00 0. -1.
          1    1    1    2  502    0  0.53244165306E+02 -0.78948037323E+02  0.64593058366E+03  0.65291197924E+03  0.00000000000E+00 0. -1.
         22    1    3    3    0    0 -0.43141446445E+02  0.19064537314E+01 -0.29623928241E+02  0.52367891800E+02  0.00000000000E+00 0. -1.
         22    1    3    3    0    0 -0.20910706006E+03  0.12210033758E+03  0.10765237538E+03  0.26499677155E+03  0.00000000000E+00 0. -1.
</event>
<event>
 7    1  0.2895750E-005  0.4408727E+03  0.7818608E-02  0.1112105E+00
          2   -1    0    0  502    0  0.00000000000E+00  0.00000000000E+00  0.32797911461E+03  0.32797911461E+03  0.00000000000E+00 0. -1.
          1   -1    0    0  501    0 -0.00000000000E+00 -0.00000000000E+00 -0.18204265217E+04  0.18204265217E+04  0.00000000000E+00 0. -1.
         25    2    1    2    0    0  0.39416354953E+03  0.21653767609E+03 -0.75744763528E+02  0.47287879976E+03  0.12499448437E+03 0.  0.
          2    1    1    2  501    0  0.40747186243E+02 -0.13804748691E+03 -0.11507930113E+04  0.11597594564E+04  0.00000000000E+00 0. -1.
          1    1    1    2  502    0 -0.43491073577E+03 -0.78490189179E+02 -0.26590963223E+03  0.51576738012E+03  0.00000000000E+00 0. -1.
         22    1    3    3    0    0  0.26686833397E+03  0.20944663958E+03 -0.57680726636E+02  0.34411287208E+03  0.00000000000E+00 0. -1.
         22    1    3    3    0    0  0.12729521556E+03  0.70910365062E+01 -0.18064036892E+02  0.12876592768E+03  0.00000000000E+00 0. -1.
</event>
<event>
 7    1  0.2895750E-005  0.1104068E+04  0.7818608E-02  0.1163765E+00
          2   -1    0    0  502    0  0.00000000000E+00  0.00000000000E+00  0.14636003369E+04  0.14636003369E+04  0.00000000000E+00 0. -1.
          1   -1    0    0  501    0 -0.00000000000E+00 -0.00000000000E+00 -0.17344362038E+04  0.17344362038E+04  0.00000000000E+00 0. -1.
         25    2    1    2    0    0 -0.11075117179E+04 -0.20325388706E+03 -0.80613970856E+03  0.13904605861E+04  0.12500025519E+03 0.  0.
          2    1    1    2  501    0  0.29318608500E+02 -0.92513484305E+01 -0.37764430184E+03  0.37889363542E+03  0.00000000000E+00 0. -1.
          1    1    1    2  502    0  0.10781931094E+04  0.21250523549E+03  0.91294814347E+03  0.14286823191E+04  0.00000000000E+00 0. -1.
         22    1    3    3    0    0 -0.19075008163E+03  0.12098858458E+02 -0.13001796266E+03  0.23116367931E+03  0.00000000000E+00 0. -1.
         22    1    3    3    0    0 -0.91676163630E+03 -0.21535274551E+03 -0.67612174590E+03  0.11592969068E+04  0.00000000000E+00 0. -1.
</event>
<event>
 7    1  0.2895750E-005  0.6917936E+03  0.7818608E-02  0.1107408E+00
          2   -1    0    0  502    0  0.00000000000E+00  0.00000000000E+00  0.12628606481E+04  0.12628606481E+04  0.00000000000E+00 0. -1.
          1   -1    0    0  501    0 -0.00000000000E+00 -0.00000000000E+00 -0.60417298341E+03  0.60417298341E+03  0.00000000000E+00 0. -1.
         25    2    1    2    0    0  0.69401014364E+03  0.14328040257E+03  0.34749197707E+03  0.79909670430E+03  0.12500206180E+03 0.  0.
          2    1    1    2  501    0 -0.13890579665E+02 -0.96390880662E+02 -0.19557438297E+03  0.21847995184E+03  0.00000000000E+00 0. -1.
          1    1    1    2  502    0 -0.68011956398E+03 -0.46889521905E+02  0.50677007058E+03  0.84945697537E+03  0.00000000000E+00 0. -1.
         22    1    3    3    0    0  0.43574083743E+03  0.83174802980E+02  0.28301524680E+03  0.52619934927E+03  0.00000000000E+00 0. -1.
         22    1    3    3    0    0  0.25826930621E+03  0.60105599587E+02  0.64476730273E+02  0.27289735503E+03  0.00000000000E+00 0. -1.
</event>
<event>
 7    1  0.2895750E-005  0.1403343E+03  0.7818608E-02  0.1279788E+00
          2   -1    0    0  502    0  0.00000000000E+00  0.00000000000E+00  0.19018281305E+04  0.19018281305E+04  0.00000000000E+00 0. -1.
          1   -1    0    0  501    0 -0.00000000000E+00 -0.00000000000E+00 -0.25117166789E+03  0.25117166789E+03  0.00000000000E+00 0. -1.
         25    2    1    2    0    0 -0.92706460812E+02 -0.42688223062E+02  0.11554059394E+03  0.19847035161E+03  0.12499631737E+03 0.  0.
          2    1    1    2  501    0  0.94475966738E+02  0.11427025030E+03 -0.18266007941E+03  0.23526177548E+03  0.00000000000E+00 0. -1.
          1    1    1    2  502    0 -0.17695059256E+01 -0.71582027237E+02  0.17177759481E+04  0.17192676713E+04  0.00000000000E+00 0. -1.
         22    1    3    3    0    0 -0.48892927611E+02  0.66425610107E+01  0.12255996188E+03  0.13211959069E+03  0.00000000000E+00 0.  1.
         22    1    3    3    0    0 -0.43813533201E+02 -0.49330784073E+02 -0.70193679391E+01  0.66350760923E+02  0.00000000000E+00 0.  1.
</event>
<event>
 7    1  0.2895750E-005  0.3950437E+02  0.7818608E-02  0.1587416E+00
          2   -1    0    0  502    0  0.00000000000E+00  0.00000000000E+00  0.17654990409E+04  0.17654990409E+04  0.00000000000E+00 0. -1.
          1   -1    0    0  501    0 -0.00000000000E+00 -0.00000000000E+00 -0.26683839602E+02  0.26683839602E+02  0.00000000000E+00 0. -1.
         25    2    1    2    0    0  0.10841368239E+02 -0.25638438596E+02  0.56115000456E+03  0.57557680117E+03  0.12499784650E+03 0.  0.
          2    1    1    2  501    0 -0.34571864844E+02  0.20372022907E+02  0.14647019189E+01  0.40154433228E+02  0.00000000000E+00 0. -1.
          1    1    1    2  502    0  0.23730496605E+02  0.52664156888E+01  0.11762004948E+04  0.11764516461E+04  0.00000000000E+00 0. -1.
         22    1    3    3    0    0  0.20396038378E+02 -0.53130147145E+02  0.52961376464E+03  0.53266269873E+03  0.00000000000E+00 0.  1.
         22    1    3    3    0    0 -0.95546701389E+01  0.27491708549E+02  0.31536239916E+02  0.42914102443E+02  0.00000000000E+00 0.  1.
</event>
<event>
 7    1  0.2895750E-005  0.7608190E+02  0.7818608E-02  0.1375992E+00
          2   -1    0    0  502    0  0.00000000000E+00  0.00000000000E+00  0.10529905693E+04  0.10529905693E+04  0.00000000000E+00 0. -1.
          1   -1    0    0  501    0 -0.00000000000E+00 -0.00000000000E+00 -0.37627048047E+02  0.37627048047E+02  0.00000000000E+00 0. -1.
         25    2    1    2    0    0  0.74406110778E+02 -0.83874844939E+02  0.56462025530E+03  0.58906002293E+03  0.12499767592E+03 0.  0.
          2    1    1    2  501    0 -0.53690744137E+02  0.17401017346E+02  0.12487109038E+02  0.57805011052E+02  0.00000000000E+00 0. -1.
          1    1    1    2  502    0 -0.20715366641E+02  0.66473827593E+02  0.43825615691E+03  0.44375258336E+03  0.00000000000E+00 0. -1.
         22    1    3    3    0    0  0.67264760829E+02 -0.25460444448E+02  0.11523420894E+03  0.13583705382E+03  0.00000000000E+00 0.  1.
         22    1    3    3    0    0  0.71413499490E+01 -0.58414400491E+02  0.44938604637E+03  0.45322296911E+03  0.00000000000E+00 0.  1.
</event>
<event>
 7    1  0.2895750E-005  0.2846024E+03  0.7818608E-02  0.1166649E+00
          2   -1    0    0  502    0  0.00000000000E+00  0.00000000000E+00  0.38055207976E+03  0.38055207976E+03  0.00000000000E+00 0. -1.
          1   -1    0    0  501    0 -0.00000000000E+00 -0.00000000000E+00 -0.22709009327E+04  0.22709009327E+04  0.00000000000E+00 0. -1.
         25    2    1    2    0    0  0.30973279323E+03  0.18387529504E+03 -0.79591108073E+03  0.88252105680E+03  0.12499775978E+03 0.  0.
          2    1    1    2  501    0 -0.19444830005E+03 -0.17962154648E+03 -0.14091205982E+04  0.14337694730E+04  0.00000000000E+00 0. -1.
          1    1    1    2  502    0 -0.11528449318E+03 -0.42537485558E+01  0.31468282605E+03  0.33516248262E+03  0.00000000000E+00 0. -1.
         22    1    3    3    0    0  0.11526203291E+03  0.39633449424E+02 -0.40270809038E+03  0.42074927522E+03  0.00000000000E+00 0. -1.
         22    1    3    3    0    0  0.19447076032E+03  0.14424184561E+03 -0.39320299035E+03  0.46177178158E+03  0.00000000000E+00 0. -1.
</event>
<event>
 7    1  0.2895750E-005  0.3264879E+03  0.7818608E-02  0.1182724E+00
          2   -1    0    0  502    0  0.00000000000E+00  0.00000000000E+00  0.11050754759E+04  0.11050754759E+04  0.00000000000E+00 0. -1.
          1   -1    0    0  501    0 -0.00000000000E+00 -0.00000000000E+00 -0.16462816183E+03  0.16462816183E+03  0.00000000000E+00 0. -1.
         25    2    1    2    0    0  0.12697028632E+03  0.34299604065E+03  0.39067842161E+03  0.54956543126E+03  0.12499918643E+03 0.  0.
          2    1    1    2  501    0 -0.30032687338E+01 -0.83745806195E+02  0.37401567143E+03  0.38328853642E+03  0.00000000000E+00 0. -1.
          1    1    1    2  502    0 -0.12396701759E+03 -0.25925023446E+03  0.17575322105E+03  0.33684967007E+03  0.00000000000E+00 0. -1.
         22    1    3    3    0    0  0.96561741132E+02  0.32850722531E+03  0.38529412707E+03  0.51545390801E+03  0.00000000000E+00 0. -1.
         22    1    3    3    0    0  0.30408545190E+02  0.14488815340E+02  0.53842945488E+01  0.34111523248E+02  0.00000000000E+00 0. -1.
</event>
<event>
 7    1  0.2895750E-005  0.1544749E+03  0.7818608E-02  0.1251109E+00
          2   -1    0    0  502    0  0.00000000000E+00  0.00000000000E+00  0.10080785967E+04  0.10080785967E+04  0.00000000000E+00 0. -1.
          1   -1    0    0  501    0 -0.00000000000E+00 -0.00000000000E+00 -0.36859786492E+03  0.36859786492E+03  0.00000000000E+00 0. -1.
         25    2    1    2    0    0 -0.22455190489E+02 -0.98614325238E+02 -0.95427475186E+01  0.16107392930E+03  0.12499890379E+03 0.  0.
          2    1    1    2  501    0 -0.18277481292E+02  0.17437484544E+03 -0.25392017948E+03  0.30857107867E+03  0.00000000000E+00 0. -1.
          1    1    1    2  502    0  0.40732671781E+02 -0.75760520204E+02  0.90294365883E+03  0.90703145369E+03  0.00000000000E+00 0. -1.
         22    1    3    3    0    0 -0.73710225771E+02 -0.65244339106E+02 -0.15392521507E+02  0.99634084965E+02  0.00000000000E+00 0.  1.
         22    1    3    3    0    0  0.51255035282E+02 -0.33369986132E+02  0.58497739889E+01  0.61439844335E+02  0.00000000000E+00 0.  1.
</event>
<event>
 7    1  0.2895750E-005  0.2213921E+03  0.7818608E-02  0.1138562E+00
          2   -1    0    0  502    0  0.00000000000E+00  0.00000000000E+00  0.78575130758E+03  0.78575130758E+03  0.00000000000E+00 0. -1.
          1   -1    0    0  501    0 -0.00000000000E+00 -0.00000000000E+00 -0.50745570230E+03  0.50745570230E+03  0.00000000000E+00 0. -1.
         25    2    1    2    0    0 -0.17703482854E+03 -0.21310113198E+03  0.38188823243E+02  0.30631160991E+03  0.12495996628E+03 0.  0.
          2    1    1    2  501    0 -0.29270951598E+02  0.22300602083E+03 -0.31930663885E+03  0.39057035672E+03  0.00000000000E+00 0. -1.
          1    1    1    2  502    0  0.20630578014E+03 -0.99048888487E+01  0.55941342089E+03  0.59632504325E+03  0.00000000000E+00 0. -1.
         22    1    3    3    0    0 -0.25307307316E+02  0.11379318581E+02  0.21037807074E+02  0.34821516644E+02  0.00000000000E+00 0.  1.
         22    1    3    3    0    0 -0.15172752123E+03 -0.22448045056E+03  0.17151016169E+02  0.27149009326E+03  0.00000000000E+00 0.  1.
</event>
<event>
 7    1  0.2895750E-005  0.1885786E+03  0.7818608E-02  0.1233574E+00
          2   -1    0    0  502    0  0.00000000000E+00  0.00000000000E+00  0.36158826647E+04  0.36158826647E+04  0.00000000000E+00 0. -1.
          1   -1    0    0  501    0 -0.00000000000E+00 -0.00000000000E+00 -0.14236860601E+04  0.14236860601E+04  0.00000000000E+00 0. -1.
         25    2    1    2    0    0  0.13370245089E+03 -0.12613931365E+03  0.50879357241E+03  0.55523286396E+03  0.12500064832E+03 0.  0.
          2    1    1    2  501    0 -0.18033044717E+03  0.56105411220E+02 -0.13935217788E+04  0.14062609414E+04  0.00000000000E+00 0. -1.
          1    1    1    2  502    0  0.46627996283E+02  0.70033902431E+02  0.30769248109E+04  0.30780749194E+04  0.00000000000E+00 0. -1.
         22    1    3    3    0    0  0.16051629928E+01 -0.72722474989E+02  0.11120122417E+03  0.13287906974E+03  0.00000000000E+00 0.  1.
         22    1    3    3    0    0  0.13209728790E+03 -0.53416838662E+02  0.39759234823E+03  0.42235379423E+03  0.00000000000E+00 0.  1.
</event>
<event>
 7    1  0.2895750E-005  0.2543788E+03  0.7818608E-02  0.1159148E+00
          2   -1    0    0  502    0  0.00000000000E+00  0.00000000000E+00  0.12694771093E+04  0.12694771093E+04  0.00000000000E+00 0. -1.
          1   -1    0    0  501    0 -0.00000000000E+00 -0.00000000000E+00 -0.73897377117E+03  0.73897377117E+03  0.00000000000E+00 0. -1.
         25    2    1    2    0    0 -0.37179546095E+03 -0.58378931059E+02  0.23879659217E+03  0.46291293388E+03  0.12499843019E+03 0.  0.
          2    1    1    2  501    0  0.23275479653E+03  0.80450554559E+02 -0.59697424892E+03  0.64577499248E+03  0.00000000000E+00 0. -1.
          1    1    1    2  502    0  0.13904066442E+03 -0.22071623500E+02  0.88868099486E+03  0.89976295409E+03  0.00000000000E+00 0. -1.
         22    1    3    3    0    0 -0.31728946141E+03 -0.86961175382E+02  0.22838523222E+03  0.40049302446E+03  0.00000000000E+00 0.  1.
         22    1    3    3    0    0 -0.54505999538E+02  0.28582244323E+02  0.10411359951E+02  0.62419909422E+02  0.00000000000E+00 0.  1.
</event>
<event>
 7    1  0.2895750E-005  0.2442625E+03  0.7818608E-02  0.1123897E+00
          2   -1    0    0  502    0  0.00000000000E+00  0.00000000000E+00  0.20943982283E+03  0.20943982283E+03  0.00000000000E+00 0. -1.
          1   -1    0    0  501    0 -0.00000000000E+00 -0.00000000000E+00 -0.11448953205E+04  0.11448953205E+04  0.00000000000E+00 0. -1.
         25    2    1    2    0    0 -0.30276153262E+03 -0.10122162405E+03 -0.28101954202E+03  0.44329080684E+03  0.12499757447E+03 0.  0.
          2    1    1    2  501    0  0.21818574415E+03 -0.10625710526E+03 -0.64234856918E+03  0.68666387388E+03  0.00000000000E+00 0. -1.
          1    1    1    2  502    0  0.84575788461E+02  0.20747872931E+03 -0.12087386510E+02  0.22438046265E+03  0.00000000000E+00 0. -1.
         22    1    3    3    0    0 -0.36955759363E+02 -0.59349033997E+02 -0.32884393914E+02  0.77262017509E+02  0.00000000000E+00 0. -1.
         22    1    3    3    0    0 -0.26580577325E+03 -0.41872590050E+02 -0.24813514811E+03  0.36602878933E+03  0.00000000000E+00 0. -1.
</event>
<event>
 7    1  0.2895750E-005  0.5417295E+02  0.7818608E-02  0.1438975E+00
          2   -1    0    0  502    0  0.00000000000E+00  0.00000000000E+00  0.16669388238E+03  0.16669388238E+03  0.00000000000E+00 0. -1.
          1   -1    0    0  501    0 -0.00000000000E+00 -0.00000000000E+00 -0.57961613776E+03  0.57961613776E+03  0.00000000000E+00 0. -1.
         25    2    1    2    0    0  0.67888709435E+02 -0.60883083219E+02  0.28562138843E+02  0.15734050684E+03  0.12499845049E+03 0.  0.
          2    1    1    2  501    0 -0.45594123179E+02  0.16210043503E+02 -0.50548620543E+03  0.50779709871E+03  0.00000000000E+00 0. -1.
          1    1    1    2  502    0 -0.22294586256E+02  0.44673039716E+02  0.64001811209E+02  0.81172414599E+02  0.00000000000E+00 0. -1.
         22    1    3    3    0    0 -0.26677356988E+01  0.20685616208E+02 -0.28506698986E+02  0.35321996245E+02  0.00000000000E+00 0.  1.
         22    1    3    3    0    0  0.70556445134E+02 -0.81568699427E+02  0.57068837829E+02  0.12201851059E+03  0.00000000000E+00 0.  1.
</event>
<event>
 7    1  0.2895750E-005  0.4334593E+02  0.7818608E-02  0.1561275E+00
          2   -1    0    0  502    0  0.00000000000E+00  0.00000000000E+00  0.24733473468E+03  0.24733473468E+03  0.00000000000E+00 0. -1.
          1   -1    0    0  501    0 -0.00000000000E+00 -0.00000000000E+00 -0.19385233077E+03  0.19385233077E+03  0.00000000000E+00 0. -1.
         25    2    1    2    0    0 -0.19283612362E+02 -0.65097991795E+02  0.16301369918E+02  0.14317859543E+03  0.12499907715E+03 0.  0.
          2    1    1    2  501    0  0.11109824053E+02  0.23579050283E+02 -0.12639142918E+03  0.12905112620E+03  0.00000000000E+00 0. -1.
          1    1    1    2  502    0  0.81737883087E+01  0.41518941512E+02  0.16357246317E+03  0.16895734381E+03  0.00000000000E+00 0. -1.
         22    1    3    3    0    0  0.54285312391E+01 -0.98606899778E+02  0.21936467848E+02  0.10116322581E+03  0.00000000000E+00 0. -1.
         22    1    3    3    0    0 -0.24712143601E+02  0.33508907983E+02 -0.56350979308E+01  0.42015369619E+02  0.00000000000E+00 0. -1.
</event>
<event>
 7    1  0.2895750E-005  0.1902987E+03  0.7818608E-02  0.1292635E+00
          2   -1    0    0  502    0  0.00000000000E+00  0.00000000000E+00  0.30518276826E+03  0.30518276826E+03  0.00000000000E+00 0. -1.
          1   -1    0    0  501    0 -0.00000000000E+00 -0.00000000000E+00 -0.23359934673E+03  0.23359934673E+03  0.00000000000E+00 0. -1.
         25    2    1    2    0    0 -0.15312578326E+03  0.88621135264E+02  0.21964235718E+02  0.21771665000E+03  0.12496759950E+03 0.  0.
          2    1    1    2  501    0  0.19100491316E+03 -0.61163748719E+02 -0.53720575144E+02  0.20762895078E+03  0.00000000000E+00 0. -1.
          1    1    1    2  502    0 -0.37879129905E+02 -0.27457386544E+02  0.10333976096E+03  0.11343651420E+03  0.00000000000E+00 0. -1.
         22    1    3    3    0    0 -0.12123730310E+02  0.10925899129E+02 -0.41557150152E+02  0.44647024953E+02  0.00000000000E+00 0.  1.
         22    1    3    3    0    0 -0.14100205294E+03  0.77695236135E+02  0.63521385869E+02  0.17306962505E+03  0.00000000000E+00 0.  1.
</event>
<event>
 7    1  0.2895750E-005  0.1004594E+03  0.7818608E-02  0.1319084E+00
          2   -1    0    0  502    0  0.00000000000E+00  0.00000000000E+00  0.52315141116E+03  0.52315141116E+03  0.00000000000E+00 0. -1.
          1   -1    0    0  501    0 -0.00000000000E+00 -0.00000000000E+00 -0.12986747418E+04  0.12986747418E+04  0.00000000000E+00 0. -1.
         25    2    1    2    0    0 -0.13221859640E+03  0.88356593786E+02 -0.19039478349E+02  0.20317193318E+03  0.12501075074E+03 0.  0.
          2    1    1    2  501    0  0.94724404813E+02 -0.29717047521E+02 -0.11826662569E+04  0.11868257205E+04  0.00000000000E+00 0. -1.
          1    1    1    2  502    0  0.37494191582E+02 -0.58639546265E+02  0.42618240458E+03  0.43182849925E+03  0.00000000000E+00 0. -1.
         22    1    3    3    0    0 -0.48785626400E+02  0.53498887501E+02 -0.68871986166E+02  0.99927567696E+02  0.00000000000E+00 0. -1.
         22    1    3    3    0    0 -0.83432969996E+02  0.34857706285E+02  0.49832507817E+02  0.10324436549E+03  0.00000000000E+00 0. -1.
</event>
<event>
 7    1  0.2895750E-005  0.1645462E+03  0.7818608E-02  0.1406313E+00
          2   -1    0    0  502    0  0.00000000000E+00  0.00000000000E+00  0.20402944225E+04  0.20402944225E+04  0.00000000000E+00 0. -1.
          1   -1    0    0  501    0 -0.00000000000E+00 -0.00000000000E+00 -0.70152790900E+02  0.70152790900E+02  0.00000000000E+00 0. -1.
         25    2    1    2    0    0  0.12111900668E+03  0.94958859772E+02  0.91706585387E+03  0.93825525744E+03  0.12500459579E+03 0.  0.
          2    1    1    2  501    0 -0.11933607961E+03 -0.11534259260E+03  0.56373593974E+02  0.17527976398E+03  0.00000000000E+00 0. -1.
          1    1    1    2  502    0 -0.17829270639E+01  0.20383732826E+02  0.99670218375E+03  0.99691219197E+03  0.00000000000E+00 0. -1.
         22    1    3    3    0    0 -0.48993177365E+01  0.66699126115E+02  0.38304788131E+03  0.38884245667E+03  0.00000000000E+00 0. -1.
         22    1    3    3    0    0  0.12601832441E+03  0.28259733657E+02  0.53401797256E+03  0.54941280077E+03  0.00000000000E+00 0. -1.
</event>
<event>
 7    1  0.2895750E-005  0.4143836E+03  0.7818608E-02  0.1198999E+00
          2   -1    0    0  502    0  0.00000000000E+00  0.00000000000E+00  0.22447691413E+04  0.22447691413E+04  0.00000000000E+00 0. -1.
          1   -1    0    0  501    0 -0.00000000000E+00 -0.00000000000E+00 -0.14732098126E+04  0.14732098126E+04  0.00000000000E+00 0. -1.
         25    2    1    2    0    0 -0.12565380227E+03 -0.41124717436E+03 -0.99979205743E+03  0.10955005042E+04  0.12499632020E+03 0.  0.
          2    1    1    2  501    0  0.14339995205E+03  0.35900511536E+03 -0.33733387471E+03  0.51307149807E+03  0.00000000000E+00 0. -1.
          1    1    1    2  502    0 -0.17746149785E+02  0.52242059008E+02  0.21086852608E+04  0.21094069516E+04  0.00000000000E+00 0. -1.
         22    1    3    3    0    0 -0.52138471960E+02 -0.33195770362E+02 -0.11603676600E+03  0.13147209016E+03  0.00000000000E+00 0. -1.
         22    1    3    3    0    0 -0.73515330307E+02 -0.37805140400E+03 -0.88375529143E+03  0.96402841400E+03  0.00000000000E+00 0. -1.
</event>
<event>
 7    1  0.6659350E-005  0.1470841E+03  0.7818608E-02  0.1255012E+00
          2   -1    0    0  502    0  0.00000000000E+00  0.00000000000E+00  0.67680533752E+03  0.67680533752E+03  0.00000000000E+00 0. -1.
          1   -1    0    0  501    0 -0.00000000000E+00 -0.00000000000E+00 -0.19389960611E+04  0.19389960611E+04  0.00000000000E+00 0. -1.
         25    2    1    2    0    0  0.77871026142E+02  0.18951892276E+03 -0.36269326880E+03  0.43491389585E+03  0.12498948267E+03 0.  0.
          2    1    1    2  501    0  0.23044425585E+02 -0.83790113503E+02 -0.15306082588E+04  0.15330732111E+04  0.00000000000E+00 0. -1.
          1    1    1    2  502    0 -0.10091545173E+03 -0.10572880925E+03  0.63111080404E+03  0.64781429166E+03  0.00000000000E+00 0. -1.
         22    1    3    3    0    0  0.11218271482E+02  0.53037877336E+02 -0.16180646470E+02  0.56574546993E+02  0.00000000000E+00 0. -1.
         22    1    3    3    0    0  0.66652754660E+02  0.13648104542E+03 -0.34651262233E+03  0.37833934886E+03  0.00000000000E+00 0. -1.
</event>
<event>
 7    1  0.2895750E-005  0.6892841E+02  0.7818608E-02  0.1529398E+00
          2   -1    0    0  502    0  0.00000000000E+00  0.00000000000E+00  0.42438971392E+04  0.42438971392E+04  0.00000000000E+00 0. -1.
          1   -1    0    0  501    0 -0.00000000000E+00 -0.00000000000E+00 -0.14260383227E+02  0.14260383227E+02  0.00000000000E+00 0. -1.
         25    2    1    2    0    0  0.14227668980E+02  0.50018216611E+02  0.44735853509E+03  0.46739617008E+03  0.12500108929E+03 0.  0.
          2    1    1    2  501    0 -0.65439520222E+01  0.19048937775E+02  0.21948811600E+02  0.29789858493E+02  0.00000000000E+00 0. -1.
          1    1    1    2  502    0 -0.76837169582E+01 -0.69067154386E+02  0.37603294093E+04  0.37609714939E+04  0.00000000000E+00 0. -1.
         22    1    3    3    0    0  0.58674435197E+02 -0.11175651705E+02  0.20189389010E+03  0.21054388472E+03  0.00000000000E+00 0. -1.
         22    1    3    3    0    0 -0.44446766216E+02  0.61193868316E+02  0.24546464500E+03  0.25685228535E+03  0.00000000000E+00 0. -1.
</event>
<event>
 7    1  0.2895750E-005  0.3094263E+03  0.7818608E-02  0.1267162E+00
          2   -1    0    0  502    0  0.00000000000E+00  0.00000000000E+00  0.50125907314E+03  0.50125907314E+03  0.00000000000E+00 0. -1.
          1   -1    0    0  501    0 -0.00000000000E+00 -0.00000000000E+00 -0.41604719958E+03  0.41604719958E+03  0.00000000000E+00 0. -1.
         25    2    1    2    0    0 -0.26580505152E+03  0.15246867122E+03  0.79267734847E+02  0.34030207774E+03  0.12499243661E+03 0.  0.
          2    1    1    2  501    0  0.15017456114E+02  0.33450118539E+02 -0.19978789879E+03  0.20312468811E+03  0.00000000000E+00 0. -1.
          1    1    1    2  502    0  0.25078759541E+03 -0.18591878976E+03  0.20573203750E+03  0.37387950686E+03  0.00000000000E+00 0. -1.
         22    1    3    3    0    0 -0.26011882303E+03  0.12544574777E+03  0.38904792742E+02  0.29139667230E+03  0.00000000000E+00 0.  1.
         22    1    3    3    0    0 -0.56862284933E+01  0.27022923453E+02  0.40362942106E+02  0.48905405446E+02  0.00000000000E+00 0.  1.
</event>
<event>
 7    1  0.2895750E-005  0.1238731E+03  0.7818608E-02  0.1267679E+00
          2   -1    0    0  502    0  0.00000000000E+00  0.00000000000E+00  0.15048136478E+03  0.15048136478E+03  0.00000000000E+00 0. -1.
          1   -1    0    0  501    0 -0.00000000000E+00 -0.00000000000E+00 -0.12495928442E+04  0.12495928442E+04  0.00000000000E+00 0. -1.
         25    2    1    2    0    0  0.60453365114E+02 -0.54130692732E+02  0.63460298013E+02  0.16197793414E+03  0.12499960190E+03 0.  0.
          2    1    1    2  501    0 -0.12558376006E+03 -0.96113877299E+01 -0.11362916452E+04  0.11432507872E+04  0.00000000000E+00 0. -1.
          1    1    1    2  502    0  0.65130394944E+02  0.63742080462E+02 -0.26280132224E+02  0.94845487594E+02  0.00000000000E+00 0. -1.
         22    1    3    3    0    0  0.62162718772E+02 -0.22118251448E+02  0.95877121992E+02  0.11638661080E+03  0.00000000000E+00 0. -1.
         22    1    3    3    0    0 -0.17093536577E+01 -0.32012441284E+02 -0.32416823979E+02  0.45591323339E+02  0.00000000000E+00 0. -1.
</event>
<event>
 7    1  0.2895750E-005  0.2946086E+03  0.7818608E-02  0.1172497E+00
          2   -1    0    0  502    0  0.00000000000E+00  0.00000000000E+00  0.13516568016E+04  0.13516568016E+04  0.00000000000E+00 0. -1.
          1   -1    0    0  501    0 -0.00000000000E+00 -0.00000000000E+00 -0.14250388079E+03  0.14250388079E+03  0.00000000000E+00 0. -1.
         25    2    1    2    0    0 -0.21298224876E+03  0.23193832154E+03  0.20636348107E+03  0.39669664200E+03  0.12500206466E+03 0.  0.
          2    1    1    2  501    0  0.24075794687E+03 -0.13147817602E+03  0.39566613092E+03  0.48145881123E+03  0.00000000000E+00 0. -1.
          1    1    1    2  502    0 -0.27775698111E+02 -0.10046014551E+03  0.60712330877E+03  0.61600522912E+03  0.00000000000E+00 0. -1.
         22    1    3    3    0    0 -0.91183784034E+02  0.69016914074E+02  0.14410158587E+03  0.18396489869E+03  0.00000000000E+00 0.  1.
         22    1    3    3    0    0 -0.12179846472E+03  0.16292140746E+03  0.62261895204E+02  0.21273174331E+03  0.00000000000E+00 0.  1.
</event>
<event>
 7    1  0.2895750E-005  0.1772625E+03  0.7818608E-02  0.1320266E+00
          2   -1    0    0  502    0  0.00000000000E+00  0.00000000000E+00  0.13591059620E+04  0.13591059620E+04  0.00000000000E+00 0. -1.
          1   -1    0    0  501    0 -0.00000000000E+00 -0.00000000000E+00 -0.11345045933E+03  0.11345045933E+03  0.00000000000E+00 0. -1.
         25    2    1    2    0    0  0.12013398600E+03  0.81098286872E+02  0.20184273569E+03  0.27816485458E+03  0.12500435852E+03 0.  0.
          2    1    1    2  501    0  0.35024545028E+02  0.17224275144E+02 -0.62089304356E+02  0.73338094630E+02  0.00000000000E+00 0. -1.
          1    1    1    2  502    0 -0.15515853103E+03 -0.98322562016E+02  0.11059020714E+04  0.11210534721E+04  0.00000000000E+00 0. -1.
         22    1    3    3    0    0 -0.16341010495E+02  0.15241076278E+02  0.81936893793E+02  0.84929226975E+02  0.00000000000E+00 0.  1.
         22    1    3    3    0    0  0.13647499650E+03  0.65857210594E+02  0.11990584190E+03  0.19323562761E+03  0.00000000000E+00 0.  1.
</event>
<event>
 7    1  0.2895750E-005  0.4932803E+02  0.7818608E-02  0.1514539E+00
          2   -1    0    0  502    0  0.00000000000E+00  0.00000000000E+00  0.51351391120E+02  0.51351391120E+02  0.00000000000E+00 0. -1.
          1   -1    0    0  501    0 -0.00000000000E+00 -0.00000000000E+00 -0.55268644757E+03  0.55268644757E+03  0.00000000000E+00 0. -1.
         25    2    1    2    0    0  0.65121889516E+02 -0.28051742134E+02 -0.40577518361E+03  0.43047203512E+03  0.12499965063E+03 0.  0.
          2    1    1    2  501    0 -0.42912928022E+02  0.63141602998E+01 -0.12404471500E+03  0.13140958614E+03  0.00000000000E+00 0. -1.
          1    1    1    2  502    0 -0.22208961494E+02  0.21737581834E+02  0.28484842158E+02  0.42156217423E+02  0.00000000000E+00 0. -1.
         22    1    3    3    0    0 -0.12713386312E+02  0.65243077131E+00  0.32338645768E+01  0.13134448505E+02  0.00000000000E+00 0.  1.
         22    1    3    3    0    0  0.77835275828E+02 -0.28704172905E+02 -0.40900904818E+03  0.41733758662E+03  0.00000000000E+00 0.  1.
</event>
<event>
 7    1  0.2895750E-005  0.2262819E+03  0.7818608E-02  0.1263203E+00
          2   -1    0    0  502    0  0.00000000000E+00  0.00000000000E+00  0.59025381854E+03  0.59025381854E+03  0.00000000000E+00 0. -1.
          1   -1    0    0  501    0 -0.00000000000E+00 -0.00000000000E+00 -0.17881367022E+04  0.17881367022E+04  0.00000000000E+00 0. -1.
         25    2    1    2    0    0  0.26510877782E+02 -0.27031792949E+03 -0.17748050789E+03  0.34770542460E+03  0.12500048790E+03 0.  0.
          2    1    1    2  501    0  0.97666524329E+01  0.51187662562E+02 -0.15006535921E+04  0.15015581134E+04  0.00000000000E+00 0. -1.
          1    1    1    2  502    0 -0.36277530215E+02  0.21913026693E+03  0.48025121635E+03  0.52912698277E+03  0.00000000000E+00 0. -1.
         22    1    3    3    0    0  0.13390972070E+02 -0.12916754937E+03 -0.12912809910E+02  0.13050024752E+03  0.00000000000E+00 0. -1.
         22    1    3    3    0    0  0.13119905713E+02 -0.14115038012E+03 -0.16456769798E+03  0.21720517709E+03  0.00000000000E+00 0. -1.
</event>
<event>
 7    1  0.2895750E-005  0.1843879E+03  0.7818608E-02  0.1312883E+00
          2   -1    0    0  502    0  0.00000000000E+00  0.00000000000E+00  0.66027912001E+03  0.66027912001E+03  0.00000000000E+00 0. -1.
          1   -1    0    0  501    0 -0.00000000000E+00 -0.00000000000E+00 -0.24112973867E+03  0.24112973867E+03  0.00000000000E+00 0. -1.
         25    2    1    2    0    0 -0.31594597997E+02 -0.16542215137E+03  0.31854185548E+03  0.38138434514E+03  0.12498959255E+03 0.  0.
          2    1    1    2  501    0 -0.24191055361E+01  0.18665076049E+03 -0.16637386552E+03  0.25004923833E+03  0.00000000000E+00 0. -1.
          1    1    1    2  502    0  0.34013703533E+02 -0.21228609123E+02  0.26698139138E+03  0.26997527520E+03  0.00000000000E+00 0. -1.
         22    1    3    3    0    0  0.12042779971E+02 -0.28966429130E+02 -0.79883240454E+00  0.31380259706E+02  0.00000000000E+00 0.  1.
         22    1    3    3    0    0 -0.43637377968E+02 -0.13645572224E+03  0.31934068788E+03  0.35000408544E+03  0.00000000000E+00 0.  1.
</event>
<event>
 7    1  0.2895750E-005  0.6412477E+03  0.7818608E-02  0.1174158E+00
          2   -1    0    0  502    0  0.00000000000E+00  0.00000000000E+00  0.16646144044E+04  0.16646144044E+04  0.00000000000E+00 0. -1.
          1   -1    0    0  501    0 -0.00000000000E+00 -0.00000000000E+00 -0.22558695823E+04  0.22558695823E+04  0.00000000000E+00 0. -1.
         25    2    1    2    0    0  0.29668569907E+03 -0.55686214207E+03  0.11676909345E+04  0.13331341579E+04  0.12500686044E+03 0.  0.
          2    1    1    2  501    0  0.34219243239E+02 -0.32204186400E+02 -0.18971351480E+04  0.18977170063E+04  0.00000000000E+00 0. -1.
          1    1    1    2  502    0 -0.33090494231E+03  0.58906632847E+03  0.13818903562E+03  0.68963282241E+03  0.00000000000E+00 0. -1.
         22    1    3    3    0    0  0.14485005282E+03 -0.38341711278E+03  0.80609433215E+03  0.90431094901E+03  0.00000000000E+00 0.  1.
         22    1    3    3    0    0  0.15183564625E+03 -0.17344502929E+03  0.36159660240E+03  0.42882320894E+03  0.00000000000E+00 0.  1.
</event>
<event>
 7    1  0.2895750E-005  0.6326703E+02  0.7818608E-02  0.1423980E+00
          2   -1    0    0  502    0  0.00000000000E+00  0.00000000000E+00  0.77040695875E+03  0.77040695875E+03  0.00000000000E+00 0. -1.
          1   -1    0    0  501    0 -0.00000000000E+00 -0.00000000000E+00 -0.14069859536E+03  0.14069859536E+03  0.00000000000E+00 0. -1.
         25    2    1    2    0    0  0.21558146484E+02  0.30582798582E+01  0.97159966877E+02  0.15981123998E+03  0.12500186601E+03 0.  0.
          2    1    1    2  501    0 -0.59943621585E+02 -0.29145826220E+02 -0.98285733836E+02  0.11875522065E+03  0.00000000000E+00 0. -1.
          1    1    1    2  502    0  0.38385475102E+02  0.26087546362E+02  0.63083413035E+03  0.63253909348E+03  0.00000000000E+00 0. -1.
         22    1    3    3    0    0  0.56128728987E+01 -0.30480850819E+02 -0.20013598604E+02  0.36893505363E+02  0.00000000000E+00 0.  1.
         22    1    3    3    0    0  0.15945273585E+02  0.33539130678E+02  0.11717356548E+03  0.12291773462E+03  0.00000000000E+00 0.  1.
</event>
<event>
 7    1  0.2895750E-005  0.1049630E+03  0.7818608E-02  0.1273162E+00
          2   -1    0    0  502    0  0.00000000000E+00  0.00000000000E+00  0.29561242284E+03  0.29561242284E+03  0.00000000000E+00 0. -1.
          1   -1    0    0  501    0 -0.00000000000E+00 -0.00000000000E+00 -0.15909549354E+04  0.15909549354E+04  0.00000000000E+00 0. -1.
         25    2    1    2    0    0  0.27936966301E+02 -0.51372218308E+02 -0.13076289671E+03  0.19011405610E+03  0.12499936108E+03 0.  0.
          2    1    1    2  501    0 -0.95191598970E+02 -0.36641203604E+02 -0.14170690217E+04  0.14207352430E+04  0.00000000000E+00 0. -1.
          1    1    1    2  502    0  0.67254632669E+02  0.88013421911E+02  0.25248940589E+03  0.27571805914E+03  0.00000000000E+00 0. -1.
         22    1    3    3    0    0  0.68429842818E+02 -0.32497392691E+01 -0.96940100846E+02  0.11870377983E+03  0.00000000000E+00 0.  1.
         22    1    3    3    0    0 -0.40492876517E+02 -0.48122479038E+02 -0.33822795865E+02  0.71410276274E+02  0.00000000000E+00 0.  1.
</event>
<event>
 7    1  0.2895750E-005  0.2159852E+03  0.7818608E-02  0.1180921E+00
          2   -1    0    0  502    0  0.00000000000E+00  0.00000000000E+00  0.26730473832E+04  0.26730473832E+04  0.00000000000E+00 0. -1.
          1   -1    0    0  501    0 -0.00000000000E+00 -0.00000000000E+00 -0.12916274175E+04  0.12916274175E+04  0.00000000000E+00 0. -1.
         25    2    1    2    0    0 -0.20336561277E+03 -0.13327321597E+03  0.13256147641E+03  0.30383750356E+03  0.12500144396E+03 0.  0.
          2    1    1    2  501    0  0.90606133873E+02  0.19646152269E+03 -0.11945644565E+04  0.12139978757E+04  0.00000000000E+00 0. -1.
          1    1    1    2  502    0  0.11275947889E+03 -0.63188306718E+02  0.24434229459E+04  0.24468394215E+04  0.00000000000E+00 0. -1.
         22    1    3    3    0    0 -0.94402936187E+00 -0.57083812083E+02  0.26278007472E+02  0.62848917811E+02  0.00000000000E+00 0. -1.
         22    1    3    3    0    0 -0.20242158340E+03 -0.76189403886E+02  0.10628346893E+03  0.24098858575E+03  0.00000000000E+00 0. -1.
</event>
<event>
 7    1  0.2895750E-005  0.2214164E+03  0.7818608E-02  0.1287545E+00
          2   -1    0    0  502    0  0.00000000000E+00  0.00000000000E+00  0.81148968075E+03  0.81148968075E+03  0.00000000000E+00 0. -1.
          1   -1    0    0  501    0 -0.00000000000E+00 -0.00000000000E+00 -0.59677176757E+03  0.59677176757E+03  0.00000000000E+00 0. -1.
         25    2    1    2    0    0  0.25756756261E+02  0.25212740318E+03 -0.51935392528E+02  0.28732124451E+03  0.12499829848E+03 0.  0.
          2    1    1    2  501    0 -0.76016302277E+01 -0.21406365802E+03 -0.39958137281E+03  0.45337215173E+03  0.00000000000E+00 0. -1.
          1    1    1    2  502    0 -0.18155126033E+02 -0.38063745162E+02  0.66623467852E+03  0.66756805208E+03  0.00000000000E+00 0. -1.
         22    1    3    3    0    0  0.34397901526E+02  0.24311461659E+03 -0.78656379459E+02  0.25782699327E+03  0.00000000000E+00 0.  1.
         22    1    3    3    0    0 -0.86411452652E+01  0.90127865910E+01  0.26720986931E+02  0.29494251240E+02  0.00000000000E+00 0.  1.
</event>
<event>
 7    1  0.2895750E-005  0.3617033E+03  0.7818608E-02  0.1200507E+00
          2   -1    0    0  502    0  0.00000000000E+00  0.00000000000E+00  0.28763121130E+04  0.28763121130E+04  0.00000000000E+00 0. -1.
          1   -1    0    0  501    0 -0.00000000000E+00 -0.00000000000E+00 -0.13490512704E+03  0.13490512704E+03  0.00000000000E+00 0. -1.
         25    2    1    2    0    0 -0.82495725314E+02 -0.35473677165E+03  0.20913196570E+04  0.21264726377E+04  0.12499699740E+03 0.  0.
          2    1    1    2  501    0  0.20671902489E+02  0.36140907432E+03  0.16873734204E+03  0.39939471347E+03  0.00000000000E+00 0. -1.
          1    1    1    2  502    0  0.61823822825E+02 -0.66723026636E+01  0.48134998698E+03  0.48534988890E+03  0.00000000000E+00 0. -1.
         22    1    3    3    0    0 -0.70122230063E+02 -0.34853241770E+03  0.17971275184E+04  0.18319550461E+04  0.00000000000E+00 0. -1.
         22    1    3    3    0    0 -0.12373495251E+02 -0.62043539491E+01  0.29419213854E+03  0.29451759161E+03  0.00000000000E+00 0. -1.
</event>
<event>
 7    1  0.2895750E-005  0.1251450E+03  0.7818608E-02  0.1301486E+00
          2   -1    0    0  502    0  0.00000000000E+00  0.00000000000E+00  0.17796300054E+04  0.17796300054E+04  0.00000000000E+00 0. -1.
          1   -1    0    0  501    0 -0.00000000000E+00 -0.00000000000E+00 -0.61601291883E+03  0.61601291883E+03  0.00000000000E+00 0. -1.
         25    2    1    2    0    0  0.20000701644E+02  0.12272211104E+03 -0.50771978498E+03  0.53746136355E+03  0.12499837057E+03 0.  0.
          2    1    1    2  501    0  0.44701537376E+02 -0.13317983160E+03 -0.39626305582E+02  0.14596348544E+03  0.00000000000E+00 0. -1.
          1    1    1    2  502    0 -0.64702239020E+02  0.10457720565E+02  0.17109631771E+04  0.17122180752E+04  0.00000000000E+00 0. -1.
         22    1    3    3    0    0  0.70414328100E+02  0.60566059989E+02 -0.32439143982E+03  0.33742589031E+03  0.00000000000E+00 0. -1.
         22    1    3    3    0    0 -0.50413626457E+02  0.62156051046E+02 -0.18332834517E+03  0.20003547324E+03  0.00000000000E+00 0. -1.
</event>
<event>
 7    1  0.2895750E-005  0.6960156E+03  0.7818608E-02  0.1090927E+00
          2   -1    0    0  502    0  0.00000000000E+00  0.00000000000E+00  0.35344163617E+04  0.35344163617E+04  0.00000000000E+00 0. -1.
          1   -1    0    0  501    0 -0.00000000000E+00 -0.00000000000E+00 -0.70003134434E+03  0.70003134434E+03  0.00000000000E+00 0. -1.
         25    2    1    2    0    0 -0.71036702589E+02  0.76375907082E+03  0.16684919287E+04  0.18406147738E+04  0.12499319145E+03 0.  0.
          2    1    1    2  501    0  0.16172882743E+02 -0.11881705561E+03 -0.54842956566E+03  0.56138582394E+03  0.00000000000E+00 0. -1.
          1    1    1    2  502    0  0.54863819846E+02 -0.64494201521E+03  0.17143226543E+04  0.18324471083E+04  0.00000000000E+00 0. -1.
         22    1    3    3    0    0 -0.58238545106E+02  0.12101385536E+03  0.28690509722E+03  0.31678165372E+03  0.00000000000E+00 0. -1.
         22    1    3    3    0    0 -0.12798157483E+02  0.64274521546E+03  0.13815868315E+04  0.15238331201E+04  0.00000000000E+00 0. -1.
</event>
<event>
 7    1  0.2895750E-005  0.1461792E+03  0.7818608E-02  0.1284285E+00
          2   -1    0    0  502    0  0.00000000000E+00  0.00000000000E+00  0.29927977583E+03  0.29927977583E+03  0.00000000000E+00 0. -1.
          1   -1    0    0  501    0 -0.00000000000E+00 -0.00000000000E+00 -0.27013202729E+03  0.27013202729E+03  0.00000000000E+00 0. -1.
         25    2    1    2    0    0  0.11937695760E+03 -0.10755002083E+03  0.21852116032E+03  0.29865477075E+03  0.12500123838E+03 0.  0.
          2    1    1    2  501    0 -0.65570497175E+02  0.62772291777E+01 -0.11954438190E+03  0.13649085299E+03  0.00000000000E+00 0. -1.
          1    1    1    2  502    0 -0.53806460426E+02  0.10127279165E+03 -0.69829029891E+02  0.13426617939E+03  0.00000000000E+00 0. -1.
         22    1    3    3    0    0  0.11952394608E+03 -0.62641515803E+02  0.21469662584E+03  0.25358346621E+03  0.00000000000E+00 0.  1.
         22    1    3    3    0    0 -0.14698848253E+00 -0.44908505023E+02  0.38245344872E+01  0.45071304541E+02  0.00000000000E+00 0.  1.
</event>
<event>
 7    1  0.2895750E-005  0.5555161E+03  0.7818608E-02  0.1127731E+00
          2   -1    0    0  502    0  0.00000000000E+00  0.00000000000E+00  0.15612210779E+04  0.15612210779E+04  0.00000000000E+00 0. -1.
          1   -1    0    0  501    0 -0.00000000000E+00 -0.00000000000E+00 -0.71402787309E+03  0.71402787309E+03  0.00000000000E+00 0. -1.
         25    2    1    2    0    0  0.60645031062E+03  0.20178674697E+02  0.12529457534E+04  0.13977434271E+04  0.12499787580E+03 0.  0.
          2    1    1    2  501    0 -0.54380029135E+03 -0.90193201673E+02 -0.50015543056E+03  0.74431782540E+03  0.00000000000E+00 0. -1.
          1    1    1    2  502    0 -0.62650019272E+02  0.70014526976E+02  0.94402882002E+02  0.13318769850E+03  0.00000000000E+00 0. -1.
         22    1    3    3    0    0  0.53578834666E+01  0.16385033576E+02  0.22750005094E+02  0.28543632780E+02  0.00000000000E+00 0.  1.
         22    1    3    3    0    0  0.60109242715E+03  0.37936411209E+01  0.12301957483E+04  0.13691997944E+04  0.00000000000E+00 0.  1.
</event>
<event>
 7    1  0.2895750E-005  0.5877885E+02  0.7818608E-02  0.1527456E+00
          2   -1    0    0  502    0  0.00000000000E+00  0.00000000000E+00  0.67956726451E+03  0.67956726451E+03  0.00000000000E+00 0. -1.
          1   -1    0    0  501    0 -0.00000000000E+00 -0.00000000000E+00 -0.17476301269E+03  0.17476301269E+03  0.00000000000E+00 0. -1.
         25    2    1    2    0    0  0.52817594718E+02 -0.35250427469E+02  0.58086348979E+03  0.59754475994E+03  0.12500022167E+03 0.  0.
          2    1    1    2  501    0 -0.57580533579E+02  0.11804510643E+02 -0.15949837191E+03  0.16998410208E+03  0.00000000000E+00 0. -1.
          1    1    1    2  502    0  0.47629388612E+01  0.23445916826E+02  0.83439133951E+02  0.86801415178E+02  0.00000000000E+00 0. -1.
         22    1    3    3    0    0 -0.12452233133E+02 -0.46829355308E+02  0.43048871242E+03  0.43320731544E+03  0.00000000000E+00 0.  1.
         22    1    3    3    0    0  0.65269827851E+02  0.11578927840E+02  0.15037477736E+03  0.16433744450E+03  0.00000000000E+00 0.  1.
</event>
<event>
 7    1  0.2895750E-005  0.1599134E+03  0.7818608E-02  0.1209916E+00
          2   -1    0    0  502    0  0.00000000000E+00  0.00000000000E+00  0.47476652984E+02  0.47476652984E+02  0.00000000000E+00 0. -1.
          1   -1    0    0  501    0 -0.00000000000E+00 -0.00000000000E+00 -0.23449943151E+04  0.23449943151E+04  0.00000000000E+00 0. -1.
         25    2    1    2    0    0 -0.73003097544E+02  0.18256749628E+03 -0.40584000262E+03  0.46796552781E+03  0.12500113816E+03 0.  0.
          2    1    1    2  501    0  0.11942582990E+03 -0.43502637300E+02 -0.15146898466E+04  0.15200132696E+04  0.00000000000E+00 0. -1.
          1    1    1    2  502    0 -0.46422732360E+02 -0.13906485898E+03 -0.37698781290E+03  0.40449217070E+03  0.00000000000E+00 0. -1.
         22    1    3    3    0    0 -0.21930509236E+02  0.16271398959E+03 -0.36302341308E+03  0.39842538585E+03  0.00000000000E+00 0.  1.
         22    1    3    3    0    0 -0.51072588307E+02  0.19853506693E+02 -0.42816589542E+02  0.69540141964E+02  0.00000000000E+00 0.  1.
</event>
<event>
 7    1  0.2895750E-005  0.3178617E+02  0.7818608E-02  0.1597855E+00
          2   -1    0    0  502    0  0.00000000000E+00  0.00000000000E+00  0.10826948134E+04  0.10826948134E+04  0.00000000000E+00 0. -1.
          1   -1    0    0  501    0 -0.00000000000E+00 -0.00000000000E+00 -0.43164829300E+02  0.43164829300E+02  0.00000000000E+00 0. -1.
         25    2    1    2    0    0 -0.10548026704E+02  0.18886711235E+02  0.47138791957E+03  0.48815938946E+03  0.12500020032E+03 0.  0.
          2    1    1    2  501    0  0.32108405278E+02 -0.47187003872E+00 -0.26956599553E+02  0.41926490555E+02  0.00000000000E+00 0. -1.
          1    1    1    2  502    0 -0.21560378574E+02 -0.18414841196E+02  0.59509866413E+03  0.59577376272E+03  0.00000000000E+00 0. -1.
         22    1    3    3    0    0 -0.42453181050E+01 -0.36573193471E+02  0.45043754398E+02  0.58176980127E+02  0.00000000000E+00 0. -1.
         22    1    3    3    0    0 -0.63027085991E+01  0.55459904705E+02  0.42634416517E+03  0.42998240934E+03  0.00000000000E+00 0. -1.
</event>
<event>
 7    1  0.2895750E-005  0.1706932E+03  0.7818608E-02  0.1258755E+00
          2   -1    0    0  502    0  0.00000000000E+00  0.00000000000E+00  0.15817023990E+04  0.15817023990E+04  0.00000000000E+00 0. -1.
          1   -1    0    0  501    0 -0.00000000000E+00 -0.00000000000E+00 -0.38526642255E+03  0.38526642255E+03  0.00000000000E+00 0. -1.
         25    2    1    2    0    0 -0.13550566030E+02  0.15855354439E+03  0.90118653681E+03  0.92362631585E+03  0.12500221172E+03 0.  0.
          2    1    1    2  501    0  0.85031977253E+02 -0.14865467579E+03 -0.35233447711E+03  0.39175021832E+03  0.00000000000E+00 0. -1.
          1    1    1    2  502    0 -0.71481411223E+02 -0.98988686017E+01  0.64758391671E+03  0.65159228735E+03  0.00000000000E+00 0. -1.
         22    1    3    3    0    0  0.34438982461E+02  0.13438398685E+03  0.76006616743E+03  0.77262259759E+03  0.00000000000E+00 0.  1.
         22    1    3    3    0    0 -0.47989548491E+02  0.24169557542E+02  0.14112036938E+03  0.15100371826E+03  0.00000000000E+00 0.  1.
</event>
<event>
 7    1  0.2895750E-005  0.1586828E+03  0.7818608E-02  0.1258496E+00
          2   -1    0    0  502    0  0.00000000000E+00  0.00000000000E+00  0.16672177867E+04  0.16672177867E+04  0.00000000000E+00 0. -1.
          1   -1    0    0  501    0 -0.00000000000E+00 -0.00000000000E+00 -0.26890854279E+03  0.26890854279E+03  0.00000000000E+00 0. -1.
         25    2    1    2    0    0  0.69169636068E+02 -0.16150823576E+03  0.87584125173E+03  0.90199372856E+03  0.12500175738E+03 0.  0.
          2    1    1    2  501    0 -0.77539788165E+02  0.66444596571E+01 -0.24194084685E+03  0.25414944613E+03  0.00000000000E+00 0. -1.
          1    1    1    2  502    0  0.83701520967E+01  0.15486377610E+03  0.76440883903E+03  0.77998315481E+03  0.00000000000E+00 0. -1.
         22    1    3    3    0    0  0.59747385545E+02 -0.12103089761E+03  0.82664956494E+03  0.83759640130E+03  0.00000000000E+00 0. -1.
         22    1    3    3    0    0  0.94222505235E+01 -0.40477338144E+02  0.49191686791E+02  0.64397327254E+02  0.00000000000E+00 0. -1.
</event>
<event>
 7    1  0.2895750E-005  0.2381114E+03  0.7818608E-02  0.1248319E+00
          2   -1    0    0  502    0  0.00000000000E+00  0.00000000000E+00  0.12882481355E+04  0.12882481355E+04  0.00000000000E+00 0. -1.
          1   -1    0    0  501    0 -0.00000000000E+00 -0.00000000000E+00 -0.38491221012E+03  0.38491221012E+03  0.00000000000E+00 0. -1.
         25    2    1    2    0    0  0.21080267539E+03 -0.58368467325E+02  0.35512461678E+02  0.25442266224E+03  0.12500044079E+03 0.  0.
          2    1    1    2  501    0  0.55643304854E+00 -0.57378229890E+02 -0.25959100741E+03  0.26585722110E+03  0.00000000000E+00 0. -1.
          1    1    1    2  502    0 -0.21135910844E+03  0.11574669721E+03  0.11274144711E+04  0.11528804622E+04  0.00000000000E+00 0. -1.
         22    1    3    3    0    0  0.33697765356E+02  0.13193866263E+02  0.51272183616E+02  0.62757105651E+02  0.00000000000E+00 0. -1.
         22    1    3    3    0    0  0.17710491003E+03 -0.71562333587E+02 -0.15759721937E+02  0.19166555659E+03  0.00000000000E+00 0. -1.
</event>
<event>
 7    1  0.2895750E-005  0.3303681E+03  0.7818608E-02  0.1138382E+00
          2   -1    0    0  502    0  0.00000000000E+00  0.00000000000E+00  0.14933743114E+04  0.14933743114E+04  0.00000000000E+00 0. -1.
          1   -1    0    0  501    0 -0.00000000000E+00 -0.00000000000E+00 -0.89734513479E+03  0.89734513479E+03  0.00000000000E+00 0. -1.
         25    2    1    2    0    0  0.28982765534E+02  0.31931882840E+03 -0.33362862359E+03  0.47930922220E+03  0.12499902855E+03 0.  0.
          2    1    1    2  501    0  0.10891990312E+03 -0.33429504140E+03 -0.42391658905E+03  0.55074676074E+03  0.00000000000E+00 0. -1.
          1    1    1    2  502    0 -0.13790266865E+03  0.14976213000E+02  0.13535743893E+04  0.13606634633E+04  0.00000000000E+00 0. -1.
         22    1    3    3    0    0  0.24336010369E+02  0.26187270663E+03 -0.32940947638E+03  0.42152124384E+03  0.00000000000E+00 0. -1.
         22    1    3    3    0    0  0.46467551652E+01  0.57446121765E+02 -0.42191472068E+01  0.57787978357E+02  0.00000000000E+00 0. -1.
</event>
<event>
 7    1  0.2895750E-005  0.1766536E+03  0.7818608E-02  0.1309005E+00
          2   -1    0    0  502    0  0.00000000000E+00  0.00000000000E+00  0.14042646741E+03  0.14042646741E+03  0.00000000000E+00 0. -1.
          1   -1    0    0  501    0 -0.00000000000E+00 -0.00000000000E+00 -0.86589116631E+03  0.86589116631E+03  0.00000000000E+00 0. -1.
         25    2    1    2    0    0 -0.80172064044E+02 -0.11649870914E+03 -0.33041685499E+03  0.38052345546E+03  0.12499317185E+03 0.  0.
          2    1    1    2  501    0 -0.31517509313E+02 -0.29758988375E+02 -0.43526996852E+03  0.43742301755E+03  0.00000000000E+00 0. -1.
          1    1    1    2  502    0  0.11168957336E+03  0.14625769751E+03  0.40222124619E+02  0.18837116071E+03  0.00000000000E+00 0. -1.
         22    1    3    3    0    0 -0.83276103208E+02 -0.20618609209E+02 -0.10533312833E+03  0.13584956509E+03  0.00000000000E+00 0.  1.
         22    1    3    3    0    0  0.31040391644E+01 -0.95880099931E+02 -0.22508372666E+03  0.24467389037E+03  0.00000000000E+00 0.  1.
</event>
<event>
 7    1  0.2895750E-005  0.5358875E+03  0.7818608E-02  0.1015047E+00
          2   -1    0    0  502    0  0.00000000000E+00  0.00000000000E+00  0.34673724421E+03  0.34673724421E+03  0.00000000000E+00 0. -1.
          1   -1    0    0  501    0 -0.00000000000E+00 -0.00000000000E+00 -0.24477204400E+04  0.24477204400E+04  0.00000000000E+00 0. -1.
         25    2    1    2    0    0  0.65600525843E+03  0.37461894735E+03 -0.87553885570E+03  0.11631320232E+04  0.12500224264E+03 0.  0.
          2    1    1    2  501    0 -0.17174342697E+03 -0.42409249523E+03 -0.98994572882E+03  0.10905699406E+04  0.00000000000E+00 0. -1.
          1    1    1    2  502    0 -0.48426183145E+03  0.49473547877E+02 -0.23549861126E+03  0.54075572050E+03  0.00000000000E+00 0. -1.
         22    1    3    3    0    0  0.38626840642E+03  0.18985824360E+03 -0.58116072162E+03  0.72318546640E+03  0.00000000000E+00 0.  1.
         22    1    3    3    0    0  0.26973685201E+03  0.18476070375E+03 -0.29437813408E+03  0.43994655676E+03  0.00000000000E+00 0.  1.
</event>
<event>
 7    1  0.2895750E-005  0.9745467E+02  0.7818608E-02  0.1326627E+00
          2   -1    0    0  502    0  0.00000000000E+00  0.00000000000E+00  0.22282975434E+03  0.22282975434E+03  0.00000000000E+00 0. -1.
          1   -1    0    0  501    0 -0.00000000000E+00 -0.00000000000E+00 -0.10540873142E+04  0.10540873142E+04  0.00000000000E+00 0. -1.
         25    2    1    2    0    0  0.33279791299E+02 -0.37282812559E+01  0.17763565915E+02  0.13062221131E+03  0.12500069289E+03 0.  0.
          2    1    1    2  501    0 -0.99296437468E+02 -0.82339195791E+01 -0.98745007285E+03  0.99246421915E+03  0.00000000000E+00 0. -1.
          1    1    1    2  502    0  0.66016646168E+02  0.11962200835E+02  0.13842894708E+03  0.15383063807E+03  0.00000000000E+00 0. -1.
         22    1    3    3    0    0  0.40930949113E+02  0.21422688114E+02 -0.43812211482E+02  0.63669333562E+02  0.00000000000E+00 0. -1.
         22    1    3    3    0    0 -0.76511578136E+01 -0.25150969370E+02  0.61575777397E+02  0.66952877744E+02  0.00000000000E+00 0. -1.
</event>
<event>
 7    1  0.2895750E-005  0.4194012E+03  0.7818608E-02  0.1085540E+00
          2   -1    0    0  502    0  0.00000000000E+00  0.00000000000E+00  0.17895190640E+04  0.17895190640E+04  0.00000000000E+00 0. -1.
          1   -1    0    0  501    0 -0.00000000000E+00 -0.00000000000E+00 -0.33259361986E+03  0.33259361986E+03  0.00000000000E+00 0. -1.
         25    2    1    2    0    0  0.37479414894E+03  0.26284450944E+03  0.95967421488E+03  0.10705874847E+04  0.12500029403E+03 0.  0.
          2    1    1    2  501    0 -0.19222382431E+03 -0.37398284328E+03 -0.87006892088E+02  0.42939884137E+03  0.00000000000E+00 0. -1.
          1    1    1    2  502    0 -0.18257032462E+03  0.11113833384E+03  0.58425812137E+03  0.62212635780E+03  0.00000000000E+00 0. -1.
         22    1    3    3    0    0  0.27864322102E+03  0.13162214644E+03  0.56239249285E+03  0.64128913141E+03  0.00000000000E+00 0. -1.
         22    1    3    3    0    0  0.96150927917E+02  0.13122236300E+03  0.39728172203E+03  0.42929835331E+03  0.00000000000E+00 0. -1.
</event>
<event>
 7    1  0.2895750E-005  0.1460728E+03  0.7818608E-02  0.1256928E+00
          2   -1    0    0  502    0  0.00000000000E+00  0.00000000000E+00  0.93799054270E+03  0.93799054270E+03  0.00000000000E+00 0. -1.
          1   -1    0    0  501    0 -0.00000000000E+00 -0.00000000000E+00 -0.17722282821E+04  0.17722282821E+04  0.00000000000E+00 0. -1.
         25    2    1    2    0    0 -0.15815946494E+03  0.43192078636E+02  0.36729509227E+03  0.42119910105E+03  0.12499210342E+03 0.  0.
          2    1    1    2  501    0  0.14031044966E+03  0.40792318069E+02 -0.17388032284E+04  0.17449320052E+04  0.00000000000E+00 0. -1.
          1    1    1    2  502    0  0.17849015275E+02 -0.83984396705E+02  0.53727039677E+03  0.54408771855E+03  0.00000000000E+00 0. -1.
         22    1    3    3    0    0 -0.12115221882E+03  0.84546333818E+02  0.29629462536E+03  0.33108374727E+03  0.00000000000E+00 0. -1.
         22    1    3    3    0    0 -0.37007246115E+02 -0.41354255182E+02  0.71000466909E+02  0.90115353786E+02  0.00000000000E+00 0. -1.
</event>
<event>
 7    1  0.2895750E-005  0.3214773E+03  0.7818608E-02  0.1178902E+00
          2   -1    0    0  502    0  0.00000000000E+00  0.00000000000E+00  0.72151310611E+03  0.72151310611E+03  0.00000000000E+00 0. -1.
          1   -1    0    0  501    0 -0.00000000000E+00 -0.00000000000E+00 -0.97293751971E+03  0.97293751971E+03  0.00000000000E+00 0. -1.
         25    2    1    2    0    0 -0.88675833393E+02 -0.34922472626E+03  0.31037389787E+03  0.49170647295E+03  0.12498794424E+03 0.  0.
          2    1    1    2  501    0  0.50420061494E+01  0.31927173113E+03 -0.84638490791E+03  0.90461443304E+03  0.00000000000E+00 0. -1.
          1    1    1    2  502    0  0.83633827244E+02  0.29952995128E+02  0.28458659644E+03  0.29812971983E+03  0.00000000000E+00 0. -1.
         22    1    3    3    0    0 -0.98034547102E+02 -0.32866108079E+03  0.31815035594E+03  0.46781249175E+03  0.00000000000E+00 0.  1.
         22    1    3    3    0    0  0.93587137083E+01 -0.20563645476E+02 -0.77764580764E+01  0.23893981203E+02  0.00000000000E+00 0.  1.
</event>
<event>
 7    1  0.2895750E-005  0.2795735E+03  0.7818608E-02  0.1276474E+00
          2   -1    0    0  502    0  0.00000000000E+00  0.00000000000E+00  0.16044721765E+04  0.16044721765E+04  0.00000000000E+00 0. -1.
          1   -1    0    0  501    0 -0.00000000000E+00 -0.00000000000E+00 -0.75369556785E+02  0.75369556785E+02  0.00000000000E+00 0. -1.
         25    2    1    2    0    0  0.25444766009E+03  0.15041534208E+03  0.56923663699E+03  0.65347017867E+03  0.12499815461E+03 0.  0.
          2    1    1    2  501    0 -0.21742769552E+03 -0.15280542594E+03  0.51098294225E+03  0.57595821744E+03  0.00000000000E+00 0. -1.
          1    1    1    2  502    0 -0.37019964573E+02  0.23900838535E+01  0.44888304043E+03  0.45041333713E+03  0.00000000000E+00 0. -1.
         22    1    3    3    0    0 -0.10831158372E+02  0.33563553338E+01  0.40550438131E+01  0.12042528519E+02  0.00000000000E+00 0. -1.
         22    1    3    3    0    0  0.26527881846E+03  0.14705898675E+03  0.56518159318E+03  0.64142765015E+03  0.00000000000E+00 0. -1.
</event>
<event>
 7    1  0.2895750E-005  0.9395185E+02  0.7818608E-02  0.1440290E+00
          2   -1    0    0  502    0  0.00000000000E+00  0.00000000000E+00  0.95906952038E+02  0.95906952038E+02  0.00000000000E+00 0. -1.
          1   -1    0    0  501    0 -0.00000000000E+00 -0.00000000000E+00 -0.27359890525E+03  0.27359890525E+03  0.00000000000E+00 0. -1.
         25    2    1    2    0    0  0.39365701007E+02  0.64217985462E+02 -0.68702599018E+02  0.16130209937E+03  0.12499884830E+03 0.  0.
          2    1    1    2  501    0  0.15298633492E+02  0.23006656719E+02 -0.10127560903E+03  0.10497668039E+03  0.00000000000E+00 0. -1.
          1    1    1    2  502    0 -0.54664334499E+02 -0.87224642182E+02 -0.77137451551E+01  0.10322707752E+03  0.00000000000E+00 0. -1.
         22    1    3    3    0    0  0.31100388520E+02  0.30131675982E+01  0.31003643862E+02  0.44017488318E+02  0.00000000000E+00 0. -1.
         22    1    3    3    0    0  0.82653124869E+01  0.61204817864E+02 -0.99706242880E+02  0.11728461105E+03  0.00000000000E+00 0. -1.
</event>
<event>
 7    1  0.2895750E-005  0.3138010E+03  0.7818608E-02  0.1113182E+00
          2   -1    0    0  502    0  0.00000000000E+00  0.00000000000E+00  0.22676576384E+04  0.22676576384E+04  0.00000000000E+00 0. -1.
          1   -1    0    0  501    0 -0.00000000000E+00 -0.00000000000E+00 -0.49355618119E+03  0.49355618119E+03  0.00000000000E+00 0. -1.
         25    2    1    2    0    0  0.42117155711E+02  0.40888766327E+03  0.18096057239E+03  0.46619151106E+03  0.12499928100E+03 0.  0.
          2    1    1    2  501    0  0.11052112105E+03 -0.28045652514E+03 -0.27991884121E+03  0.41137007470E+03  0.00000000000E+00 0. -1.
          1    1    1    2  502    0 -0.15263827676E+03 -0.12843113813E+03  0.18730597261E+04  0.18836522339E+04  0.00000000000E+00 0. -1.
         22    1    3    3    0    0  0.81669122715E+01  0.38796449233E+03  0.15135221651E+03  0.41652207529E+03  0.00000000000E+00 0.  1.
         22    1    3    3    0    0  0.33950243439E+02  0.20923170938E+02  0.29608355881E+02  0.49669435770E+02  0.00000000000E+00 0.  1.
</event>
<event>
 7    1  0.2895750E-005  0.1335390E+03  0.7818608E-02  0.1357926E+00
          2   -1    0    0  502    0  0.00000000000E+00  0.00000000000E+00  0.72457843552E+02  0.72457843552E+02  0.00000000000E+00 0. -1.
          1   -1    0    0  501    0 -0.00000000000E+00 -0.00000000000E+00 -0.66267501726E+03  0.66267501726E+03  0.00000000000E+00 0. -1.
         25    2    1    2    0    0 -0.71249968156E+02  0.11949616125E+03 -0.42355117694E+03  0.46300540779E+03  0.12499007018E+03 0.  0.
          2    1    1    2  501    0  0.36245266129E+02  0.90937648913E+01 -0.12802804665E+03  0.13337014885E+03  0.00000000000E+00 0. -1.
          1    1    1    2  502    0  0.35004702027E+02 -0.12858992614E+03 -0.38637950115E+02  0.13875730416E+03  0.00000000000E+00 0. -1.
         22    1    3    3    0    0 -0.56079246295E+02  0.23407262263E+02 -0.29823516782E+03  0.30436326506E+03  0.00000000000E+00 0.  1.
         22    1    3    3    0    0 -0.15170721861E+02  0.96088898986E+02 -0.12531600912E+03  0.15864214273E+03  0.00000000000E+00 0.  1.
</event>
<event>
 7    1  0.2895750E-005  0.2709438E+03  0.7818608E-02  0.1187971E+00
          2   -1    0    0  502    0  0.00000000000E+00  0.00000000000E+00  0.33852870923E+03  0.33852870923E+03  0.00000000000E+00 0. -1.
          1   -1    0    0  501    0 -0.00000000000E+00 -0.00000000000E+00 -0.11059536484E+04  0.11059536484E+04  0.00000000000E+00 0. -1.
         25    2    1    2    0    0 -0.29468186622E+03  0.12369129704E+03 -0.35962147180E+03  0.49707954787E+03  0.12499413862E+03 0.  0.
          2    1    1    2  501    0  0.25319472580E+03 -0.37954418809E+02 -0.64383822871E+03  0.69287500448E+03  0.00000000000E+00 0. -1.
          1    1    1    2  502    0  0.41487140420E+02 -0.85736878230E+02  0.23603476133E+03  0.25452780529E+03  0.00000000000E+00 0. -1.
         22    1    3    3    0    0 -0.21271194077E+03  0.10904465285E+03 -0.18043096332E+03  0.29948695895E+03  0.00000000000E+00 0. -1.
         22    1    3    3    0    0 -0.81969925450E+02  0.14646644194E+02 -0.17919050848E+03  0.19759258892E+03  0.00000000000E+00 0. -1.
</event>
<event>
 7    1  0.2895750E-005  0.1047738E+03  0.7818608E-02  0.1338715E+00
          2   -1    0    0  502    0  0.00000000000E+00  0.00000000000E+00  0.27590024871E+04  0.27590024871E+04  0.00000000000E+00 0. -1.
          1   -1    0    0  501    0 -0.00000000000E+00 -0.00000000000E+00 -0.85433544505E+02  0.85433544505E+02  0.00000000000E+00 0. -1.
         25    2    1    2    0    0  0.10507378114E+03  0.10874367387E+03  0.29845008799E+03  0.35715896446E+03  0.12499753910E+03 0.  0.
          2    1    1    2  501    0 -0.56083760972E+02 -0.81338141053E+02 -0.11975901003E+02  0.99522377582E+02  0.00000000000E+00 0. -1.
          1    1    1    2  502    0 -0.48990020165E+02 -0.27405532819E+02  0.23870947556E+04  0.23877546896E+04  0.00000000000E+00 0. -1.
         22    1    3    3    0    0  0.21109354045E+01  0.88615890641E+02  0.16609097272E+03  0.18826429120E+03  0.00000000000E+00 0.  1.
         22    1    3    3    0    0  0.10296284573E+03  0.20127783231E+02  0.13235911528E+03  0.16889467326E+03  0.00000000000E+00 0.  1.
</event>
<event>
 7    1  0.2895750E-005  0.8799382E+03  0.7818608E-02  0.1121518E+00
          2   -1    0    0  502    0  0.00000000000E+00  0.00000000000E+00  0.26150011717E+04  0.26150011717E+04  0.00000000000E+00 0. -1.
          1   -1    0    0  501    0 -0.00000000000E+00 -0.00000000000E+00 -0.13703583361E+04  0.13703583361E+04  0.00000000000E+00 0. -1.
         25    2    1    2    0    0 -0.14513244514E+03  0.89365558625E+03 -0.62048883334E+03  0.11046782368E+04  0.12499552392E+03 0.  0.
          2    1    1    2  501    0  0.12032926777E+03 -0.83458788738E+03 -0.15685271163E+03  0.85768225328E+03  0.00000000000E+00 0. -1.
          1    1    1    2  502    0  0.24803177366E+02 -0.59067698869E+02  0.20219843806E+04  0.20229990178E+04  0.00000000000E+00 0. -1.
         22    1    3    3    0    0 -0.12884696827E+03  0.80640765624E+03 -0.50940128715E+03  0.96248871195E+03  0.00000000000E+00 0.  1.
         22    1    3    3    0    0 -0.16285476871E+02  0.87247930006E+02 -0.11108754618E+03  0.14218952480E+03  0.00000000000E+00 0.  1.
</event>
<event>
 7    1  0.2895750E-005  0.3731419E+03  0.7818608E-02  0.1213805E+00
          2   -1    0    0  502    0  0.00000000000E+00  0.00000000000E+00  0.13246725335E+04  0.13246725335E+04  0.00000000000E+00 0. -1.
          1   -1    0    0  501    0 -0.00000000000E+00 -0.00000000000E+00 -0.76129570290E+03  0.76129570290E+03  0.00000000000E+00 0. -1.
         25    2    1    2    0    0 -0.33412382362E+03 -0.99789326228E+01 -0.62557259473E+02  0.36232095552E+03  0.12499902197E+03 0.  0.
          2    1    1    2  501    0 -0.44324192039E+02  0.27689257080E+02 -0.51695966309E+03  0.51959467108E+03  0.00000000000E+00 0. -1.
          1    1    1    2  502    0  0.37844801565E+03 -0.17710324457E+02  0.11428937532E+04  0.12040526098E+04  0.00000000000E+00 0. -1.
         22    1    3    3    0    0 -0.31208109367E+03 -0.23557333546E+02 -0.88936203947E+02  0.32536011643E+03  0.00000000000E+00 0.  1.
         22    1    3    3    0    0 -0.22042729948E+02  0.13578400923E+02  0.26378944473E+02  0.36960839097E+02  0.00000000000E+00 0.  1.
</event>
<event>
 7    1  0.2895750E-005  0.1428853E+03  0.7818608E-02  0.1351580E+00
          2   -1    0    0  502    0  0.00000000000E+00  0.00000000000E+00  0.73543298074E+03  0.73543298074E+03  0.00000000000E+00 0. -1.
          1   -1    0    0  501    0 -0.00000000000E+00 -0.00000000000E+00 -0.38855901230E+03  0.38855901230E+03  0.00000000000E+00 0. -1.
         25    2    1    2    0    0 -0.11130298368E+03 -0.99609076836E+02  0.60269474838E+03  0.63338600955E+03  0.12500621983E+03 0.  0.
          2    1    1    2  501    0 -0.24658913955E+01  0.36770561049E+02 -0.33592076753E+03  0.33793626150E+03  0.00000000000E+00 0. -1.
          1    1    1    2  502    0  0.11376887508E+03  0.62838515787E+02  0.80099987582E+02  0.15266972200E+03  0.00000000000E+00 0. -1.
         22    1    3    3    0    0 -0.36608641252E+02 -0.46072117309E+02  0.45940511104E+03  0.46315859989E+03  0.00000000000E+00 0. -1.
         22    1    3    3    0    0 -0.74694342433E+02 -0.53536959527E+02  0.14328963735E+03  0.17022740966E+03  0.00000000000E+00 0. -1.
</event>
<event>
 7    1  0.2895750E-005  0.3312070E+03  0.7818608E-02  0.1132216E+00
          2   -1    0    0  502    0  0.00000000000E+00  0.00000000000E+00  0.25381042660E+04  0.25381042660E+04  0.00000000000E+00 0. -1.
          1   -1    0    0  501    0 -0.00000000000E+00 -0.00000000000E+00 -0.10174878121E+03  0.10174878121E+03  0.00000000000E+00 0. -1.
         25    2    1    2    0    0 -0.41553095018E+03 -0.74135988617E+02  0.13319370052E+04  0.14027971010E+04  0.12498562058E+03 0.  0.
          2    1    1    2  501    0  0.14779298360E+03 -0.19979697286E+02  0.70623143464E+02  0.16501388638E+03  0.00000000000E+00 0. -1.
          1    1    1    2  502    0  0.26773796658E+03  0.94115685902E+02  0.10337953362E+04  0.10720420599E+04  0.00000000000E+00 0. -1.
         22    1    3    3    0    0 -0.33410014667E+03 -0.10927045628E+03  0.10606046033E+04  0.11173383844E+04  0.00000000000E+00 0.  1.
         22    1    3    3    0    0 -0.81430803506E+02  0.35134467664E+02  0.27133240187E+03  0.28545871660E+03  0.00000000000E+00 0.  1.
</event>
<event>
 7    1  0.2895750E-005  0.2527616E+03  0.7818608E-02  0.1180570E+00
          2   -1    0    0  502    0  0.00000000000E+00  0.00000000000E+00  0.10040715934E+04  0.10040715934E+04  0.00000000000E+00 0. -1.
          1   -1    0    0  501    0 -0.00000000000E+00 -0.00000000000E+00 -0.12539642179E+04  0.12539642179E+04  0.00000000000E+00 0. -1.
         25    2    1    2    0    0 -0.23720932492E+03  0.13101607115E+03 -0.33642640938E+03  0.44971255732E+03  0.12500072220E+03 0.  0.
          2    1    1    2  501    0  0.25169328288E+03 -0.21078525539E+02 -0.83898825524E+03  0.87618211881E+03  0.00000000000E+00 0. -1.
          1    1    1    2  502    0 -0.14483957960E+02 -0.10993754561E+03  0.92552204017E+03  0.93214113513E+03  0.00000000000E+00 0. -1.
         22    1    3    3    0    0 -0.11648929108E+03  0.47826369883E+02 -0.24896204923E+03  0.27899680742E+03  0.00000000000E+00 0.  1.
         22    1    3    3    0    0 -0.12072003384E+03  0.83189701268E+02 -0.87464360155E+02  0.17071574990E+03  0.00000000000E+00 0.  1.
</event>
<event>
 7    1  0.2895750E-005  0.4549796E+03  0.7818608E-02  0.1286874E+00
          2   -1    0    0  502    0  0.00000000000E+00  0.00000000000E+00  0.15183127605E+04  0.15183127605E+04  0.00000000000E+00 0. -1.
          1   -1    0    0  501    0 -0.00000000000E+00 -0.00000000000E+00 -0.12752395707E+04  0.12752395707E+04  0.00000000000E+00 0. -1.
         25    2    1    2    0    0  0.41161454147E+03 -0.18637388364E+03  0.10068308752E+04  0.11106284126E+04  0.12500121744E+03 0.  0.
          2    1    1    2  501    0  0.17172964457E+01 -0.20581285923E+02 -0.11069877948E+04  0.11071804353E+04  0.00000000000E+00 0. -1.
          1    1    1    2  502    0 -0.41333183792E+03  0.20695516956E+03  0.34323010950E+03  0.57574348325E+03  0.00000000000E+00 0. -1.
         22    1    3    3    0    0  0.70386752917E+01 -0.11676911930E+02  0.11557137589E+03  0.11637283251E+03  0.00000000000E+00 0.  1.
         22    1    3    3    0    0  0.40457586618E+03 -0.17469697171E+03  0.89125949928E+03  0.99425558006E+03  0.00000000000E+00 0.  1.
</event>
<event>
 7    1  0.2895750E-005  0.2403601E+03  0.7818608E-02  0.1189630E+00
          2   -1    0    0  502    0  0.00000000000E+00  0.00000000000E+00  0.77563789502E+03  0.77563789502E+03  0.00000000000E+00 0. -1.
          1   -1    0    0  501    0 -0.00000000000E+00 -0.00000000000E+00 -0.12751583636E+04  0.12751583636E+04  0.00000000000E+00 0. -1.
         25    2    1    2    0    0  0.30506452263E+03 -0.90462031707E+02  0.57513408897E+02  0.34667030012E+03  0.12499905054E+03 0.  0.
          2    1    1    2  501    0 -0.10377227556E+03 -0.18525170886E+02 -0.11051326460E+04  0.11101486532E+04  0.00000000000E+00 0. -1.
          1    1    1    2  502    0 -0.20129224707E+03  0.10898720259E+03  0.54809876852E+03  0.59397730522E+03  0.00000000000E+00 0. -1.
         22    1    3    3    0    0  0.10595868877E+02 -0.25552049336E+02 -0.21404689497E+02  0.34976283322E+02  0.00000000000E+00 0. -1.
         22    1    3    3    0    0  0.29446865375E+03 -0.64909982371E+02  0.78918098394E+02  0.31169401680E+03  0.00000000000E+00 0. -1.
</event>
<event>
 7    1  0.2895750E-005  0.2067782E+03  0.7818608E-02  0.1203579E+00
          2   -1    0    0  502    0  0.00000000000E+00  0.00000000000E+00  0.55184801115E+03  0.55184801115E+03  0.00000000000E+00 0. -1.
          1   -1    0    0  501    0 -0.00000000000E+00 -0.00000000000E+00 -0.11133245711E+04  0.11133245711E+04  0.00000000000E+00 0. -1.
         25    2    1    2    0    0  0.28238874504E+03 -0.73180440763E+02 -0.17592487883E+02  0.31783570955E+03  0.12494503750E+03 0.  0.
          2    1    1    2  501    0 -0.20104079370E+03  0.64511085738E+01 -0.92775414479E+03  0.94930857507E+03  0.00000000000E+00 0. -1.
          1    1    1    2  502    0 -0.81347951343E+02  0.66729332189E+02  0.38387007273E+03  0.39802829761E+03  0.00000000000E+00 0. -1.
         22    1    3    3    0    0  0.26635697176E+03 -0.10037051822E+03 -0.23917585648E+02  0.28564370855E+03  0.00000000000E+00 0.  1.
         22    1    3    3    0    0  0.16031773286E+02  0.27190077453E+02  0.63250977649E+01  0.32192000999E+02  0.00000000000E+00 0.  1.
</event>
<event>
 7    1  0.2895750E-005  0.7222597E+02  0.7818608E-02  0.1379011E+00
          2   -1    0    0  502    0  0.00000000000E+00  0.00000000000E+00  0.24295902139E+04  0.24295902139E+04  0.00000000000E+00 0. -1.
          1   -1    0    0  501    0 -0.00000000000E+00 -0.00000000000E+00 -0.96814259946E+03  0.96814259946E+03  0.00000000000E+00 0. -1.
         25    2    1    2    0    0 -0.40682250697E+02 -0.78744787330E+02  0.47406316849E+03  0.49821457846E+03  0.12500436560E+03 0.  0.
          2    1    1    2  501    0 -0.16699230180E+02  0.70283252622E+02 -0.95426860558E+03  0.95699904466E+03  0.00000000000E+00 0. -1.
          1    1    1    2  502    0  0.57381480877E+02  0.84615347080E+01  0.19416530515E+04  0.19425191902E+04  0.00000000000E+00 0. -1.
         22    1    3    3    0    0  0.33251954620E+02 -0.24801375768E+02  0.52915982667E+02  0.67237652752E+02  0.00000000000E+00 0. -1.
         22    1    3    3    0    0 -0.73934205317E+02 -0.53943411562E+02  0.42114718582E+03  0.43097692571E+03  0.00000000000E+00 0. -1.
</event>
<event>
 7    1  0.2895750E-005  0.1165512E+03  0.7818608E-02  0.1318305E+00
          2   -1    0    0  502    0  0.00000000000E+00  0.00000000000E+00  0.33553588978E+03  0.33553588978E+03  0.00000000000E+00 0. -1.
          1   -1    0    0  501    0 -0.00000000000E+00 -0.00000000000E+00 -0.22116234972E+03  0.22116234972E+03  0.00000000000E+00 0. -1.
         25    2    1    2    0    0 -0.23164076644E+02 -0.73814711817E+02  0.13493248963E+03  0.19954104583E+03  0.12499866433E+03 0.  0.
          2    1    1    2  501    0 -0.14224332436E+02  0.12126671108E+03 -0.16228827859E+03  0.20308971471E+03  0.00000000000E+00 0. -1.
          1    1    1    2  502    0  0.37388409080E+02 -0.47451999265E+02  0.14172932903E+03  0.15406747896E+03  0.00000000000E+00 0. -1.
         22    1    3    3    0    0  0.51547323012E+01 -0.54840281731E+02 -0.51954981146E+01  0.55326494251E+02  0.00000000000E+00 0. -1.
         22    1    3    3    0    0 -0.28318808945E+02 -0.18974430086E+02  0.14012798774E+03  0.14421455157E+03  0.00000000000E+00 0. -1.
</event>
<event>
 7    1  0.2895750E-005  0.1045240E+03  0.7818608E-02  0.1416948E+00
          2   -1    0    0  502    0  0.00000000000E+00  0.00000000000E+00  0.12198059989E+04  0.12198059989E+04  0.00000000000E+00 0. -1.
          1   -1    0    0  501    0 -0.00000000000E+00 -0.00000000000E+00 -0.54507519949E+02  0.54507519949E+02  0.00000000000E+00 0. -1.
         25    2    1    2    0    0  0.97790599808E+02 -0.67927146823E+02  0.60039760179E+03  0.62472273539E+03  0.12499646868E+03 0.  0.
          2    1    1    2  501    0 -0.29211805513E+02 -0.50907335325E+01 -0.32416072230E+02  0.43932298916E+02  0.00000000000E+00 0. -1.
          1    1    1    2  502    0 -0.68578794295E+02  0.73017880355E+02  0.59731694937E+03  0.60565848453E+03  0.00000000000E+00 0. -1.
         22    1    3    3    0    0  0.10349073180E+02  0.16785616994E+01 -0.31240863631E+01  0.10939872059E+02  0.00000000000E+00 0. -1.
         22    1    3    3    0    0  0.87441526628E+02 -0.69605708522E+02  0.60352168816E+03  0.61378286333E+03  0.00000000000E+00 0. -1.
</event>
<event>
 7    1  0.2895750E-005  0.1239750E+03  0.7818608E-02  0.1286396E+00
          2   -1    0    0  502    0  0.00000000000E+00  0.00000000000E+00  0.13749300488E+04  0.13749300488E+04  0.00000000000E+00 0. -1.
          1   -1    0    0  501    0 -0.00000000000E+00 -0.00000000000E+00 -0.18994917954E+04  0.18994917954E+04  0.00000000000E+00 0. -1.
         25    2    1    2    0    0  0.52328371461E+02 -0.71229530640E+02  0.16331671484E+03  0.22384954200E+03  0.12499745442E+03 0.  0.
          2    1    1    2  501    0 -0.11944595966E+03  0.35284834576E+02 -0.18659204198E+04  0.18700725574E+04  0.00000000000E+00 0. -1.
          1    1    1    2  502    0  0.67117588202E+02  0.35944696064E+02  0.11780419584E+04  0.11804997448E+04  0.00000000000E+00 0. -1.
         22    1    3    3    0    0  0.15468465564E+01 -0.30169294778E+02  0.15511798837E+03  0.15803217836E+03  0.00000000000E+00 0.  1.
         22    1    3    3    0    0  0.50781524904E+02 -0.41060235862E+02  0.81987264772E+01  0.65817363640E+02  0.00000000000E+00 0.  1.
</event>
<event>
 7    1  0.2895750E-005  0.4774590E+03  0.7818608E-02  0.1171178E+00
          2   -1    0    0  502    0  0.00000000000E+00  0.00000000000E+00  0.11251925298E+04  0.11251925298E+04  0.00000000000E+00 0. -1.
          1   -1    0    0  501    0 -0.00000000000E+00 -0.00000000000E+00 -0.53648313603E+03  0.53648313603E+03  0.00000000000E+00 0. -1.
         25    2    1    2    0    0  0.16907793501E+03 -0.43698485311E+03 -0.30812733980E+03  0.57455212806E+03  0.12499832146E+03 0.  0.
          2    1    1    2  501    0 -0.16908319274E+03  0.50227261958E+03  0.68882665097E+03  0.86910820128E+03  0.00000000000E+00 0. -1.
          1    1    1    2  502    0  0.52577330886E-02 -0.65287766465E+02  0.20801008256E+03  0.21801533644E+03  0.00000000000E+00 0. -1.
         22    1    3    3    0    0  0.15902477583E+03 -0.34132255890E+03 -0.18864152631E+03  0.42115982001E+03  0.00000000000E+00 0. -1.
         22    1    3    3    0    0  0.10053159180E+02 -0.95662294219E+02 -0.11948581349E+03  0.15339230806E+03  0.00000000000E+00 0. -1.
</event>
<event>
 7    1  0.2895750E-005  0.6513712E+02  0.7818608E-02  0.1392535E+00
          2   -1    0    0  502    0  0.00000000000E+00  0.00000000000E+00  0.55404963590E+03  0.55404963590E+03  0.00000000000E+00 0. -1.
          1   -1    0    0  501    0 -0.00000000000E+00 -0.00000000000E+00 -0.14466713321E+04  0.14466713321E+04  0.00000000000E+00 0. -1.
         25    2    1    2    0    0  0.19896932385E+02 -0.59038799387E+02  0.87192291773E+02  0.16465072937E+03  0.12500359669E+03 0.  0.
          2    1    1    2  501    0 -0.62207702285E+02  0.19877631319E+02 -0.14052394356E+04  0.14067561231E+04  0.00000000000E+00 0. -1.
          1    1    1    2  502    0  0.42310769900E+02  0.39161168068E+02  0.42542544763E+03  0.42931411556E+03  0.00000000000E+00 0. -1.
         22    1    3    3    0    0  0.11015476891E+01 -0.48129225463E+02 -0.22276224223E+02  0.53045885011E+02  0.00000000000E+00 0.  1.
         22    1    3    3    0    0  0.18795384696E+02 -0.10909573924E+02  0.10946851600E+03  0.11160484435E+03  0.00000000000E+00 0.  1.
</event>
<event>
 7    1  0.2895750E-005  0.2177670E+03  0.7818608E-02  0.1146142E+00
          2   -1    0    0  502    0  0.00000000000E+00  0.00000000000E+00  0.27905338729E+04  0.27905338729E+04  0.00000000000E+00 0. -1.
          1   -1    0    0  501    0 -0.00000000000E+00 -0.00000000000E+00 -0.35223764699E+03  0.35223764699E+03  0.00000000000E+00 0. -1.
         25    2    1    2    0    0  0.94032275232E+02  0.21049096688E+03  0.24545938459E+04  0.24685633011E+04  0.12500122809E+03 0.  0.
          2    1    1    2  501    0 -0.21088274987E+03 -0.58509765425E+02 -0.27548006496E+03  0.35182977849E+03  0.00000000000E+00 0. -1.
          1    1    1    2  502    0  0.11685047464E+03 -0.15198120145E+03  0.25918244494E+03  0.32237844032E+03  0.00000000000E+00 0. -1.
         22    1    3    3    0    0  0.36750496477E+02  0.51924905802E+02  0.26664298270E+03  0.27412638519E+03  0.00000000000E+00 0.  1.
         22    1    3    3    0    0  0.57281778755E+02  0.15856606108E+03  0.21879508632E+04  0.21944369159E+04  0.00000000000E+00 0.  1.
</event>
<event>
 7    1  0.2895750E-005  0.1174075E+03  0.7818608E-02  0.1331077E+00
          2   -1    0    0  502    0  0.00000000000E+00  0.00000000000E+00  0.21491590601E+03  0.21491590601E+03  0.00000000000E+00 0. -1.
          1   -1    0    0  501    0 -0.00000000000E+00 -0.00000000000E+00 -0.10454700013E+04  0.10454700013E+04  0.00000000000E+00 0. -1.
         25    2    1    2    0    0 -0.28074286280E+02  0.66644217679E+02 -0.24269583195E+02  0.14645878948E+03  0.12502618545E+03 0.  0.
          2    1    1    2  501    0  0.73137870047E+02 -0.95569703098E+02 -0.95153780927E+03  0.95911778143E+03  0.00000000000E+00 0. -1.
          1    1    1    2  502    0 -0.45063583766E+02  0.28925485420E+02  0.14525329718E+03  0.15480933638E+03  0.00000000000E+00 0. -1.
         22    1    3    3    0    0 -0.32348713426E+00 -0.24723751896E+02 -0.42571748155E+02  0.49231314148E+02  0.00000000000E+00 0.  1.
         22    1    3    3    0    0 -0.27750799146E+02  0.91367969575E+02  0.18302164960E+02  0.97227475333E+02  0.00000000000E+00 0.  1.
</event>
<event>
 7    1  0.2895750E-005  0.5296031E+02  0.7818608E-02  0.1496740E+00
          2   -1    0    0  502    0  0.00000000000E+00  0.00000000000E+00  0.36204709835E+03  0.36204709835E+03  0.00000000000E+00 0. -1.
          1   -1    0    0  501    0 -0.00000000000E+00 -0.00000000000E+00 -0.72496327745E+03  0.72496327745E+03  0.00000000000E+00 0. -1.
         25    2    1    2    0    0 -0.36425410003E+02  0.49600770359E+02 -0.26815720772E+02  0.14188284008E+03  0.12499844205E+03 0.  0.
          2    1    1    2  501    0  0.49237813031E+02 -0.19536768493E+02 -0.63863745027E+03  0.64083058638E+03  0.00000000000E+00 0. -1.
          1    1    1    2  502    0 -0.12812403028E+02 -0.30064001866E+02  0.30253699195E+03  0.30429694934E+03  0.00000000000E+00 0. -1.
         22    1    3    3    0    0 -0.36754197614E+01  0.92255625581E+01  0.48977127880E+02  0.49973780829E+02  0.00000000000E+00 0.  1.
         22    1    3    3    0    0 -0.32749990241E+02  0.40375207801E+02 -0.75792848652E+02  0.91909059252E+02  0.00000000000E+00 0.  1.
</event>
<event>
 7    1  0.2895750E-005  0.2144504E+03  0.7818608E-02  0.1288236E+00
          2   -1    0    0  502    0  0.00000000000E+00  0.00000000000E+00  0.13587561238E+04  0.13587561238E+04  0.00000000000E+00 0. -1.
          1   -1    0    0  501    0 -0.00000000000E+00 -0.00000000000E+00 -0.45748855021E+03  0.45748855021E+03  0.00000000000E+00 0. -1.
         25    2    1    2    0    0  0.51173852918E+01 -0.24763972758E+03  0.17873663118E+03  0.33003340017E+03  0.12499455825E+03 0.  0.
          2    1    1    2  501    0 -0.25092270627E+02  0.20926798906E+03 -0.35228725685E+03  0.41052286737E+03  0.00000000000E+00 0. -1.
          1    1    1    2  502    0  0.19974885335E+02  0.38371738520E+02  0.10748181993E+04  0.10756884065E+04  0.00000000000E+00 0. -1.
         22    1    3    3    0    0 -0.55172941060E+02 -0.97679258694E+02  0.47457496366E+02  0.12180929753E+03  0.00000000000E+00 0.  1.
         22    1    3    3    0    0  0.60290326352E+02 -0.14996046889E+03  0.13127913482E+03  0.20822410264E+03  0.00000000000E+00 0.  1.
</event>
<event>
 7    1  0.2895750E-005  0.9704181E+02  0.7818608E-02  0.1385590E+00
          2   -1    0    0  502    0  0.00000000000E+00  0.00000000000E+00  0.93462552943E+03  0.93462552943E+03  0.00000000000E+00 0. -1.
          1   -1    0    0  501    0 -0.00000000000E+00 -0.00000000000E+00 -0.71683986407E+02  0.71683986407E+02  0.00000000000E+00 0. -1.
         25    2    1    2    0    0 -0.58519000312E+02 -0.18692326295E+02  0.51944445758E+03  0.53779103763E+03  0.12499111642E+03 0.  0.
          2    1    1    2  501    0  0.99021140010E+02  0.12846842951E+02 -0.20746351715E+02  0.10198352147E+03  0.00000000000E+00 0. -1.
          1    1    1    2  502    0 -0.40502139698E+02  0.58454833433E+01  0.36424343716E+03  0.36653495674E+03  0.00000000000E+00 0. -1.
         22    1    3    3    0    0 -0.51251108765E+02  0.49134353270E+02  0.27266305937E+03  0.28175522137E+03  0.00000000000E+00 0. -1.
         22    1    3    3    0    0 -0.72678915472E+01 -0.67826679564E+02  0.24678139821E+03  0.25603581626E+03  0.00000000000E+00 0. -1.
</event>
<event>
 7    1  0.2895750E-005  0.1358342E+03  0.7818608E-02  0.1231613E+00
          2   -1    0    0  502    0  0.00000000000E+00  0.00000000000E+00  0.22142567972E+04  0.22142567972E+04  0.00000000000E+00 0. -1.
          1   -1    0    0  501    0 -0.00000000000E+00 -0.00000000000E+00 -0.20241702916E+03  0.20241702916E+03  0.00000000000E+00 0. -1.
         25    2    1    2    0    0 -0.75753734976E+02  0.11991322552E+02 -0.33124519050E+02  0.15034494291E+03  0.12499579160E+03 0.  0.
          2    1    1    2  501    0  0.17674718660E+03  0.78845060584E+02 -0.22111511888E+02  0.19479484210E+03  0.00000000000E+00 0. -1.
          1    1    1    2  502    0 -0.10099345162E+03 -0.90836383136E+02  0.20670757990E+04  0.20715340414E+04  0.00000000000E+00 0. -1.
         22    1    3    3    0    0 -0.16115229261E+02  0.41338583820E+02 -0.63337897557E+02  0.77332195063E+02  0.00000000000E+00 0.  1.
         22    1    3    3    0    0 -0.59638505715E+02 -0.29347261268E+02  0.30213378507E+02  0.73012747851E+02  0.00000000000E+00 0.  1.
</event>
<event>
 7    1  0.2895750E-005  0.1904914E+03  0.7818608E-02  0.1287021E+00
          2   -1    0    0  502    0  0.00000000000E+00  0.00000000000E+00  0.99546554174E+03  0.99546554174E+03  0.00000000000E+00 0. -1.
          1   -1    0    0  501    0 -0.00000000000E+00 -0.00000000000E+00 -0.41992781726E+03  0.41992781726E+03  0.00000000000E+00 0. -1.
         25    2    1    2    0    0  0.10605627108E+03  0.20111807555E+03  0.40699215274E+03  0.48266301317E+03  0.12499823577E+03 0.  0.
          2    1    1    2  501    0 -0.62555784529E+02 -0.17800423774E+03 -0.35757956405E+03  0.40430419173E+03  0.00000000000E+00 0. -1.
          1    1    1    2  502    0 -0.43500486550E+02 -0.23113837818E+02  0.52612513579E+03  0.52842615410E+03  0.00000000000E+00 0. -1.
         22    1    3    3    0    0  0.10580390258E+03  0.21157436352E+03  0.40854590424E+03  0.47208890367E+03  0.00000000000E+00 0. -1.
         22    1    3    3    0    0  0.25236850161E+00 -0.10456287971E+02 -0.15537515001E+01  0.10574109500E+02  0.00000000000E+00 0. -1.
</event>
<event>
 7    1  0.2895750E-005  0.1080076E+03  0.7818608E-02  0.1311844E+00
          2   -1    0    0  502    0  0.00000000000E+00  0.00000000000E+00  0.11980362561E+04  0.11980362561E+04  0.00000000000E+00 0. -1.
          1   -1    0    0  501    0 -0.00000000000E+00 -0.00000000000E+00 -0.95271572700E+02  0.95271572700E+02  0.00000000000E+00 0. -1.
         25    2    1    2    0    0  0.86573715391E+02 -0.12023083886E+03  0.60590498099E+03  0.63615834143E+03  0.12500450623E+03 0.  0.
          2    1    1    2  501    0 -0.64872224388E+02  0.23784834109E+02 -0.60044321454E+02  0.91539305053E+02  0.00000000000E+00 0. -1.
          1    1    1    2  502    0 -0.21701491002E+02  0.96446004746E+02  0.55690402390E+03  0.56561018235E+03  0.00000000000E+00 0. -1.
         22    1    3    3    0    0  0.63464537861E+00 -0.48554104265E+01 -0.58993686900E+01  0.76668335125E+01  0.00000000000E+00 0.  1.
         22    1    3    3    0    0  0.85939070012E+02 -0.11537542843E+03  0.61180434968E+03  0.62849150792E+03  0.00000000000E+00 0.  1.
</event>
<event>
 7    1  0.2895750E-005  0.6775421E+03  0.7818608E-02  0.1048221E+00
          2   -1    0    0  502    0  0.00000000000E+00  0.00000000000E+00  0.31893538525E+04  0.31893538525E+04  0.00000000000E+00 0. -1.
          1   -1    0    0  501    0 -0.00000000000E+00 -0.00000000000E+00 -0.12697631173E+04  0.12697631173E+04  0.00000000000E+00 0. -1.
         25    2    1    2    0    0 -0.21572521904E+03 -0.54164727795E+03  0.12096130520E+04  0.13485948698E+04  0.12500097375E+03 0.  0.
          2    1    1    2  501    0 -0.15510381078E+03 -0.15818526784E+03 -0.11067259515E+04  0.11286815772E+04  0.00000000000E+00 0. -1.
          1    1    1    2  502    0  0.37082902982E+03  0.69983254579E+03  0.18167036347E+04  0.19818405228E+04  0.00000000000E+00 0. -1.
         22    1    3    3    0    0 -0.14333685016E+02 -0.90664244040E+02  0.11080542259E+03  0.14388641822E+03  0.00000000000E+00 0.  1.
         22    1    3    3    0    0 -0.20139153403E+03 -0.45098303391E+03  0.10988076294E+04  0.12047084515E+04  0.00000000000E+00 0.  1.
</event>
<event>
 7    1  0.2895750E-005  0.1663746E+04  0.7818608E-02  0.1050469E+00
          2   -1    0    0  502    0  0.00000000000E+00  0.00000000000E+00  0.18682554235E+04  0.18682554235E+04  0.00000000000E+00 0. -1.
          1   -1    0    0  501    0 -0.00000000000E+00 -0.00000000000E+00 -0.31835310305E+04  0.31835310305E+04  0.00000000000E+00 0. -1.
         25    2    1    2    0    0  0.15763316013E+04 -0.44934471390E+03 -0.90704609271E+03  0.18775222556E+04  0.12500086740E+03 0.  0.
          2    1    1    2  501    0 -0.16391721956E+04  0.38864643475E+03 -0.13928009915E+04  0.21858239042E+04  0.00000000000E+00 0. -1.
          1    1    1    2  502    0  0.62840594361E+02  0.60698279145E+02  0.98457147725E+03  0.98844029420E+03  0.00000000000E+00 0. -1.
         22    1    3    3    0    0  0.14029322986E+04 -0.43966735070E+03 -0.81224632462E+03  0.16796638073E+04  0.00000000000E+00 0. -1.
         22    1    3    3    0    0  0.17339930264E+03 -0.96773631946E+01 -0.94799768092E+02  0.19785844825E+03  0.00000000000E+00 0. -1.
</event>
<event>
 7    1  0.2895750E-005  0.1199440E+03  0.7818608E-02  0.1294144E+00
          2   -1    0    0  502    0  0.00000000000E+00  0.00000000000E+00  0.49589609032E+03  0.49589609032E+03  0.00000000000E+00 0. -1.
          1   -1    0    0  501    0 -0.00000000000E+00 -0.00000000000E+00 -0.13018396224E+04  0.13018396224E+04  0.00000000000E+00 0. -1.
         25    2    1    2    0    0 -0.13070391027E+01 -0.66577684128E+02 -0.21580305332E+03  0.25812893535E+03  0.12500117227E+03 0.  0.
          2    1    1    2  501    0 -0.63121578946E+02 -0.37045147886E+02 -0.10557451264E+04  0.10582790032E+04  0.00000000000E+00 0. -1.
          1    1    1    2  502    0  0.64428618049E+02  0.10362283201E+03  0.46560464771E+03  0.48132777409E+03  0.00000000000E+00 0. -1.
         22    1    3    3    0    0 -0.52511350982E+01 -0.10194177081E+03 -0.13034152678E+03  0.16555546702E+03  0.00000000000E+00 0.  1.
         22    1    3    3    0    0  0.39440959955E+01  0.35364086687E+02 -0.85461526541E+02  0.92573468333E+02  0.00000000000E+00 0.  1.
</event>
<event>
 7    1  0.2895750E-005  0.9026781E+02  0.7818608E-02  0.1363076E+00
          2   -1    0    0  502    0  0.00000000000E+00  0.00000000000E+00  0.22861652297E+04  0.22861652297E+04  0.00000000000E+00 0. -1.
          1   -1    0    0  501    0 -0.00000000000E+00 -0.00000000000E+00 -0.48524199305E+02  0.48524199305E+02  0.00000000000E+00 0. -1.
         25    2    1    2    0    0  0.96376754425E+00 -0.42128712501E+02  0.57161806218E+03  0.58664191010E+03  0.12500305759E+03 0.  0.
          2    1    1    2  501    0 -0.89837564231E+01  0.94460224492E+02  0.14868307895E+02  0.96044304726E+02  0.00000000000E+00 0. -1.
          1    1    1    2  502    0  0.80199888788E+01 -0.52331511992E+02  0.16511546603E+04  0.16520032142E+04  0.00000000000E+00 0. -1.
         22    1    3    3    0    0 -0.25033599028E+02  0.34324284473E+02  0.10821258046E+03  0.11625317266E+03  0.00000000000E+00 0. -1.
         22    1    3    3    0    0  0.25997366573E+02 -0.76452996974E+02  0.46340548173E+03  0.47038873744E+03  0.00000000000E+00 0. -1.
</event>
<event>
 7    1  0.2895750E-005  0.1845546E+03  0.7818608E-02  0.1215337E+00
          2   -1    0    0  502    0  0.00000000000E+00  0.00000000000E+00  0.11840979926E+03  0.11840979926E+03  0.00000000000E+00 0. -1.
          1   -1    0    0  501    0 -0.00000000000E+00 -0.00000000000E+00 -0.10477531027E+04  0.10477531027E+04  0.00000000000E+00 0. -1.
         25    2    1    2    0    0  0.20820470832E+03  0.87800699604E+02 -0.17233644429E+03  0.31045635348E+03  0.12500053586E+03 0.  0.
          2    1    1    2  501    0 -0.11722608768E+03 -0.13811649315E+03 -0.72445875151E+03  0.74676542766E+03  0.00000000000E+00 0. -1.
          1    1    1    2  502    0 -0.90978620643E+02  0.50315793546E+02 -0.32548107641E+02  0.10894112082E+03  0.00000000000E+00 0. -1.
         22    1    3    3    0    0  0.12720638119E+03  0.39309462420E+02 -0.17011950104E+03  0.21602625277E+03  0.00000000000E+00 0. -1.
         22    1    3    3    0    0  0.80998327131E+02  0.48491237184E+02 -0.22169432448E+01  0.94430100704E+02  0.00000000000E+00 0. -1.
</event>
<event>
 7    1  0.2895750E-005  0.4384370E+03  0.7818608E-02  0.1151068E+00
          2   -1    0    0  502    0  0.00000000000E+00  0.00000000000E+00  0.21520704324E+04  0.21520704324E+04  0.00000000000E+00 0. -1.
          1   -1    0    0  501    0 -0.00000000000E+00 -0.00000000000E+00 -0.10181111916E+04  0.10181111916E+04  0.00000000000E+00 0. -1.
         25    2    1    2    0    0 -0.20515512136E+03 -0.36355084298E+03 -0.80132817776E+02  0.44306231366E+03  0.12500042419E+03 0.  0.
          2    1    1    2  501    0  0.14037909718E+03  0.42575796416E+03 -0.68894629893E+03  0.82196297835E+03  0.00000000000E+00 0. -1.
          1    1    1    2  502    0  0.64776024181E+02 -0.62207121180E+02  0.19030383575E+04  0.19051563320E+04  0.00000000000E+00 0. -1.
         22    1    3    3    0    0 -0.15904859150E+03 -0.15500557817E+03 -0.36444560170E+02  0.22505863611E+03  0.00000000000E+00 0. -1.
         22    1    3    3    0    0 -0.46106529855E+02 -0.20854526481E+03 -0.43688257606E+02  0.21800367755E+03  0.00000000000E+00 0. -1.
</event>
<event>
 7    1  0.2895750E-005  0.3020116E+03  0.7818608E-02  0.1190307E+00
          2   -1    0    0  502    0  0.00000000000E+00  0.00000000000E+00  0.10662494540E+04  0.10662494540E+04  0.00000000000E+00 0. -1.
          1   -1    0    0  501    0 -0.00000000000E+00 -0.00000000000E+00 -0.17752011151E+04  0.17752011151E+04  0.00000000000E+00 0. -1.
         25    2    1    2    0    0  0.20977446947E+03  0.20079485961E+03  0.94682732898E+03  0.99821370369E+03  0.12499881453E+03 0.  0.
          2    1    1    2  501    0 -0.15237004602E+03 -0.26111493418E+03 -0.17147527587E+04  0.17411992027E+04  0.00000000000E+00 0. -1.
          1    1    1    2  502    0 -0.57404423449E+02  0.60320074565E+02  0.58973768665E+02  0.10203766274E+03  0.00000000000E+00 0. -1.
         22    1    3    3    0    0  0.21769058575E+03  0.21103873380E+03  0.90676892118E+03  0.95611527271E+03  0.00000000000E+00 0.  1.
         22    1    3    3    0    0 -0.79161162784E+01 -0.10243874188E+02  0.40058407803E+02  0.42098430980E+02  0.00000000000E+00 0.  1.
</event>
<event>
 7    1  0.2895750E-005  0.3930453E+03  0.7818608E-02  0.1178560E+00
          2   -1    0    0  502    0  0.00000000000E+00  0.00000000000E+00  0.58069932722E+03  0.58069932722E+03  0.00000000000E+00 0. -1.
          1   -1    0    0  501    0 -0.00000000000E+00 -0.00000000000E+00 -0.10382625867E+04  0.10382625867E+04  0.00000000000E+00 0. -1.
         25    2    1    2    0    0  0.24679861273E+03  0.27760109360E+03 -0.44980345880E+03  0.59659092789E+03  0.12500264509E+03 0.  0.
          2    1    1    2  501    0 -0.23390164440E+03 -0.34939235224E+03 -0.42556914883E+03  0.59824250559E+03  0.00000000000E+00 0. -1.
          1    1    1    2  502    0 -0.12896968330E+02  0.71791258634E+02  0.41780934810E+03  0.42412848049E+03  0.00000000000E+00 0. -1.
         22    1    3    3    0    0  0.78843107514E+02  0.17656337594E+03 -0.25732911842E+03  0.32188373136E+03  0.00000000000E+00 0. -1.
         22    1    3    3    0    0  0.16795550522E+03  0.10103771766E+03 -0.19247434038E+03  0.27470719654E+03  0.00000000000E+00 0. -1.
</event>
<event>
 7    1  0.2895750E-005  0.4056467E+03  0.7818608E-02  0.1140962E+00
          2   -1    0    0  502    0  0.00000000000E+00  0.00000000000E+00  0.18120390203E+04  0.18120390203E+04  0.00000000000E+00 0. -1.
          1   -1    0    0  501    0 -0.00000000000E+00 -0.00000000000E+00 -0.12913425217E+04  0.12913425217E+04  0.00000000000E+00 0. -1.
         25    2    1    2    0    0 -0.99409831716E+02  0.38347905191E+03 -0.25257465345E+03  0.48616855343E+03  0.12500963516E+03 0.  0.
          2    1    1    2  501    0  0.20603600583E+03 -0.35852221183E+03 -0.87369591330E+03  0.96660931146E+03  0.00000000000E+00 0. -1.
          1    1    1    2  502    0 -0.10662617412E+03 -0.24956840082E+02  0.16469670653E+04  0.16506036771E+04  0.00000000000E+00 0. -1.
         22    1    3    3    0    0 -0.10717479622E+03  0.16996245942E+03 -0.10716024101E+03  0.22772130294E+03  0.00000000000E+00 0.  1.
         22    1    3    3    0    0  0.77649645079E+01  0.21351659249E+03 -0.14541441243E+03  0.25844725049E+03  0.00000000000E+00 0.  1.
</event>
<event>
 7    1  0.2895750E-005  0.1873831E+03  0.7818608E-02  0.1245746E+00
          2   -1    0    0  502    0  0.00000000000E+00  0.00000000000E+00  0.43917236862E+03  0.43917236862E+03  0.00000000000E+00 0. -1.
          1   -1    0    0  501    0 -0.00000000000E+00 -0.00000000000E+00 -0.22086793549E+04  0.22086793549E+04  0.00000000000E+00 0. -1.
         25    2    1    2    0    0  0.12280983620E+03  0.16841042509E+03 -0.37450511819E+03  0.44645543493E+03  0.12499617866E+03 0.  0.
          2    1    1    2  501    0  0.34020925570E+02 -0.66640846444E+02 -0.17756964389E+04  0.17772721426E+04  0.00000000000E+00 0. -1.
          1    1    1    2  502    0 -0.15683076177E+03 -0.10176957865E+03  0.38069457080E+03  0.42412414599E+03  0.00000000000E+00 0. -1.
         22    1    3    3    0    0  0.36195275562E+02  0.14887817878E+03 -0.21683172090E+03  0.26550104572E+03  0.00000000000E+00 0.  1.
         22    1    3    3    0    0  0.86614560643E+02  0.19532246314E+02 -0.15767339729E+03  0.18095438921E+03  0.00000000000E+00 0.  1.
</event>
<event>
 7    1  0.2895750E-005  0.4372689E+03  0.7818608E-02  0.1098755E+00
          2   -1    0    0  502    0  0.00000000000E+00  0.00000000000E+00  0.99741485524E+03  0.99741485524E+03  0.00000000000E+00 0. -1.
          1   -1    0    0  501    0 -0.00000000000E+00 -0.00000000000E+00 -0.44963477657E+03  0.44963477657E+03  0.00000000000E+00 0. -1.
         25    2    1    2    0    0 -0.28199536277E+03 -0.29365220651E+03 -0.15117251042E+03  0.45191841126E+03  0.12499647800E+03 0.  0.
          2    1    1    2  501    0 -0.12990027781E+03  0.11314632771E+03  0.10209878724E+02  0.17257003005E+03  0.00000000000E+00 0. -1.
          1    1    1    2  502    0  0.41189564058E+03  0.18050587881E+03  0.68874271037E+03  0.82256119049E+03  0.00000000000E+00 0. -1.
         22    1    3    3    0    0 -0.81871719252E+02 -0.15027594153E+03 -0.10692875959E+03  0.20179097265E+03  0.00000000000E+00 0. -1.
         22    1    3    3    0    0 -0.20012364352E+03 -0.14337626498E+03 -0.44243750833E+02  0.25012743861E+03  0.00000000000E+00 0. -1.
</event>
<event>
 7    1  0.2895750E-005  0.9485840E+03  0.7818608E-02  0.1089374E+00
          2   -1    0    0  502    0  0.00000000000E+00  0.00000000000E+00  0.13716481532E+04  0.13716481532E+04  0.00000000000E+00 0. -1.
          1   -1    0    0  501    0 -0.00000000000E+00 -0.00000000000E+00 -0.24268107223E+04  0.24268107223E+04  0.00000000000E+00 0. -1.
         25    2    1    2    0    0  0.77474935503E+03 -0.54086554783E+03 -0.74157133766E+03  0.12076115668E+04  0.12500217344E+03 0.  0.
          2    1    1    2  501    0 -0.82912737702E+03  0.46939081825E+03 -0.12936703363E+04  0.16066620325E+04  0.00000000000E+00 0. -1.
          1    1    1    2  502    0  0.54378021981E+02  0.71474729580E+02  0.98007910481E+03  0.98418527622E+03  0.00000000000E+00 0. -1.
         22    1    3    3    0    0  0.27879897976E+03 -0.14342197650E+03 -0.29817092252E+03  0.43267150760E+03  0.00000000000E+00 0.  1.
         22    1    3    3    0    0  0.49595037528E+03 -0.39744357133E+03 -0.44340041515E+03  0.77494005915E+03  0.00000000000E+00 0.  1.
</event>
<event>
 7    1  0.2895750E-005  0.2544590E+03  0.7818608E-02  0.1289096E+00
          2   -1    0    0  502    0  0.00000000000E+00  0.00000000000E+00  0.13912584234E+04  0.13912584234E+04  0.00000000000E+00 0. -1.
          1   -1    0    0  501    0 -0.00000000000E+00 -0.00000000000E+00 -0.28133363660E+03  0.28133363660E+03  0.00000000000E+00 0. -1.
         25    2    1    2    0    0 -0.96660372091E+01  0.22959119055E+03  0.18769901529E+03  0.32196382355E+03  0.12499694507E+03 0.  0.
          2    1    1    2  501    0 -0.57638871764E+01 -0.26229917137E+03 -0.13343719096E+03  0.29434598966E+03  0.00000000000E+00 0. -1.
          1    1    1    2  502    0  0.15429924385E+02  0.32707980819E+02  0.10556629625E+04  0.10562822468E+04  0.00000000000E+00 0. -1.
         22    1    3    3    0    0  0.33588836212E+02  0.14106937483E+03  0.51545378120E+02  0.15390160635E+03  0.00000000000E+00 0. -1.
         22    1    3    3    0    0 -0.43254873421E+02  0.88521815728E+02  0.13615363717E+03  0.16806221720E+03  0.00000000000E+00 0. -1.
</event>
<event>
 7    1  0.2895750E-005  0.2724746E+03  0.7818608E-02  0.1101142E+00
          2   -1    0    0  502    0  0.00000000000E+00  0.00000000000E+00  0.14975833768E+04  0.14975833768E+04  0.00000000000E+00 0. -1.
          1   -1    0    0  501    0 -0.00000000000E+00 -0.00000000000E+00 -0.33044830936E+03  0.33044830936E+03  0.00000000000E+00 0. -1.
         25    2    1    2    0    0  0.25008323029E+03 -0.31278699225E+03  0.11949059778E+04  0.12664129491E+04  0.12499654881E+03 0.  0.
          2    1    1    2  501    0 -0.26585626410E+03  0.45226797022E+02 -0.93901065523E+02  0.28555634547E+03  0.00000000000E+00 0. -1.
          1    1    1    2  502    0  0.15773033809E+02  0.26756019523E+03  0.66130155219E+02  0.27606239167E+03  0.00000000000E+00 0. -1.
         22    1    3    3    0    0  0.32950380907E+02  0.99636602257E+00  0.16095602740E+03  0.16429717923E+03  0.00000000000E+00 0.  1.
         22    1    3    3    0    0  0.21713284938E+03 -0.31378335827E+03  0.10339499504E+04  0.11021157698E+04  0.00000000000E+00 0.  1.
</event>
<event>
 7    1  0.2895750E-005  0.1529289E+03  0.7818608E-02  0.1268268E+00
          2   -1    0    0  502    0  0.00000000000E+00  0.00000000000E+00  0.39752409562E+03  0.39752409562E+03  0.00000000000E+00 0. -1.
          1   -1    0    0  501    0 -0.00000000000E+00 -0.00000000000E+00 -0.50226431332E+03  0.50226431332E+03  0.00000000000E+00 0. -1.
         25    2    1    2    0    0 -0.21661008580E+03  0.15358025254E+02 -0.27071904993E+03  0.36887747940E+03  0.12500397036E+03 0.  0.
          2    1    1    2  501    0  0.67467882812E+02 -0.28898111038E+02 -0.15787849483E+03  0.17410524162E+03  0.00000000000E+00 0. -1.
          1    1    1    2  502    0  0.14914220299E+03  0.13540085784E+02  0.32385732706E+03  0.35680568791E+03  0.00000000000E+00 0. -1.
         22    1    3    3    0    0 -0.27566039144E+02  0.32801172239E+02 -0.62153456570E+01  0.43294733352E+02  0.00000000000E+00 0. -1.
         22    1    3    3    0    0 -0.18904404666E+03 -0.17443146985E+02 -0.26450370427E+03  0.32558274605E+03  0.00000000000E+00 0. -1.
</event>
<event>
 7    1  0.2895750E-005  0.3775664E+03  0.7818608E-02  0.1057831E+00
          2   -1    0    0  502    0  0.00000000000E+00  0.00000000000E+00  0.77535453217E+03  0.77535453217E+03  0.00000000000E+00 0. -1.
          1   -1    0    0  501    0 -0.00000000000E+00 -0.00000000000E+00 -0.58748731766E+03  0.58748731766E+03  0.00000000000E+00 0. -1.
         25    2    1    2    0    0  0.51875494725E+02 -0.55931801715E+03 -0.11804834611E+03  0.58744451408E+03  0.12501173483E+03 0.  0.
          2    1    1    2  501    0 -0.23065575201E+03  0.25910710021E+03  0.70253518634E+02  0.35394084562E+03  0.00000000000E+00 0. -1.
          1    1    1    2  502    0  0.17878025729E+03  0.30021091693E+03  0.23566204199E+03  0.42145649013E+03  0.00000000000E+00 0. -1.
         22    1    3    3    0    0 -0.17112753366E+02 -0.36172470704E+03 -0.10809227372E+03  0.37791738469E+03  0.00000000000E+00 0.  1.
         22    1    3    3    0    0  0.68988248091E+02 -0.19759331010E+03 -0.99560723870E+01  0.20952712939E+03  0.00000000000E+00 0.  1.
</event>
<event>
 7    1  0.2895750E-005  0.1154550E+03  0.7818608E-02  0.1275473E+00
          2   -1    0    0  502    0  0.00000000000E+00  0.00000000000E+00  0.20979862554E+04  0.20979862554E+04  0.00000000000E+00 0. -1.
          1   -1    0    0  501    0 -0.00000000000E+00 -0.00000000000E+00 -0.19072619569E+04  0.19072619569E+04  0.00000000000E+00 0. -1.
         25    2    1    2    0    0  0.10777554721E+03  0.14921625224E+03 -0.69631803568E+03  0.73100280316E+03  0.12500093164E+03 0.  0.
          2    1    1    2  501    0 -0.88344770984E+02 -0.60626504475E+02 -0.11902054728E+04  0.11950185936E+04  0.00000000000E+00 0. -1.
          1    1    1    2  502    0 -0.19430776228E+02 -0.88589747765E+02  0.20772478070E+04  0.20792268155E+04  0.00000000000E+00 0. -1.
         22    1    3    3    0    0  0.10506904415E+03  0.54953917286E+02 -0.27878299139E+03  0.30295114021E+03  0.00000000000E+00 0. -1.
         22    1    3    3    0    0  0.27065030596E+01  0.94262334954E+02 -0.41753504428E+03  0.42805166295E+03  0.00000000000E+00 0. -1.
</event>
<event>
 7    1  0.2895750E-005  0.3331252E+03  0.7818608E-02  0.1209249E+00
          2   -1    0    0  502    0  0.00000000000E+00  0.00000000000E+00  0.16345633144E+04  0.16345633144E+04  0.00000000000E+00 0. -1.
          1   -1    0    0  501    0 -0.00000000000E+00 -0.00000000000E+00 -0.21687115100E+03  0.21687115100E+03  0.00000000000E+00 0. -1.
         25    2    1    2    0    0 -0.27581702078E+03 -0.20671889114E+03  0.81404123603E+02  0.37557870238E+03  0.12500000575E+03 0.  0.
          2    1    1    2  501    0  0.21889478328E+03  0.22987108238E+03  0.29683509223E+03  0.43458798032E+03  0.00000000000E+00 0. -1.
          1    1    1    2  502    0  0.56922237496E+02 -0.23152191247E+02  0.10394529475E+04  0.10412677827E+04  0.00000000000E+00 0. -1.
         22    1    3    3    0    0 -0.24400664495E+03 -0.14245161724E+03  0.23703271310E+02  0.28353756560E+03  0.00000000000E+00 0.  1.
         22    1    3    3    0    0 -0.31810375825E+02 -0.64267273893E+02  0.57700852293E+02  0.92041136777E+02  0.00000000000E+00 0.  1.
</event>
<event>
 7    1  0.2895750E-005  0.1263642E+03  0.7818608E-02  0.1247905E+00
          2   -1    0    0  502    0  0.00000000000E+00  0.00000000000E+00  0.30321676018E+04  0.30321676018E+04  0.00000000000E+00 0. -1.
          1   -1    0    0  501    0 -0.00000000000E+00 -0.00000000000E+00 -0.26477095321E+02  0.26477095321E+02  0.00000000000E+00 0. -1.
         25    2    1    2    0    0 -0.16641700568E+03  0.87518499633E+01  0.12372342326E+04  0.12546490790E+04  0.12499820119E+03 0.  0.
          2    1    1    2  501    0  0.77016873581E+02  0.76529011733E+02  0.17628629613E+03  0.20703899791E+03  0.00000000000E+00 0. -1.
          1    1    1    2  502    0  0.89400132100E+02 -0.85280861696E+02  0.15921699777E+04  0.15969566202E+04  0.00000000000E+00 0. -1.
         22    1    3    3    0    0  0.15955861916E+02  0.10027469624E+02  0.25007981301E+03  0.25078886050E+03  0.00000000000E+00 0. -1.
         22    1    3    3    0    0 -0.18237286760E+03 -0.12756196608E+01  0.98715441964E+03  0.10038602185E+04  0.00000000000E+00 0. -1.
</event>
<event>
 7    1  0.2895750E-005  0.2682624E+03  0.7818608E-02  0.1154222E+00
          2   -1    0    0  502    0  0.00000000000E+00  0.00000000000E+00  0.12624617973E+04  0.12624617973E+04  0.00000000000E+00 0. -1.
          1   -1    0    0  501    0 -0.00000000000E+00 -0.00000000000E+00 -0.15554656698E+04  0.15554656698E+04  0.00000000000E+00 0. -1.
         25    2    1    2    0    0  0.18666364386E+03  0.23991522236E+03  0.26193293888E+03  0.42028479889E+03  0.12501127088E+03 0.  0.
          2    1    1    2  501    0  0.55834529968E+02 -0.12993267117E+03 -0.14535476307E+04  0.14604111437E+04  0.00000000000E+00 0. -1.
          1    1    1    2  502    0 -0.24249817383E+03 -0.10998255120E+03  0.89861081931E+03  0.93723152447E+03  0.00000000000E+00 0. -1.
         22    1    3    3    0    0  0.31493278086E+02  0.14120497703E+03  0.11021526489E+03  0.18187379338E+03  0.00000000000E+00 0. -1.
         22    1    3    3    0    0  0.15517036577E+03  0.98710245332E+02  0.15171767399E+03  0.23841100551E+03  0.00000000000E+00 0. -1.
</event>
<event>
 7    1  0.2895750E-005  0.9705927E+02  0.7818608E-02  0.1417101E+00
          2   -1    0    0  502    0  0.00000000000E+00  0.00000000000E+00  0.46956849691E+03  0.46956849691E+03  0.00000000000E+00 0. -1.
          1   -1    0    0  501    0 -0.00000000000E+00 -0.00000000000E+00 -0.94401219683E+02  0.94401219683E+02  0.00000000000E+00 0. -1.
         25    2    1    2    0    0  0.96476574991E+02  0.79895852125E+02  0.10946658625E+02  0.17730762629E+03  0.12500835291E+03 0.  0.
          2    1    1    2  501    0 -0.21131960629E+02 -0.23889825133E+02  0.13988380040E+03  0.14347390396E+03  0.00000000000E+00 0. -1.
          1    1    1    2  502    0 -0.75344614362E+02 -0.56006026992E+02  0.22433681821E+03  0.24318818634E+03  0.00000000000E+00 0. -1.
         22    1    3    3    0    0  0.12708747630E+03  0.60747612321E+02  0.91286073613E+01  0.14115534176E+03  0.00000000000E+00 0. -1.
         22    1    3    3    0    0 -0.30610901307E+02  0.19148239804E+02  0.18180512638E+01  0.36152284531E+02  0.00000000000E+00 0. -1.
</event>
<event>
 7    1  0.2895750E-005  0.1647117E+03  0.7818608E-02  0.1202818E+00
          2   -1    0    0  502    0  0.00000000000E+00  0.00000000000E+00  0.30016751743E+04  0.30016751743E+04  0.00000000000E+00 0. -1.
          1   -1    0    0  501    0 -0.00000000000E+00 -0.00000000000E+00 -0.32427914927E+02  0.32427914927E+02  0.00000000000E+00 0. -1.
         25    2    1    2    0    0 -0.98566525795E+02 -0.20855367915E+03  0.17296244188E+04  0.17494096537E+04  0.12499403789E+03 0.  0.
          2    1    1    2  501    0  0.11448155273E+03  0.68044261266E+02  0.23454920092E+03  0.26972092069E+03  0.00000000000E+00 0. -1.
          1    1    1    2  502    0 -0.15915026932E+02  0.14050941789E+03  0.10050736397E+04  0.10149725148E+04  0.00000000000E+00 0. -1.
         22    1    3    3    0    0 -0.37328501288E+02 -0.33865958703E+02  0.13543995616E+03  0.14451401971E+03  0.00000000000E+00 0.  1.
         22    1    3    3    0    0 -0.61238024507E+02 -0.17468772045E+03  0.15941844626E+04  0.16048956340E+04  0.00000000000E+00 0.  1.
</event>
<event>
 7    1  0.2895750E-005  0.2771009E+03  0.7818608E-02  0.1244353E+00
          2   -1    0    0  502    0  0.00000000000E+00  0.00000000000E+00  0.25834250032E+04  0.25834250032E+04  0.00000000000E+00 0. -1.
          1   -1    0    0  501    0 -0.00000000000E+00 -0.00000000000E+00 -0.97353558801E+02  0.97353558801E+02  0.00000000000E+00 0. -1.
         25    2    1    2    0    0  0.10657504576E+03  0.23852914279E+03  0.92631729412E+03  0.97053743741E+03  0.12499918273E+03 0.  0.
          2    1    1    2  501    0  0.51282039299E+02  0.17526706677E+01 -0.51995553353E+02  0.73051057334E+02  0.00000000000E+00 0. -1.
          1    1    1    2  502    0 -0.15785708506E+03 -0.24028181345E+03  0.16117497036E+04  0.16371900672E+04  0.00000000000E+00 0. -1.
         22    1    3    3    0    0  0.12913575757E+03  0.17314740556E+03  0.76744206083E+03  0.79725992291E+03  0.00000000000E+00 0.  1.
         22    1    3    3    0    0 -0.22560711804E+02  0.65381737221E+02  0.15887523329E+03  0.17327751450E+03  0.00000000000E+00 0.  1.
</event>
<event>
 7    1  0.2895750E-005  0.3347392E+03  0.7818608E-02  0.1173994E+00
          2   -1    0    0  502    0  0.00000000000E+00  0.00000000000E+00  0.14731069713E+04  0.14731069713E+04  0.00000000000E+00 0. -1.
          1   -1    0    0  501    0 -0.00000000000E+00 -0.00000000000E+00 -0.29745991909E+03  0.29745991909E+03  0.00000000000E+00 0. -1.
         25    2    1    2    0    0  0.29573995555E+01 -0.33569327443E+03 -0.19290564339E+02  0.35874167234E+03  0.12499896354E+03 0.  0.
          2    1    1    2  501    0 -0.92791217853E+02  0.32773581265E+03  0.16595109740E+03  0.37889410095E+03  0.00000000000E+00 0. -1.
          1    1    1    2  502    0  0.89833818298E+02  0.79574617880E+01  0.10289865191E+04  0.10329311171E+04  0.00000000000E+00 0. -1.
         22    1    3    3    0    0 -0.44163762230E+02 -0.28725701798E+03 -0.14374223452E+02  0.29098737185E+03  0.00000000000E+00 0. -1.
         22    1    3    3    0    0  0.47121161786E+02 -0.48436256452E+02 -0.49163408869E+01  0.67754300490E+02  0.00000000000E+00 0. -1.
</event>
<event>
 7    1  0.2895750E-005  0.5995422E+02  0.7818608E-02  0.1496008E+00
          2   -1    0    0  502    0  0.00000000000E+00  0.00000000000E+00  0.12468531195E+04  0.12468531195E+04  0.00000000000E+00 0. -1.
          1   -1    0    0  501    0 -0.00000000000E+00 -0.00000000000E+00 -0.13310049242E+03  0.13310049242E+03  0.00000000000E+00 0. -1.
         25    2    1    2    0    0 -0.68384450561E+01 -0.61311754048E+02 -0.61668196870E+02  0.15242845118E+03  0.12500228282E+03 0.  0.
          2    1    1    2  501    0 -0.26627992784E+02  0.11523139425E+02 -0.16978961488E+02  0.33617225868E+02  0.00000000000E+00 0. -1.
          1    1    1    2  502    0  0.33466437840E+02  0.49788614623E+02  0.11923997854E+04  0.11939079349E+04  0.00000000000E+00 0. -1.
         22    1    3    3    0    0  0.29547970211E+01 -0.47533463055E+02 -0.99875152444E+02  0.11064902626E+03  0.00000000000E+00 0. -1.
         22    1    3    3    0    0 -0.97932420772E+01 -0.13778290994E+02  0.38206955574E+02  0.41779424928E+02  0.00000000000E+00 0. -1.
</event>
<event>
 7    1  0.2895750E-005  0.6522326E+02  0.7818608E-02  0.1421288E+00
          2   -1    0    0  502    0  0.00000000000E+00  0.00000000000E+00  0.15583060634E+04  0.15583060634E+04  0.00000000000E+00 0. -1.
          1   -1    0    0  501    0 -0.00000000000E+00 -0.00000000000E+00 -0.13988072364E+03  0.13988072364E+03  0.00000000000E+00 0. -1.
         25    2    1    2    0    0 -0.85605020154E+02 -0.39802653779E+02 -0.24562904684E+02  0.15857079409E+03  0.12501555795E+03 0.  0.
          2    1    1    2  501    0  0.39775206271E+02  0.43225185902E+02 -0.29967532283E+02  0.65943435771E+02  0.00000000000E+00 0. -1.
          1    1    1    2  502    0  0.45829813883E+02 -0.34225321234E+01  0.14729557767E+04  0.14736725571E+04  0.00000000000E+00 0. -1.
         22    1    3    3    0    0 -0.10376619282E+02  0.37016298721E+02  0.18605590234E+02  0.42708881824E+02  0.00000000000E+00 0. -1.
         22    1    3    3    0    0 -0.75228400873E+02 -0.76818952499E+02 -0.43168494918E+02  0.11586191227E+03  0.00000000000E+00 0. -1.
</event>
<event>
 7    1  0.2895750E-005  0.1453916E+03  0.7818608E-02  0.1298500E+00
          2   -1    0    0  502    0  0.00000000000E+00  0.00000000000E+00  0.33056800479E+03  0.33056800479E+03  0.00000000000E+00 0. -1.
          1   -1    0    0  501    0 -0.00000000000E+00 -0.00000000000E+00 -0.70142352522E+03  0.70142352522E+03  0.00000000000E+00 0. -1.
         25    2    1    2    0    0 -0.39151930544E+02  0.11343248992E+03 -0.64334572625E+03  0.66627209142E+03  0.12499989156E+03 0.  0.
          2    1    1    2  501    0  0.47912796578E+02  0.32666959733E+02  0.18275406112E+01  0.58018154390E+02  0.00000000000E+00 0. -1.
          1    1    1    2  502    0 -0.87608660333E+01 -0.14609944965E+03  0.27066266521E+03  0.30770128420E+03  0.00000000000E+00 0. -1.
         22    1    3    3    0    0 -0.35470537497E+02  0.47858374735E+02 -0.54354461696E+03  0.54679917126E+03  0.00000000000E+00 0.  1.
         22    1    3    3    0    0 -0.36813930468E+01  0.65574115182E+02 -0.99801109283E+02  0.11947292016E+03  0.00000000000E+00 0.  1.
</event>
<event>
 7    1  0.2895750E-005  0.1456514E+03  0.7818608E-02  0.1280699E+00
          2   -1    0    0  502    0  0.00000000000E+00  0.00000000000E+00  0.14274158298E+03  0.14274158298E+03  0.00000000000E+00 0. -1.
          1   -1    0    0  501    0 -0.00000000000E+00 -0.00000000000E+00 -0.13651003543E+04  0.13651003543E+04  0.00000000000E+00 0. -1.
         25    2    1    2    0    0  0.12884293178E+03  0.35913147189E+02  0.67628584867E+02  0.19519842985E+03  0.12505417352E+03 0.  0.
          2    1    1    2  501    0 -0.14332927809E+03  0.30929637975E+02 -0.11177014358E+04  0.11272783259E+04  0.00000000000E+00 0. -1.
          1    1    1    2  502    0  0.14486346310E+02 -0.66842785163E+02 -0.17228592034E+03  0.18536518148E+03  0.00000000000E+00 0. -1.
         22    1    3    3    0    0  0.14865775261E+03  0.32770575965E+02  0.79654540801E+02  0.17180769462E+03  0.00000000000E+00 0.  1.
         22    1    3    3    0    0 -0.19814820834E+02  0.31425712232E+01 -0.12025955934E+02  0.23390735232E+02  0.00000000000E+00 0.  1.
</event>
<event>
 7    1  0.2895750E-005  0.1124372E+03  0.7818608E-02  0.1261937E+00
          2   -1    0    0  502    0  0.00000000000E+00  0.00000000000E+00  0.37354939783E+03  0.37354939783E+03  0.00000000000E+00 0. -1.
          1   -1    0    0  501    0 -0.00000000000E+00 -0.00000000000E+00 -0.10233049739E+04  0.10233049739E+04  0.00000000000E+00 0. -1.
         25    2    1    2    0    0 -0.19871100278E+03  0.49889781456E+02 -0.62946399930E+03  0.67366561121E+03  0.12500150554E+03 0.  0.
          2    1    1    2  501    0  0.87830273997E+02 -0.59670485819E+02 -0.35495642132E+03  0.37049802286E+03  0.00000000000E+00 0. -1.
          1    1    1    2  502    0  0.11088072879E+03  0.97807043631E+01  0.33466484460E+03  0.35269073762E+03  0.00000000000E+00 0. -1.
         22    1    3    3    0    0 -0.68273866034E+02 -0.20976893016E+02 -0.35009800220E+03  0.35730933653E+03  0.00000000000E+00 0. -1.
         22    1    3    3    0    0 -0.13043713675E+03  0.70866674472E+02 -0.27936599710E+03  0.31635627468E+03  0.00000000000E+00 0. -1.
</event>
<event>
 7    1  0.2895750E-005  0.5178123E+02  0.7818608E-02  0.1451539E+00
          2   -1    0    0  502    0  0.00000000000E+00  0.00000000000E+00  0.51904879169E+03  0.51904879169E+03  0.00000000000E+00 0. -1.
          1   -1    0    0  501    0 -0.00000000000E+00 -0.00000000000E+00 -0.12154084301E+04  0.12154084301E+04  0.00000000000E+00 0. -1.
         25    2    1    2    0    0  0.58036226064E+02 -0.69889020850E+02  0.15389706464E+03  0.21808795090E+03  0.12500147620E+03 0.  0.
          2    1    1    2  501    0 -0.39568129690E+02  0.23695494073E+02 -0.11810026391E+04  0.11819028500E+04  0.00000000000E+00 0. -1.
          1    1    1    2  502    0 -0.18468096374E+02  0.46193526777E+02  0.33074593603E+03  0.33446642088E+03  0.00000000000E+00 0. -1.
         22    1    3    3    0    0  0.30216953218E+02  0.31233169934E+01 -0.13585124973E+02  0.33277244347E+02  0.00000000000E+00 0.  1.
         22    1    3    3    0    0  0.27819272846E+02 -0.73012337843E+02  0.16748218961E+03  0.18481070655E+03  0.00000000000E+00 0.  1.
</event>
<event>
 7    1  0.2895750E-005  0.4791418E+03  0.7818608E-02  0.1032964E+00
          2   -1    0    0  502    0  0.00000000000E+00  0.00000000000E+00  0.17542363060E+04  0.17542363060E+04  0.00000000000E+00 0. -1.
          1   -1    0    0  501    0 -0.00000000000E+00 -0.00000000000E+00 -0.95379328683E+03  0.95379328683E+03  0.00000000000E+00 0. -1.
         25    2    1    2    0    0 -0.60000669869E+03 -0.32683140427E+03  0.37145293330E+03  0.78767290959E+03  0.12499810216E+03 0.  0.
          2    1    1    2  501    0  0.38447158587E+03 -0.71315233213E+02 -0.64531816486E+03  0.75454608655E+03  0.00000000000E+00 0. -1.
          1    1    1    2  502    0  0.21553511283E+03  0.39814663748E+03  0.10743082507E+04  0.11658105967E+04  0.00000000000E+00 0. -1.
         22    1    3    3    0    0 -0.18962989966E+03 -0.13128565764E+03  0.18765298416E+03  0.29733661935E+03  0.00000000000E+00 0. -1.
         22    1    3    3    0    0 -0.41037679904E+03 -0.19554574663E+03  0.18379994914E+03  0.49033629023E+03  0.00000000000E+00 0. -1.
</event>
<event>
 7    1  0.2895750E-005  0.8163893E+02  0.7818608E-02  0.1479032E+00
          2   -1    0    0  502    0  0.00000000000E+00  0.00000000000E+00  0.12632503641E+04  0.12632503641E+04  0.00000000000E+00 0. -1.
          1   -1    0    0  501    0 -0.00000000000E+00 -0.00000000000E+00 -0.76186942857E+02  0.76186942857E+02  0.00000000000E+00 0. -1.
         25    2    1    2    0    0  0.74729593010E+02 -0.47653938083E+02  0.54278571217E+03  0.56399980192E+03  0.12499614931E+03 0.  0.
          2    1    1    2  501    0 -0.20648507682E+02 -0.12217544439E+02 -0.61005908455E+02  0.65554177045E+02  0.00000000000E+00 0. -1.
          1    1    1    2  502    0 -0.54081085328E+02  0.59871482522E+02  0.70528361751E+03  0.70988332797E+03  0.00000000000E+00 0. -1.
         22    1    3    3    0    0 -0.85320961454E+00  0.12267123351E+02  0.33162599594E+03  0.33185390078E+03  0.00000000000E+00 0. -1.
         22    1    3    3    0    0  0.75582802624E+02 -0.59921061434E+02  0.21115971624E+03  0.23214590114E+03  0.00000000000E+00 0. -1.
</event>
<event>
 7    1  0.2895750E-005  0.5749771E+02  0.7818608E-02  0.1471827E+00
          2   -1    0    0  502    0  0.00000000000E+00  0.00000000000E+00  0.18285941186E+04  0.18285941186E+04  0.00000000000E+00 0. -1.
          1   -1    0    0  501    0 -0.00000000000E+00 -0.00000000000E+00 -0.57371133955E+03  0.57371133955E+03  0.00000000000E+00 0. -1.
         25    2    1    2    0    0  0.75435717982E+02  0.42785201010E+02  0.30095305518E+03  0.33722100604E+03  0.12499657801E+03 0.  0.
          2    1    1    2  501    0 -0.20258743537E+02 -0.29584543082E+02 -0.55446499795E+03  0.55562315991E+03  0.00000000000E+00 0. -1.
          1    1    1    2  502    0 -0.55176974446E+02 -0.13200657928E+02  0.15083947218E+04  0.15094612922E+04  0.00000000000E+00 0. -1.
         22    1    3    3    0    0  0.32903739974E+02 -0.41882408897E+02  0.14806771838E+03  0.15735578002E+03  0.00000000000E+00 0. -1.
         22    1    3    3    0    0  0.42531978009E+02  0.84667609907E+02  0.15288533680E+03  0.17986522602E+03  0.00000000000E+00 0. -1.
</event>
<event>
 7    1  0.2895750E-005  0.3134011E+03  0.7818608E-02  0.1121435E+00
          2   -1    0    0  502    0  0.00000000000E+00  0.00000000000E+00  0.44400832710E+03  0.44400832710E+03  0.00000000000E+00 0. -1.
          1   -1    0    0  501    0 -0.00000000000E+00 -0.00000000000E+00 -0.48106752631E+03  0.48106752631E+03  0.00000000000E+00 0. -1.
         25    2    1    2    0    0  0.22316221374E+03  0.28633436486E+03 -0.18966458460E+03  0.42823840398E+03  0.12500693521E+03 0.  0.
          2    1    1    2  501    0 -0.43883582924E+02 -0.26959783704E+03  0.21275856816E+02  0.27397340139E+03  0.00000000000E+00 0. -1.
          1    1    1    2  502    0 -0.17927863082E+03 -0.16736527818E+02  0.13132952857E+03  0.22286404803E+03  0.00000000000E+00 0. -1.
         22    1    3    3    0    0  0.96303409042E+02  0.61222551374E+02 -0.10832333364E+03  0.15734195880E+03  0.00000000000E+00 0. -1.
         22    1    3    3    0    0  0.12685880470E+03  0.22511181349E+03 -0.81341250964E+02  0.27089644518E+03  0.00000000000E+00 0. -1.
</event>
<event>
 7    1  0.2895750E-005  0.1196864E+03  0.7818608E-02  0.1253623E+00
          2   -1    0    0  502    0  0.00000000000E+00  0.00000000000E+00  0.36617975181E+04  0.36617975181E+04  0.00000000000E+00 0. -1.
          1   -1    0    0  501    0 -0.00000000000E+00 -0.00000000000E+00 -0.12590621580E+03  0.12590621580E+03  0.00000000000E+00 0. -1.
         25    2    1    2    0    0  0.18329966853E+03  0.11730864594E+03  0.18852846028E+03  0.31389176894E+03  0.12499990151E+03 0.  0.
          2    1    1    2  501    0 -0.70434777239E+02 -0.82234873819E+02 -0.15055201893E+02  0.10931738847E+03  0.00000000000E+00 0. -1.
          1    1    1    2  502    0 -0.11286489130E+03 -0.35073772116E+02  0.33624180439E+04  0.33644945764E+04  0.00000000000E+00 0. -1.
         22    1    3    3    0    0  0.17748342286E+03  0.13880978362E+03  0.18458095602E+03  0.29127075161E+03  0.00000000000E+00 0. -1.
         22    1    3    3    0    0  0.58162456763E+01 -0.21501137684E+02  0.39475042672E+01  0.22621017338E+02  0.00000000000E+00 0. -1.
</event>
<event>
 7    1  0.2895750E-005  0.2987342E+03  0.7818608E-02  0.1165278E+00
          2   -1    0    0  502    0  0.00000000000E+00  0.00000000000E+00  0.35200160193E+03  0.35200160193E+03  0.00000000000E+00 0. -1.
          1   -1    0    0  501    0 -0.00000000000E+00 -0.00000000000E+00 -0.12175201041E+04  0.12175201041E+04  0.00000000000E+00 0. -1.
         25    2    1    2    0    0  0.26160208392E+03  0.12487709304E+03 -0.61713276533E+01  0.31574172104E+03  0.12499924177E+03 0.  0.
          2    1    1    2  501    0  0.51780461554E+02 -0.98922321448E+02 -0.92569230788E+03  0.93240178611E+03  0.00000000000E+00 0. -1.
          1    1    1    2  502    0 -0.31338254548E+03 -0.25954771591E+02  0.66345133375E+02  0.32137819886E+03  0.00000000000E+00 0. -1.
         22    1    3    3    0    0  0.64769319547E+02  0.72943174566E+02 -0.46742320241E+02  0.10816938556E+03  0.00000000000E+00 0. -1.
         22    1    3    3    0    0  0.19683276438E+03  0.51933918473E+02  0.40570992588E+02  0.20757233549E+03  0.00000000000E+00 0. -1.
</event>
<event>
 7    1  0.2895750E-005  0.8203787E+02  0.7818608E-02  0.1350910E+00
          2   -1    0    0  502    0  0.00000000000E+00  0.00000000000E+00  0.19474260575E+04  0.19474260575E+04  0.00000000000E+00 0. -1.
          1   -1    0    0  501    0 -0.00000000000E+00 -0.00000000000E+00 -0.12823927865E+03  0.12823927865E+03  0.00000000000E+00 0. -1.
         25    2    1    2    0    0  0.58622940410E+02  0.11982770970E+03  0.21412426956E+03  0.28154844549E+03  0.12499998077E+03 0.  0.
          2    1    1    2  501    0  0.31627307933E+00 -0.64553423763E+02 -0.82425302799E+02  0.10469563071E+03  0.00000000000E+00 0. -1.
          1    1    1    2  502    0 -0.58939213489E+02 -0.55274285936E+02  0.16874878120E+04  0.16894212599E+04  0.00000000000E+00 0. -1.
         22    1    3    3    0    0 -0.39108637039E+02  0.31857161432E+02  0.72176005483E+02  0.88055323479E+02  0.00000000000E+00 0. -1.
         22    1    3    3    0    0  0.97731577449E+02  0.87970548267E+02  0.14194826407E+03  0.19349312201E+03  0.00000000000E+00 0. -1.
</event>
<event>
 7    1  0.2895750E-005  0.2582998E+03  0.7818608E-02  0.1249513E+00
          2   -1    0    0  502    0  0.00000000000E+00  0.00000000000E+00  0.68737649348E+03  0.68737649348E+03  0.00000000000E+00 0. -1.
          1   -1    0    0  501    0 -0.00000000000E+00 -0.00000000000E+00 -0.10847963761E+04  0.10847963761E+04  0.00000000000E+00 0. -1.
         25    2    1    2    0    0 -0.19567344855E+03 -0.10419721885E+03 -0.20270064250E+03  0.32535501016E+03  0.12499269293E+03 0.  0.
          2    1    1    2  501    0 -0.50480108094E+02  0.13552635097E+02 -0.79239265082E+03  0.79411461912E+03  0.00000000000E+00 0. -1.
          1    1    1    2  502    0  0.24615355664E+03  0.90644583751E+02  0.59767341071E+03  0.65270324028E+03  0.00000000000E+00 0. -1.
         22    1    3    3    0    0 -0.15936398094E+03 -0.61398638752E+02 -0.76295924825E+02  0.18705009866E+03  0.00000000000E+00 0. -1.
         22    1    3    3    0    0 -0.36309467605E+02 -0.42798580096E+02 -0.12640471767E+03  0.13830491150E+03  0.00000000000E+00 0. -1.
</event>
<event>
 7    1  0.2895750E-005  0.8704035E+03  0.7818608E-02  0.1111337E+00
          2   -1    0    0  502    0  0.00000000000E+00  0.00000000000E+00  0.16541796624E+04  0.16541796624E+04  0.00000000000E+00 0. -1.
          1   -1    0    0  501    0 -0.00000000000E+00 -0.00000000000E+00 -0.81581994110E+03  0.81581994110E+03  0.00000000000E+00 0. -1.
         25    2    1    2    0    0 -0.55213521129E+03 -0.66371608989E+03 -0.20095579612E+03  0.89519869081E+03  0.12500049805E+03 0.  0.
          2    1    1    2  501    0 -0.60536931107E+02  0.41894684765E+02 -0.10950425202E+03  0.13195099791E+03  0.00000000000E+00 0. -1.
          1    1    1    2  502    0  0.61267214240E+03  0.62182140512E+03  0.11488197695E+04  0.14428499148E+04  0.00000000000E+00 0. -1.
         22    1    3    3    0    0 -0.28171630971E+03 -0.41720003075E+03 -0.15303409178E+03  0.52615527942E+03  0.00000000000E+00 0.  1.
         22    1    3    3    0    0 -0.27041890158E+03 -0.24651605914E+03 -0.47921704339E+02  0.36904341139E+03  0.00000000000E+00 0.  1.
</event>
<event>
 7    1  0.2895750E-005  0.3410513E+03  0.7818608E-02  0.1195396E+00
          2   -1    0    0  502    0  0.00000000000E+00  0.00000000000E+00  0.20265740595E+04  0.20265740595E+04  0.00000000000E+00 0. -1.
          1   -1    0    0  501    0 -0.00000000000E+00 -0.00000000000E+00 -0.20837707089E+03  0.20837707089E+03  0.00000000000E+00 0. -1.
         25    2    1    2    0    0  0.27583530219E+03  0.27110685465E+03  0.37760290248E+02  0.40821215541E+03  0.12500913461E+03 0.  0.
          2    1    1    2  501    0 -0.59812229773E+01 -0.69468770402E+02  0.24148933255E+03  0.25135389956E+03  0.00000000000E+00 0. -1.
          1    1    1    2  502    0 -0.26985407921E+03 -0.20163808425E+03  0.15389473659E+04  0.15753850755E+04  0.00000000000E+00 0. -1.
         22    1    3    3    0    0  0.91428830010E+02  0.45586329193E+02 -0.34919453862E+02  0.10796625688E+03  0.00000000000E+00 0.  1.
         22    1    3    3    0    0  0.18440647218E+03  0.22552052545E+03  0.72679744111E+02  0.30024589854E+03  0.00000000000E+00 0.  1.
</event>
<event>
 7    1  0.2895750E-005  0.2369331E+03  0.7818608E-02  0.1265441E+00
          2   -1    0    0  502    0  0.00000000000E+00  0.00000000000E+00  0.86782032121E+03  0.86782032121E+03  0.00000000000E+00 0. -1.
          1   -1    0    0  501    0 -0.00000000000E+00 -0.00000000000E+00 -0.18443354470E+03  0.18443354470E+03  0.00000000000E+00 0. -1.
         25    2    1    2    0    0  0.24354676876E+03  0.69825638980E+02  0.37797107664E+03  0.47189470477E+03  0.12502731373E+03 0.  0.
          2    1    1    2  501    0 -0.16876545042E+02 -0.45675449470E+02 -0.10227091594E+03  0.11327137637E+03  0.00000000000E+00 0. -1.
          1    1    1    2  502    0 -0.22667022372E+03 -0.24150189510E+02  0.40768661581E+03  0.46708778477E+03  0.00000000000E+00 0. -1.
         22    1    3    3    0    0 -0.12540578868E+00  0.26727145162E+02  0.81237554614E+02  0.85521320703E+02  0.00000000000E+00 0.  1.
         22    1    3    3    0    0  0.24367217455E+03  0.43098493819E+02  0.29673352203E+03  0.38637338407E+03  0.00000000000E+00 0.  1.
</event>
<event>
 7    1  0.2895750E-005  0.8802459E+02  0.7818608E-02  0.1422062E+00
          2   -1    0    0  502    0  0.00000000000E+00  0.00000000000E+00  0.63107175428E+03  0.63107175428E+03  0.00000000000E+00 0. -1.
          1   -1    0    0  501    0 -0.00000000000E+00 -0.00000000000E+00 -0.45463734817E+03  0.45463734817E+03  0.00000000000E+00 0. -1.
         25    2    1    2    0    0  0.85035008459E+02 -0.74433693867E+02  0.47851841133E+03  0.50732282858E+03  0.12500101988E+03 0.  0.
          2    1    1    2  501    0 -0.77432239038E+02  0.41447112000E+02 -0.43369141715E+03  0.44249503957E+03  0.00000000000E+00 0. -1.
          1    1    1    2  502    0 -0.76027694205E+01  0.32986581867E+02  0.13160741193E+03  0.13589123430E+03  0.00000000000E+00 0. -1.
         22    1    3    3    0    0  0.63393646502E+02 -0.10758206825E+03  0.30972804250E+03  0.33395226626E+03  0.00000000000E+00 0.  1.
         22    1    3    3    0    0  0.21641361957E+02  0.33148374383E+02  0.16879036883E+03  0.17337056232E+03  0.00000000000E+00 0.  1.
</event>
<event>
 7    1  0.2895750E-005  0.2945558E+02  0.7818608E-02  0.1629102E+00
          2   -1    0    0  502    0  0.00000000000E+00  0.00000000000E+00  0.58842710594E+03  0.58842710594E+03  0.00000000000E+00 0. -1.
          1   -1    0    0  501    0 -0.00000000000E+00 -0.00000000000E+00 -0.17699619026E+03  0.17699619026E+03  0.00000000000E+00 0. -1.
         25    2    1    2    0    0 -0.18391664800E+02  0.33908163747E+02  0.39005767358E+03  0.41140710738E+03  0.12499120922E+03 0.  0.
          2    1    1    2  501    0  0.27630742250E+02 -0.10210438197E+02 -0.16414260802E+03  0.16676482462E+03  0.00000000000E+00 0. -1.
          1    1    1    2  502    0 -0.92390774500E+01 -0.23697725550E+02  0.18551585012E+03  0.18725136420E+03  0.00000000000E+00 0. -1.
         22    1    3    3    0    0 -0.28448742540E+02  0.43248408193E+01  0.10601108067E+02  0.30666246795E+02  0.00000000000E+00 0. -1.
         22    1    3    3    0    0  0.10057077741E+02  0.29583322928E+02  0.37945656551E+03  0.38074086058E+03  0.00000000000E+00 0. -1.
</event>
<event>
 7    1  0.5274388E-005  0.1495734E+03  0.7818608E-02  0.1237038E+00
          2   -1    0    0  502    0  0.00000000000E+00  0.00000000000E+00  0.17148173578E+04  0.17148173578E+04  0.00000000000E+00 0. -1.
          1   -1    0    0  501    0 -0.00000000000E+00 -0.00000000000E+00 -0.17895792439E+04  0.17895792439E+04  0.00000000000E+00 0. -1.
         25    2    1    2    0    0 -0.13457404748E+03 -0.20619550221E+03 -0.13076798469E+04  0.13365175574E+04  0.12500335946E+03 0.  0.
          2    1    1    2  501    0  0.32658113107E+02  0.97034359479E+02 -0.45854510328E+03  0.46983596181E+03  0.00000000000E+00 0. -1.
          1    1    1    2  502    0  0.10191593438E+03  0.10916114273E+03  0.16914630641E+04  0.16980430825E+04  0.00000000000E+00 0. -1.
         22    1    3    3    0    0 -0.97002246971E+02 -0.52174794333E+02 -0.69422084678E+03  0.70290413940E+03  0.00000000000E+00 0. -1.
         22    1    3    3    0    0 -0.37571800514E+02 -0.15402070788E+03 -0.61345900013E+03  0.63361341802E+03  0.00000000000E+00 0. -1.
</event>
<event>
 7    1  0.2895750E-005  0.2493079E+03  0.7818608E-02  0.1184496E+00
          2   -1    0    0  502    0  0.00000000000E+00  0.00000000000E+00  0.16372959101E+04  0.16372959101E+04  0.00000000000E+00 0. -1.
          1   -1    0    0  501    0 -0.00000000000E+00 -0.00000000000E+00 -0.15281029814E+03  0.15281029814E+03  0.00000000000E+00 0. -1.
         25    2    1    2    0    0  0.61188657303E+02  0.16382229060E+03  0.35936133860E+03  0.41874430531E+03  0.12499770743E+03 0.  0.
          2    1    1    2  501    0 -0.12008101100E+03 -0.25386405251E+03  0.43240055858E+02  0.28414100160E+03  0.00000000000E+00 0. -1.
          1    1    1    2  502    0  0.58892353700E+02  0.90041761905E+02  0.10818842175E+04  0.10872209013E+04  0.00000000000E+00 0. -1.
         22    1    3    3    0    0 -0.85434082285E+01  0.59398458759E+02  0.23299967814E+03  0.24060344291E+03  0.00000000000E+00 0. -1.
         22    1    3    3    0    0  0.69732065531E+02  0.10442383184E+03  0.12636166046E+03  0.17814086239E+03  0.00000000000E+00 0. -1.
</event>
<event>
 7    1  0.2895750E-005  0.5954777E+02  0.7818608E-02  0.1401416E+00
          2   -1    0    0  502    0  0.00000000000E+00  0.00000000000E+00  0.30656928265E+03  0.30656928265E+03  0.00000000000E+00 0. -1.
          1   -1    0    0  501    0 -0.00000000000E+00 -0.00000000000E+00 -0.32236048090E+03  0.32236048090E+03  0.00000000000E+00 0. -1.
         25    2    1    2    0    0 -0.46733498147E+02 -0.90769660097E+02  0.96333261502E+02  0.18795688018E+03  0.12499816195E+03 0.  0.
          2    1    1    2  501    0 -0.25891533000E+01  0.58826283241E+02 -0.26799802576E+03  0.27439055582E+03  0.00000000000E+00 0. -1.
          1    1    1    2  502    0  0.49322651447E+02  0.31943376856E+02  0.15587356601E+03  0.16658232755E+03  0.00000000000E+00 0. -1.
         22    1    3    3    0    0  0.32000116526E+02 -0.12984311295E+02 -0.84426452854E+01  0.35551062669E+02  0.00000000000E+00 0.  1.
         22    1    3    3    0    0 -0.78733614673E+02 -0.77785348802E+02  0.10477590679E+03  0.15240581751E+03  0.00000000000E+00 0.  1.
</event>
<event>
 7    1  0.2895750E-005  0.2305949E+03  0.7818608E-02  0.1166134E+00
          2   -1    0    0  502    0  0.00000000000E+00  0.00000000000E+00  0.15062614340E+03  0.15062614340E+03  0.00000000000E+00 0. -1.
          1   -1    0    0  501    0 -0.00000000000E+00 -0.00000000000E+00 -0.10359595152E+04  0.10359595152E+04  0.00000000000E+00 0. -1.
         25    2    1    2    0    0 -0.10178381678E+03 -0.26480579582E+03 -0.43537389875E+03  0.53446921335E+03  0.12499941382E+03 0.  0.
          2    1    1    2  501    0 -0.71577593504E+02  0.12406111149E+03 -0.39780746265E+03  0.42280644344E+03  0.00000000000E+00 0. -1.
          1    1    1    2  502    0  0.17336141029E+03  0.14074468433E+03 -0.52152010406E+02  0.22931000182E+03  0.00000000000E+00 0. -1.
         22    1    3    3    0    0 -0.60524998272E+02 -0.15288189465E+03 -0.14012994855E+03  0.21603831051E+03  0.00000000000E+00 0.  1.
         22    1    3    3    0    0 -0.41258818512E+02 -0.11192390116E+03 -0.29524395019E+03  0.31843090284E+03  0.00000000000E+00 0.  1.
</event>
<event>
 7    1  0.2895750E-005  0.2883477E+03  0.7818608E-02  0.1106545E+00
          2   -1    0    0  502    0  0.00000000000E+00  0.00000000000E+00  0.10814485766E+04  0.10814485766E+04  0.00000000000E+00 0. -1.
          1   -1    0    0  501    0 -0.00000000000E+00 -0.00000000000E+00 -0.74238793255E+03  0.74238793255E+03  0.00000000000E+00 0. -1.
         25    2    1    2    0    0 -0.19857709098E+03 -0.20224126234E+03  0.58694003470E+03  0.66366971822E+03  0.12499800519E+03 0.  0.
          2    1    1    2  501    0 -0.19698053112E+02  0.29260990547E+03 -0.63908506457E+03  0.70316306062E+03  0.00000000000E+00 0. -1.
          1    1    1    2  502    0  0.21827514409E+03 -0.90368643124E+02  0.39120567388E+03  0.45700373025E+03  0.00000000000E+00 0. -1.
         22    1    3    3    0    0 -0.14413230930E+03 -0.62299026851E+02  0.25708635142E+03  0.30124522140E+03  0.00000000000E+00 0. -1.
         22    1    3    3    0    0 -0.54444781683E+02 -0.13994223549E+03  0.32985368328E+03  0.36242449683E+03  0.00000000000E+00 0. -1.
</event>
<event>
 7    1  0.2895750E-005  0.1495456E+03  0.7818608E-02  0.1247042E+00
          2   -1    0    0  502    0  0.00000000000E+00  0.00000000000E+00  0.12361070350E+04  0.12361070350E+04  0.00000000000E+00 0. -1.
          1   -1    0    0  501    0 -0.00000000000E+00 -0.00000000000E+00 -0.11244811436E+04  0.11244811436E+04  0.00000000000E+00 0. -1.
         25    2    1    2    0    0  0.13945567915E+03  0.14240235502E+03  0.26767640977E+03  0.35637327053E+03  0.12499972175E+03 0.  0.
          2    1    1    2  501    0 -0.30318290131E+01 -0.92491624947E+02 -0.10724186255E+04  0.10764040138E+04  0.00000000000E+00 0. -1.
          1    1    1    2  502    0 -0.13642385014E+03 -0.49910730069E+02  0.91636810706E+03  0.92781089426E+03  0.00000000000E+00 0. -1.
         22    1    3    3    0    0 -0.70552769522E+01 -0.40852787726E+00 -0.95142358889E+01  0.11851772545E+02  0.00000000000E+00 0.  1.
         22    1    3    3    0    0  0.14651095610E+03  0.14281088289E+03  0.27719064566E+03  0.34452149798E+03  0.00000000000E+00 0.  1.
</event>
<event>
 7    1  0.2895750E-005  0.2293941E+03  0.7818608E-02  0.1316528E+00
          2   -1    0    0  502    0  0.00000000000E+00  0.00000000000E+00  0.14720027020E+04  0.14720027020E+04  0.00000000000E+00 0. -1.
          1   -1    0    0  501    0 -0.00000000000E+00 -0.00000000000E+00 -0.87724734416E+02  0.87724734416E+02  0.00000000000E+00 0. -1.
         25    2    1    2    0    0 -0.15929235991E+03  0.14937813476E+03  0.22225780684E+03  0.33572505347E+03  0.12499958300E+03 0.  0.
          2    1    1    2  501    0  0.11231830400E+02  0.29094713639E+02 -0.72003238298E+01  0.32007827779E+02  0.00000000000E+00 0. -1.
          1    1    1    2  502    0  0.14806052951E+03 -0.17847284840E+03  0.11692204845E+04  0.11919945551E+04  0.00000000000E+00 0. -1.
         22    1    3    3    0    0 -0.88957438158E+02  0.15905130610E+02  0.39190858170E+02  0.98500367246E+02  0.00000000000E+00 0.  1.
         22    1    3    3    0    0 -0.70334921754E+02  0.13347300415E+03  0.18306694867E+03  0.23722468622E+03  0.00000000000E+00 0.  1.
</event>
<event>
 7    1  0.2895750E-005  0.5028237E+03  0.7818608E-02  0.1189619E+00
          2   -1    0    0  502    0  0.00000000000E+00  0.00000000000E+00  0.15271779777E+04  0.15271779777E+04  0.00000000000E+00 0. -1.
          1   -1    0    0  501    0 -0.00000000000E+00 -0.00000000000E+00 -0.10031267588E+04  0.10031267588E+04  0.00000000000E+00 0. -1.
         25    2    1    2    0    0 -0.41587444137E+03  0.30482542136E+03 -0.39735506977E+03  0.66286200021E+03  0.12499956546E+03 0.  0.
          2    1    1    2  501    0  0.42034646238E+03 -0.25462832420E+03 -0.34472960757E+03  0.60030428472E+03  0.00000000000E+00 0. -1.
          1    1    1    2  502    0 -0.44720210072E+01 -0.50197097156E+02  0.12661358963E+04  0.12671384515E+04  0.00000000000E+00 0. -1.
         22    1    3    3    0    0 -0.12778968974E+02  0.25139333252E+02 -0.63337138772E+02  0.69331675821E+02  0.00000000000E+00 0. -1.
         22    1    3    3    0    0 -0.40309547239E+03  0.27968608811E+03 -0.33401793099E+03  0.59353032439E+03  0.00000000000E+00 0. -1.
</event>
<event>
 7    1  0.2895750E-005  0.1280788E+03  0.7818608E-02  0.1248086E+00
          2   -1    0    0  502    0  0.00000000000E+00  0.00000000000E+00  0.97039359458E+03  0.97039359458E+03  0.00000000000E+00 0. -1.
          1   -1    0    0  501    0 -0.00000000000E+00 -0.00000000000E+00 -0.65380282259E+03  0.65380282259E+03  0.00000000000E+00 0. -1.
         25    2    1    2    0    0 -0.15387766793E+02 -0.15861654966E+03 -0.38254913157E+03  0.43285760129E+03  0.12500348689E+03 0.  0.
          2    1    1    2  501    0 -0.79072790805E+02  0.71976963710E+02 -0.22987330381E+03  0.25352499946E+03  0.00000000000E+00 0. -1.
          1    1    1    2  502    0  0.94460557598E+02  0.86639585952E+02  0.92901320737E+03  0.93781381642E+03  0.00000000000E+00 0. -1.
         22    1    3    3    0    0 -0.15177350293E+01 -0.13904744847E+01 -0.16003494036E+03  0.16004817736E+03  0.00000000000E+00 0.  1.
         22    1    3    3    0    0 -0.13870031764E+02 -0.15722607518E+03 -0.22251419121E+03  0.27280942393E+03  0.00000000000E+00 0.  1.
</event>
<event>
 7    1  0.2895750E-005  0.6525295E+02  0.7818608E-02  0.1428616E+00
          2   -1    0    0  502    0  0.00000000000E+00  0.00000000000E+00  0.15285238105E+04  0.15285238105E+04  0.00000000000E+00 0. -1.
          1   -1    0    0  501    0 -0.00000000000E+00 -0.00000000000E+00 -0.28095128497E+02  0.28095128497E+02  0.00000000000E+00 0. -1.
         25    2    1    2    0    0 -0.39652352812E+02  0.76311355195E+02  0.57492964624E+03  0.59461266365E+03  0.12499755851E+03 0.  0.
          2    1    1    2  501    0  0.41642048696E+02 -0.12357058928E+02  0.10388893017E+02  0.44661910204E+02  0.00000000000E+00 0. -1.
          1    1    1    2  502    0 -0.19896958834E+01 -0.63954296267E+02  0.91511014277E+03  0.91734436517E+03  0.00000000000E+00 0. -1.
         22    1    3    3    0    0  0.28827949459E+02  0.39186519305E+02  0.40219358698E+03  0.40512506140E+03  0.00000000000E+00 0. -1.
         22    1    3    3    0    0 -0.68480302271E+02  0.37124835890E+02  0.17273605926E+03  0.18948760225E+03  0.00000000000E+00 0. -1.
</event>
<event>
 7    1  0.2895750E-005  0.1209895E+03  0.7818608E-02  0.1363611E+00
          2   -1    0    0  502    0  0.00000000000E+00  0.00000000000E+00  0.84315754869E+03  0.84315754869E+03  0.00000000000E+00 0. -1.
          1   -1    0    0  501    0 -0.00000000000E+00 -0.00000000000E+00 -0.86973442769E+03  0.86973442769E+03  0.00000000000E+00 0. -1.
         25    2    1    2    0    0 -0.60603691468E+01 -0.14515722784E+03  0.54628914943E+03  0.57893385739E+03  0.12500091031E+03 0.  0.
          2    1    1    2  501    0  0.39980333150E+01  0.39119304283E+02 -0.84291372793E+03  0.84383046696E+03  0.00000000000E+00 0. -1.
          1    1    1    2  502    0  0.20623358317E+01  0.10603792355E+03  0.27004769951E+03  0.29012765203E+03  0.00000000000E+00 0. -1.
         22    1    3    3    0    0 -0.64154490052E+02 -0.79885511191E+02  0.25475567120E+03  0.27458686331E+03  0.00000000000E+00 0. -1.
         22    1    3    3    0    0  0.58094120905E+02 -0.65271716645E+02  0.29153347823E+03  0.30434699408E+03  0.00000000000E+00 0. -1.
</event>
<event>
 7    1  0.2895750E-005  0.3850613E+03  0.7818608E-02  0.1158900E+00
          2   -1    0    0  502    0  0.00000000000E+00  0.00000000000E+00  0.92520622735E+03  0.92520622735E+03  0.00000000000E+00 0. -1.
          1   -1    0    0  501    0 -0.00000000000E+00 -0.00000000000E+00 -0.45642192374E+03  0.45642192374E+03  0.00000000000E+00 0. -1.
         25    2    1    2    0    0 -0.39688818223E+03 -0.17588016585E+03 -0.93479069517E+02  0.46131777432E+03  0.12498676145E+03 0.  0.
          2    1    1    2  501    0  0.31095146663E+03  0.13962020796E+03 -0.94980212094E+01  0.34099095220E+03  0.00000000000E+00 0. -1.
          1    1    1    2  502    0  0.85936715591E+02  0.36259957889E+02  0.57176139433E+03  0.57931942457E+03  0.00000000000E+00 0. -1.
         22    1    3    3    0    0 -0.10868889045E+03 -0.59246995849E+02 -0.85250702535E+02  0.15030357184E+03  0.00000000000E+00 0. -1.
         22    1    3    3    0    0 -0.28819929177E+03 -0.11663317000E+03 -0.82283669823E+01  0.31101420248E+03  0.00000000000E+00 0. -1.
</event>
<event>
 7    1  0.2895750E-005  0.3704943E+02  0.7818608E-02  0.1599115E+00
          2   -1    0    0  502    0  0.00000000000E+00  0.00000000000E+00  0.26541211687E+02  0.26541211687E+02  0.00000000000E+00 0. -1.
          1   -1    0    0  501    0 -0.00000000000E+00 -0.00000000000E+00 -0.13740556880E+04  0.13740556880E+04  0.00000000000E+00 0. -1.
         25    2    1    2    0    0 -0.17039601962E+02 -0.35330343960E+02 -0.77662304874E+03  0.78759572918E+03  0.12500036624E+03 0.  0.
          2    1    1    2  501    0  0.33275024891E+02  0.17462824772E+02 -0.58421788665E+03  0.58542524426E+03  0.00000000000E+00 0. -1.
          1    1    1    2  502    0 -0.16235422929E+02  0.17867519187E+02  0.13326459041E+02  0.27575926279E+02  0.00000000000E+00 0. -1.
         22    1    3    3    0    0 -0.50706749464E+02 -0.39885990307E+02 -0.20382988670E+03  0.21379590589E+03  0.00000000000E+00 0. -1.
         22    1    3    3    0    0  0.33667147502E+02  0.45556463467E+01 -0.57279316203E+03  0.57379982329E+03  0.00000000000E+00 0. -1.
</event>
<event>
 7    1  0.2895750E-005  0.2329603E+03  0.7818608E-02  0.1288881E+00
          2   -1    0    0  502    0  0.00000000000E+00  0.00000000000E+00  0.10679502466E+04  0.10679502466E+04  0.00000000000E+00 0. -1.
          1   -1    0    0  501    0 -0.00000000000E+00 -0.00000000000E+00 -0.26146796004E+04  0.26146796004E+04  0.00000000000E+00 0. -1.
         25    2    1    2    0    0  0.20132562621E+03  0.13495459778E+03 -0.11348762032E+04  0.11671826692E+04  0.12500654197E+03 0.  0.
          2    1    1    2  501    0 -0.20773891682E+03 -0.95895392593E+02 -0.14543303540E+04  0.14722187889E+04  0.00000000000E+00 0. -1.
          1    1    1    2  502    0  0.64132906073E+01 -0.39059205192E+02  0.10424772033E+04  0.10432283888E+04  0.00000000000E+00 0. -1.
         22    1    3    3    0    0  0.54795933194E+02  0.10602226809E+02 -0.99169218229E+02  0.11379602520E+03  0.00000000000E+00 0.  1.
         22    1    3    3    0    0  0.14652969302E+03  0.12435237098E+03 -0.10357069849E+04  0.10533866440E+04  0.00000000000E+00 0.  1.
</event>
<event>
 7    1  0.2895750E-005  0.5108386E+03  0.7818608E-02  0.1034330E+00
          2   -1    0    0  502    0  0.00000000000E+00  0.00000000000E+00  0.13672719532E+04  0.13672719532E+04  0.00000000000E+00 0. -1.
          1   -1    0    0  501    0 -0.00000000000E+00 -0.00000000000E+00 -0.55886430139E+03  0.55886430139E+03  0.00000000000E+00 0. -1.
         25    2    1    2    0    0 -0.16277568379E+03  0.52687292688E+03  0.91788036003E+03  0.10780622387E+04  0.12499132340E+03 0.  0.
          2    1    1    2  501    0 -0.19760685343E+03 -0.30026981196E+03  0.10072329699E+03  0.37330364457E+03  0.00000000000E+00 0. -1.
          1    1    1    2  502    0  0.36038253722E+03 -0.22660311493E+03 -0.21019600522E+03  0.47477037127E+03  0.00000000000E+00 0. -1.
         22    1    3    3    0    0 -0.12452883330E+03  0.19505817210E+03  0.37660692547E+03  0.44202703213E+03  0.00000000000E+00 0. -1.
         22    1    3    3    0    0 -0.38246850489E+02  0.33181475478E+03  0.54127343456E+03  0.63603520659E+03  0.00000000000E+00 0. -1.
</event>
<event>
 7    1  0.2895750E-005  0.7695090E+03  0.7818608E-02  0.1048248E+00
          2   -1    0    0  502    0  0.00000000000E+00  0.00000000000E+00  0.18741694751E+04  0.18741694751E+04  0.00000000000E+00 0. -1.
          1   -1    0    0  501    0 -0.00000000000E+00 -0.00000000000E+00 -0.60497697481E+03  0.60497697481E+03  0.00000000000E+00 0. -1.
         25    2    1    2    0    0 -0.73187247059E+03  0.38129012559E+03 -0.54842355690E+02  0.83645193798E+03  0.12499875002E+03 0.  0.
          2    1    1    2  501    0  0.63127733924E+03 -0.21425591985E+03  0.61380883402E+03  0.90618870162E+03  0.00000000000E+00 0. -1.
          1    1    1    2  502    0  0.10059513135E+03 -0.16703420574E+03  0.71022602195E+03  0.73650581029E+03  0.00000000000E+00 0. -1.
         22    1    3    3    0    0 -0.39086534698E+03  0.16076870530E+03 -0.77661350418E+02  0.42971337124E+03  0.00000000000E+00 0. -1.
         22    1    3    3    0    0 -0.34100712361E+03  0.22052142029E+03  0.22818994728E+02  0.40673856674E+03  0.00000000000E+00 0. -1.
</event>
<event>
 7    1  0.2895750E-005  0.1069067E+03  0.7818608E-02  0.1272648E+00
          2   -1    0    0  502    0  0.00000000000E+00  0.00000000000E+00  0.49315748470E+03  0.49315748470E+03  0.00000000000E+00 0. -1.
          1   -1    0    0  501    0 -0.00000000000E+00 -0.00000000000E+00 -0.88644708705E+03  0.88644708705E+03  0.00000000000E+00 0. -1.
         25    2    1    2    0    0  0.21637089822E+02  0.44609846301E+02 -0.18200636911E+03  0.22628195176E+03  0.12497600271E+03 0.  0.
          2    1    1    2  501    0  0.73512324401E+02 -0.93350320230E+02 -0.67094885096E+03  0.68138880584E+03  0.00000000000E+00 0. -1.
          1    1    1    2  502    0 -0.95149414223E+02  0.48740473929E+02  0.45966561771E+03  0.47193381415E+03  0.00000000000E+00 0. -1.
         22    1    3    3    0    0  0.14645676749E+02  0.25123777767E+02 -0.19799814226E+03  0.20012237355E+03  0.00000000000E+00 0. -1.
         22    1    3    3    0    0  0.69914130726E+01  0.19486068534E+02  0.15991773152E+02  0.26159578212E+02  0.00000000000E+00 0. -1.
</event>
<event>
 7    1  0.2895750E-005  0.2659319E+03  0.7818608E-02  0.1205234E+00
          2   -1    0    0  502    0  0.00000000000E+00  0.00000000000E+00  0.15192981782E+04  0.15192981782E+04  0.00000000000E+00 0. -1.
          1   -1    0    0  501    0 -0.00000000000E+00 -0.00000000000E+00 -0.20840675842E+04  0.20840675842E+04  0.00000000000E+00 0. -1.
         25    2    1    2    0    0 -0.48774393874E+02  0.24749875794E+03  0.33414370181E+03  0.43693421252E+03  0.12499966372E+03 0.  0.
          2    1    1    2  501    0  0.76660539688E+02  0.24118726498E+02 -0.20154203946E+04  0.20170220421E+04  0.00000000000E+00 0. -1.
          1    1    1    2  502    0 -0.27886145815E+02 -0.27161748444E+03  0.11165072868E+04  0.11494095077E+04  0.00000000000E+00 0. -1.
         22    1    3    3    0    0 -0.30509455680E+02  0.70147619643E+01  0.83150368794E+02  0.88848284181E+02  0.00000000000E+00 0.  1.
         22    1    3    3    0    0 -0.18264938194E+02  0.24048399598E+03  0.25099333302E+03  0.34808592834E+03  0.00000000000E+00 0.  1.
</event>
<event>
 7    1  0.2895750E-005  0.5294811E+02  0.7818608E-02  0.1485689E+00
          2   -1    0    0  502    0  0.00000000000E+00  0.00000000000E+00  0.13132865730E+03  0.13132865730E+03  0.00000000000E+00 0. -1.
          1   -1    0    0  501    0 -0.00000000000E+00 -0.00000000000E+00 -0.89009744171E+03  0.89009744171E+03  0.00000000000E+00 0. -1.
         25    2    1    2    0    0 -0.45497381921E+02 -0.54040647958E+02 -0.95705226288E+02  0.17253539787E+03  0.12497427650E+03 0.  0.
          2    1    1    2  501    0 -0.33941451921E+01  0.35135575765E+02 -0.74813433456E+03  0.74896662906E+03  0.00000000000E+00 0. -1.
          1    1    1    2  502    0  0.48891527113E+02  0.18905072193E+02  0.85070776428E+02  0.99924072075E+02  0.00000000000E+00 0. -1.
         22    1    3    3    0    0  0.37125929607E+02 -0.39941613192E+02 -0.15900731305E+02  0.56802291940E+02  0.00000000000E+00 0. -1.
         22    1    3    3    0    0 -0.82623311528E+02 -0.14099034765E+02 -0.79804494983E+02  0.11573310593E+03  0.00000000000E+00 0. -1.
</event>
<event>
 7    1  0.2895750E-005  0.2139905E+03  0.7818608E-02  0.1288272E+00
          2   -1    0    0  502    0  0.00000000000E+00  0.00000000000E+00  0.12604338281E+04  0.12604338281E+04  0.00000000000E+00 0. -1.
          1   -1    0    0  501    0 -0.00000000000E+00 -0.00000000000E+00 -0.10319725997E+03  0.10319725997E+03  0.00000000000E+00 0. -1.
         25    2    1    2    0    0 -0.11447629061E+02  0.22655859600E+03  0.29023087750E+03  0.38899733460E+03  0.12500047375E+03 0.  0.
          2    1    1    2  501    0  0.39895492498E+02 -0.16927328428E+02 -0.30201138243E+02  0.52823228986E+02  0.00000000000E+00 0. -1.
          1    1    1    2  502    0 -0.28447863437E+02 -0.20963126757E+03  0.89720682888E+03  0.92181052450E+03  0.00000000000E+00 0. -1.
         22    1    3    3    0    0  0.76245332983E+01 -0.24859617396E+01  0.70730202689E+02  0.71183390522E+02  0.00000000000E+00 0. -1.
         22    1    3    3    0    0 -0.19072162359E+02  0.22904455774E+03  0.21950067481E+03  0.31781394408E+03  0.00000000000E+00 0. -1.
</event>
<event>
 7    1  0.2895750E-005  0.3010742E+02  0.7818608E-02  0.1645058E+00
          2   -1    0    0  502    0  0.00000000000E+00  0.00000000000E+00  0.11668888678E+02  0.11668888678E+02  0.00000000000E+00 0. -1.
          1   -1    0    0  501    0 -0.00000000000E+00 -0.00000000000E+00 -0.89312019383E+03  0.89312019383E+03  0.00000000000E+00 0. -1.
         25    2    1    2    0    0  0.26054071663E+02  0.16857505188E+01 -0.41774285181E+03  0.43682642367E+03  0.12500631094E+03 0.  0.
          2    1    1    2  501    0 -0.19951945700E+02 -0.23557412807E+02 -0.37927066765E+03  0.38052499415E+03  0.00000000000E+00 0. -1.
          1    1    1    2  502    0 -0.61021259622E+01  0.21871662289E+02 -0.84437785687E+02  0.87437664678E+02  0.00000000000E+00 0. -1.
         22    1    3    3    0    0 -0.85462807811E+01 -0.82211039996E+01  0.47710947086E+01  0.12782363274E+02  0.00000000000E+00 0.  1.
         22    1    3    3    0    0  0.34600352444E+02  0.99068545185E+01 -0.42251394652E+03  0.42404406040E+03  0.00000000000E+00 0.  1.
</event>
<event>
 7    1  0.2895750E-005  0.1455190E+03  0.7818608E-02  0.1329456E+00
          2   -1    0    0  502    0  0.00000000000E+00  0.00000000000E+00  0.22842600847E+04  0.22842600847E+04  0.00000000000E+00 0. -1.
          1   -1    0    0  501    0 -0.00000000000E+00 -0.00000000000E+00 -0.17014585215E+03  0.17014585215E+03  0.00000000000E+00 0. -1.
         25    2    1    2    0    0  0.10261136911E+03 -0.73594146926E+02  0.20989286333E+04  0.21064353987E+04  0.12499395836E+03 0.  0.
          2    1    1    2  501    0 -0.89326253541E+02  0.11535623270E+03 -0.13055553269E+03  0.19578301027E+03  0.00000000000E+00 0. -1.
          1    1    1    2  502    0 -0.13285115568E+02 -0.41762085778E+02  0.14574113188E+03  0.15218752783E+03  0.00000000000E+00 0. -1.
         22    1    3    3    0    0  0.35669893687E+02 -0.48817457882E+01  0.14507291248E+04  0.14511757875E+04  0.00000000000E+00 0. -1.
         22    1    3    3    0    0  0.66941475422E+02 -0.68712401138E+02  0.64819950859E+03  0.65525961125E+03  0.00000000000E+00 0. -1.
</event>
<event>
 7    1  0.2895750E-005  0.6204281E+03  0.7818608E-02  0.1015195E+00
          2   -1    0    0  502    0  0.00000000000E+00  0.00000000000E+00  0.13726030833E+04  0.13726030833E+04  0.00000000000E+00 0. -1.
          1   -1    0    0  501    0 -0.00000000000E+00 -0.00000000000E+00 -0.14679894571E+04  0.14679894571E+04  0.00000000000E+00 0. -1.
         25    2    1    2    0    0  0.30895765118E+03 -0.46459407102E+03 -0.33780224472E+03  0.66410571713E+03  0.12499426365E+03 0.  0.
          2    1    1    2  501    0 -0.66113249073E+03  0.28724174892E+03 -0.79113118915E+03  0.10702768572E+04  0.00000000000E+00 0. -1.
          1    1    1    2  502    0  0.35217483955E+03  0.17735232209E+03  0.10335470600E+04  0.11062099661E+04  0.00000000000E+00 0. -1.
         22    1    3    3    0    0  0.11835362416E+03 -0.21669647040E+03 -0.21754619297E+03  0.32907641470E+03  0.00000000000E+00 0. -1.
         22    1    3    3    0    0  0.19060402702E+03 -0.24789760061E+03 -0.12025605175E+03  0.33502930243E+03  0.00000000000E+00 0. -1.
</event>
<event>
 7    1  0.2895750E-005  0.1887865E+03  0.7818608E-02  0.1203546E+00
          2   -1    0    0  502    0  0.00000000000E+00  0.00000000000E+00  0.28888930701E+03  0.28888930701E+03  0.00000000000E+00 0. -1.
          1   -1    0    0  501    0 -0.00000000000E+00 -0.00000000000E+00 -0.47254394842E+03  0.47254394842E+03  0.00000000000E+00 0. -1.
         25    2    1    2    0    0  0.49093439766E+02 -0.82904491655E+02  0.13017650042E+03  0.20458197127E+03  0.12499816456E+03 0.  0.
          2    1    1    2  501    0 -0.26841134030E+02 -0.18686865265E+03 -0.11602217635E+03  0.22158854940E+03  0.00000000000E+00 0. -1.
          1    1    1    2  502    0 -0.22252305737E+02  0.26977314430E+03 -0.19780896548E+03  0.33526273477E+03  0.00000000000E+00 0. -1.
         22    1    3    3    0    0 -0.89457508635E+01 -0.97300674015E+02  0.74440282431E+02  0.12283648998E+03  0.00000000000E+00 0. -1.
         22    1    3    3    0    0  0.58039190630E+02  0.14396182360E+02  0.55736217992E+02  0.81745481292E+02  0.00000000000E+00 0. -1.
</event>
<event>
 7    1  0.2895750E-005  0.4308436E+03  0.7818608E-02  0.1153899E+00
          2   -1    0    0  502    0  0.00000000000E+00  0.00000000000E+00  0.39879844238E+03  0.39879844238E+03  0.00000000000E+00 0. -1.
          1   -1    0    0  501    0 -0.00000000000E+00 -0.00000000000E+00 -0.14730914871E+04  0.14730914871E+04  0.00000000000E+00 0. -1.
         25    2    1    2    0    0 -0.36434028846E+03  0.30548462589E+03 -0.59383144518E+01  0.49165527707E+03  0.12499978175E+03 0.  0.
          2    1    1    2  501    0  0.64957244679E+02 -0.59945601375E+02 -0.97884599232E+03  0.98282877219E+03  0.00000000000E+00 0. -1.
          1    1    1    2  502    0  0.29938304378E+03 -0.24553902451E+03 -0.89508737933E+02  0.39740588021E+03  0.00000000000E+00 0. -1.
         22    1    3    3    0    0 -0.38204213899E+02  0.39172085333E+02  0.40460215594E+02  0.68051769080E+02  0.00000000000E+00 0.  1.
         22    1    3    3    0    0 -0.32613607456E+03  0.26631254055E+03 -0.46398530046E+02  0.42360350799E+03  0.00000000000E+00 0.  1.
</event>
<event>
 7    1  0.2895750E-005  0.5814929E+02  0.7818608E-02  0.1432338E+00
          2   -1    0    0  502    0  0.00000000000E+00  0.00000000000E+00  0.59211848644E+03  0.59211848644E+03  0.00000000000E+00 0. -1.
          1   -1    0    0  501    0 -0.00000000000E+00 -0.00000000000E+00 -0.69027374369E+03  0.69027374369E+03  0.00000000000E+00 0. -1.
         25    2    1    2    0    0 -0.70805660015E+02  0.20026020860E+02  0.51413742356E+02  0.15388787853E+03  0.12499449290E+03 0.  0.
          2    1    1    2  501    0  0.17755221922E+02 -0.43936102692E+02 -0.63642319716E+03  0.63818501620E+03  0.00000000000E+00 0. -1.
          1    1    1    2  502    0  0.53050438093E+02  0.23910081832E+02  0.48685419754E+03  0.49031933539E+03  0.00000000000E+00 0. -1.
         22    1    3    3    0    0  0.11943785395E+02  0.27516356142E+02 -0.26468931588E+02  0.40005102228E+02  0.00000000000E+00 0.  1.
         22    1    3    3    0    0 -0.82749445411E+02 -0.74903352814E+01  0.77882673944E+02  0.11388277631E+03  0.00000000000E+00 0.  1.
</event>
<event>
 7    1  0.2895750E-005  0.1023162E+03  0.7818608E-02  0.1287548E+00
          2   -1    0    0  502    0  0.00000000000E+00  0.00000000000E+00  0.27399318090E+03  0.27399318090E+03  0.00000000000E+00 0. -1.
          1   -1    0    0  501    0 -0.00000000000E+00 -0.00000000000E+00 -0.65204442575E+03  0.65204442575E+03  0.00000000000E+00 0. -1.
         25    2    1    2    0    0 -0.26971161007E+02 -0.10054957548E+02 -0.15410929762E+02  0.12919200508E+03  0.12499812688E+03 0.  0.
          2    1    1    2  501    0 -0.75439117773E+02 -0.51352346380E+02 -0.55934126966E+03  0.56673695831E+03  0.00000000000E+00 0. -1.
          1    1    1    2  502    0  0.10241027878E+03  0.61407303928E+02  0.19670095457E+03  0.23010864327E+03  0.00000000000E+00 0. -1.
         22    1    3    3    0    0  0.21780152952E+02 -0.55494219738E+02  0.40845218582E+01  0.59755056738E+02  0.00000000000E+00 0. -1.
         22    1    3    3    0    0 -0.48751313959E+02  0.45439262190E+02 -0.19495451621E+02  0.69436948342E+02  0.00000000000E+00 0. -1.
</event>
<event>
 7    1  0.3556334E-005  0.1086587E+03  0.7818608E-02  0.1396922E+00
          2   -1    0    0  502    0  0.00000000000E+00  0.00000000000E+00  0.21928941082E+04  0.21928941082E+04  0.00000000000E+00 0. -1.
          1   -1    0    0  501    0 -0.00000000000E+00 -0.00000000000E+00 -0.12909781169E+04  0.12909781169E+04  0.00000000000E+00 0. -1.
         25    2    1    2    0    0 -0.11986911793E+03 -0.48705294018E+02 -0.90094758216E+02  0.20120395242E+03  0.12500061565E+03 0.  0.
          2    1    1    2  501    0  0.88876690578E+02  0.61080569966E+02 -0.11426595020E+04  0.11477371823E+04  0.00000000000E+00 0. -1.
          1    1    1    2  502    0  0.30992427351E+02 -0.12375275948E+02  0.21346702515E+04  0.21349310904E+04  0.00000000000E+00 0. -1.
         22    1    3    3    0    0 -0.59485615199E+02 -0.23992658536E+02 -0.11474676845E+03  0.13145724380E+03  0.00000000000E+00 0. -1.
         22    1    3    3    0    0 -0.60383502730E+02 -0.24712635482E+02  0.24652010233E+02  0.69746708617E+02  0.00000000000E+00 0. -1.
</event>
<event>
 7    1  0.2895750E-005  0.1333541E+03  0.7818608E-02  0.1259600E+00
          2   -1    0    0  502    0  0.00000000000E+00  0.00000000000E+00  0.37101964767E+04  0.37101964767E+04  0.00000000000E+00 0. -1.
          1   -1    0    0  501    0 -0.00000000000E+00 -0.00000000000E+00 -0.30621408703E+03  0.30621408703E+03  0.00000000000E+00 0. -1.
         25    2    1    2    0    0 -0.70132528975E+02  0.77341350294E+02  0.19968020456E+04  0.20034335749E+04  0.12500969330E+03 0.  0.
          2    1    1    2  501    0  0.13332165282E+03 -0.11020249097E+02 -0.28682952417E+03  0.31649215620E+03  0.00000000000E+00 0. -1.
          1    1    1    2  502    0 -0.63189123844E+02 -0.66321101196E+02  0.16940098683E+04  0.16964848327E+04  0.00000000000E+00 0. -1.
         22    1    3    3    0    0 -0.87070535919E+02  0.48786993671E+02  0.18594244548E+04  0.18621011659E+04  0.00000000000E+00 0.  1.
         22    1    3    3    0    0  0.16938006943E+02  0.28554356623E+02  0.13737759080E+03  0.14133240894E+03  0.00000000000E+00 0.  1.
</event>
<event>
 7    1  0.2895750E-005  0.1284973E+03  0.7818608E-02  0.1240513E+00
          2   -1    0    0  502    0  0.00000000000E+00  0.00000000000E+00  0.24993381704E+03  0.24993381704E+03  0.00000000000E+00 0. -1.
          1   -1    0    0  501    0 -0.00000000000E+00 -0.00000000000E+00 -0.22167772785E+03  0.22167772785E+03  0.00000000000E+00 0. -1.
         25    2    1    2    0    0  0.95135456828E+02 -0.72009147522E+02  0.99760183742E+02  0.19953393178E+03  0.12500249277E+03 0.  0.
          2    1    1    2  501    0  0.19261291539E+02  0.13053216862E+03 -0.19166475227E+02  0.13333040977E+03  0.00000000000E+00 0. -1.
          1    1    1    2  502    0 -0.11439674837E+03 -0.58523021102E+02 -0.52337619325E+02  0.13874720333E+03  0.00000000000E+00 0. -1.
         22    1    3    3    0    0 -0.17352840727E+01  0.30100707384E+02  0.29660109248E+02  0.42294040673E+02  0.00000000000E+00 0. -1.
         22    1    3    3    0    0  0.96870740901E+02 -0.10210985491E+03  0.70100074495E+02  0.15723989111E+03  0.00000000000E+00 0. -1.
</event>
<event>
 7    1  0.2895750E-005  0.1352748E+03  0.7818608E-02  0.1327803E+00
          2   -1    0    0  502    0  0.00000000000E+00  0.00000000000E+00  0.69581341289E+03  0.69581341289E+03  0.00000000000E+00 0. -1.
          1   -1    0    0  501    0 -0.00000000000E+00 -0.00000000000E+00 -0.93327219380E+03  0.93327219380E+03  0.00000000000E+00 0. -1.
         25    2    1    2    0    0  0.10584955857E+03 -0.79623303387E+02 -0.63299751222E+03  0.65867567702E+03  0.12499519002E+03 0.  0.
          2    1    1    2  501    0 -0.13715193354E+03  0.43452582808E+02 -0.26851826403E+03  0.30463229957E+03  0.00000000000E+00 0. -1.
          1    1    1    2  502    0  0.31302374971E+02  0.36170720579E+02  0.66405699533E+03  0.66577763011E+03  0.00000000000E+00 0. -1.
         22    1    3    3    0    0  0.13290433859E+03 -0.72015569028E+02 -0.48418496277E+03  0.50723257346E+03  0.00000000000E+00 0. -1.
         22    1    3    3    0    0 -0.27054780024E+02 -0.76077343593E+01 -0.14881254944E+03  0.15144310356E+03  0.00000000000E+00 0. -1.
</event>
<event>
 7    1  0.2895750E-005  0.3999566E+02  0.7818608E-02  0.1542895E+00
          2   -1    0    0  502    0  0.00000000000E+00  0.00000000000E+00  0.17592224501E+03  0.17592224501E+03  0.00000000000E+00 0. -1.
          1   -1    0    0  501    0 -0.00000000000E+00 -0.00000000000E+00 -0.11065359098E+03  0.11065359098E+03  0.00000000000E+00 0. -1.
         25    2    1    2    0    0 -0.54618813855E+02 -0.77835198797E+01  0.62441015081E+02  0.15022447674E+03  0.12499886015E+03 0.  0.
          2    1    1    2  501    0  0.19568747644E+02  0.25038401475E+02 -0.56788329082E+02  0.65075123916E+02  0.00000000000E+00 0. -1.
          1    1    1    2  502    0  0.35050066211E+02 -0.17254881595E+02  0.59615968034E+02  0.71276235345E+02  0.00000000000E+00 0. -1.
         22    1    3    3    0    0  0.21722356013E+02  0.24501734318E+02  0.58745297836E+02  0.67254782382E+02  0.00000000000E+00 0. -1.
         22    1    3    3    0    0 -0.76341169867E+02 -0.32285254198E+02  0.36957172451E+01  0.82969694354E+02  0.00000000000E+00 0. -1.
</event>
<event>
 7    1  0.2895750E-005  0.2817484E+03  0.7818608E-02  0.1122066E+00
          2   -1    0    0  502    0  0.00000000000E+00  0.00000000000E+00  0.69963750474E+03  0.69963750474E+03  0.00000000000E+00 0. -1.
          1   -1    0    0  501    0 -0.00000000000E+00 -0.00000000000E+00 -0.20149169597E+04  0.20149169597E+04  0.00000000000E+00 0. -1.
         25    2    1    2    0    0  0.34873200619E+03  0.20138532851E+03 -0.71563713833E+02  0.42768614291E+03  0.12499603602E+03 0.  0.
          2    1    1    2  501    0 -0.80007283178E+02 -0.18190080535E+03 -0.17244061914E+04  0.17358184759E+04  0.00000000000E+00 0. -1.
          1    1    1    2  502    0 -0.26872472302E+03 -0.19484523161E+02  0.48069045026E+03  0.55104984564E+03  0.00000000000E+00 0. -1.
         22    1    3    3    0    0  0.34787328631E+03  0.16487188192E+03 -0.68729317834E+02  0.39105278404E+03  0.00000000000E+00 0.  1.
         22    1    3    3    0    0  0.85871988362E+00  0.36513446589E+02 -0.28343959989E+01  0.36633358873E+02  0.00000000000E+00 0.  1.
</event>
<event>
 7    1  0.2895750E-005  0.3976751E+03  0.7818608E-02  0.1197421E+00
          2   -1    0    0  502    0  0.00000000000E+00  0.00000000000E+00  0.97249613186E+03  0.97249613186E+03  0.00000000000E+00 0. -1.
          1   -1    0    0  501    0 -0.00000000000E+00 -0.00000000000E+00 -0.80946392274E+03  0.80946392274E+03  0.00000000000E+00 0. -1.
         25    2    1    2    0    0  0.38483986483E+03  0.53401088549E+02  0.34745143910E+03  0.53600472084E+03  0.12500064166E+03 0.  0.
          2    1    1    2  501    0  0.22178649117E+02 -0.54120565505E+02 -0.63561611215E+03  0.63830147274E+03  0.00000000000E+00 0. -1.
          1    1    1    2  502    0 -0.40701851394E+03  0.71947695582E+00  0.45119688217E+03  0.60765386102E+03  0.00000000000E+00 0. -1.
         22    1    3    3    0    0  0.13184234464E+03  0.76154200141E+02  0.15539687755E+03  0.21755471862E+03  0.00000000000E+00 0. -1.
         22    1    3    3    0    0  0.25299752018E+03 -0.22753111592E+02  0.19205456155E+03  0.31845000222E+03  0.00000000000E+00 0. -1.
</event>
<event>
 7    1  0.2895750E-005  0.1352701E+03  0.7818608E-02  0.1299479E+00
          2   -1    0    0  502    0  0.00000000000E+00  0.00000000000E+00  0.10938746067E+03  0.10938746067E+03  0.00000000000E+00 0. -1.
          1   -1    0    0  501    0 -0.00000000000E+00 -0.00000000000E+00 -0.71734313872E+03  0.71734313872E+03  0.00000000000E+00 0. -1.
         25    2    1    2    0    0  0.82811163502E+02  0.80165730848E+02 -0.17738756160E+03  0.24572089377E+03  0.12501270906E+03 0.  0.
          2    1    1    2  501    0  0.53397860647E+02 -0.31046473274E+02 -0.43181402802E+03  0.43620931881E+03  0.00000000000E+00 0. -1.
          1    1    1    2  502    0 -0.13620902415E+03 -0.49119257574E+02  0.12459115675E+01  0.14480038681E+03  0.00000000000E+00 0. -1.
         22    1    3    3    0    0 -0.25786440264E+02 -0.27671245406E+01 -0.61631276495E+01  0.26656736900E+02  0.00000000000E+00 0. -1.
         22    1    3    3    0    0  0.10859760377E+03  0.82932855388E+02 -0.17122443395E+03  0.21906415687E+03  0.00000000000E+00 0. -1.
</event>
<event>
 7    1  0.2895750E-005  0.6144251E+03  0.7818608E-02  0.1112448E+00
          2   -1    0    0  502    0  0.00000000000E+00  0.00000000000E+00  0.68273412330E+03  0.68273412330E+03  0.00000000000E+00 0. -1.
          1   -1    0    0  501    0 -0.00000000000E+00 -0.00000000000E+00 -0.10116040053E+04  0.10116040053E+04  0.00000000000E+00 0. -1.
         25    2    1    2    0    0 -0.55725293038E+03  0.15828950526E+03  0.18074205657E+03  0.61957963019E+03  0.12499932495E+03 0.  0.
          2    1    1    2  501    0 -0.10014665897E+03  0.23342253473E+02 -0.36282009691E+03  0.37711090785E+03  0.00000000000E+00 0. -1.
          1    1    1    2  502    0  0.65739958935E+03 -0.18163175873E+03 -0.14679184169E+03  0.69764759059E+03  0.00000000000E+00 0. -1.
         22    1    3    3    0    0 -0.39398713165E+03  0.15367633396E+03  0.88699420968E+02  0.43209936681E+03  0.00000000000E+00 0. -1.
         22    1    3    3    0    0 -0.16326579873E+03  0.46131713028E+01  0.92042635605E+02  0.18748026338E+03  0.00000000000E+00 0. -1.
</event>
<event>
 7    1  0.2895750E-005  0.2855005E+03  0.7818608E-02  0.1185326E+00
          2   -1    0    0  502    0  0.00000000000E+00  0.00000000000E+00  0.72685556729E+03  0.72685556729E+03  0.00000000000E+00 0. -1.
          1   -1    0    0  501    0 -0.00000000000E+00 -0.00000000000E+00 -0.78122169600E+03  0.78122169600E+03  0.00000000000E+00 0. -1.
         25    2    1    2    0    0  0.14751142330E+03  0.19998574113E+03  0.91874031252E+02  0.29295222048E+03  0.12500499671E+03 0.  0.
          2    1    1    2  501    0  0.92266975625E+02 -0.12325179734E+02 -0.63363664120E+03  0.64043773930E+03  0.00000000000E+00 0. -1.
          1    1    1    2  502    0 -0.23977839892E+03 -0.18766056140E+03  0.48739648124E+03  0.57468730351E+03  0.00000000000E+00 0. -1.
         22    1    3    3    0    0  0.95592543071E+02  0.49101958522E+02  0.77989155778E+02  0.13278269857E+03  0.00000000000E+00 0.  1.
         22    1    3    3    0    0  0.51918880227E+02  0.15088378261E+03  0.13884875474E+02  0.16016952190E+03  0.00000000000E+00 0.  1.
</event>
<event>
 7    1  0.2895750E-005  0.8410774E+02  0.7818608E-02  0.1437305E+00
          2   -1    0    0  502    0  0.00000000000E+00  0.00000000000E+00  0.14232305183E+03  0.14232305183E+03  0.00000000000E+00 0. -1.
          1   -1    0    0  501    0 -0.00000000000E+00 -0.00000000000E+00 -0.15717812536E+03  0.15717812536E+03  0.00000000000E+00 0. -1.
         25    2    1    2    0    0  0.10826730290E+03 -0.12546443400E+02  0.26189009747E+00  0.16584480070E+03  0.12500082886E+03 0.  0.
          2    1    1    2  501    0 -0.76795935321E+02  0.10183728356E+02 -0.45505198555E+02  0.89844571904E+02  0.00000000000E+00 0. -1.
          1    1    1    2  502    0 -0.31471367576E+02  0.23627150440E+01  0.30388234919E+02  0.43811804585E+02  0.00000000000E+00 0. -1.
         22    1    3    3    0    0  0.19425947957E+02  0.47884390335E+02  0.22099346148E+02  0.56201987438E+02  0.00000000000E+00 0. -1.
         22    1    3    3    0    0  0.88841354940E+02 -0.60430833735E+02 -0.21837456050E+02  0.10964281326E+03  0.00000000000E+00 0. -1.
</event>
<event>
 7    1  0.2895750E-005  0.1316084E+03  0.7818608E-02  0.1333854E+00
          2   -1    0    0  502    0  0.00000000000E+00  0.00000000000E+00  0.44470332726E+03  0.44470332726E+03  0.00000000000E+00 0. -1.
          1   -1    0    0  501    0 -0.00000000000E+00 -0.00000000000E+00 -0.20503987059E+03  0.20503987059E+03  0.00000000000E+00 0. -1.
         25    2    1    2    0    0 -0.12415081714E+02 -0.11682087997E+03  0.35327456351E+03  0.39272148188E+03  0.12500397135E+03 0.  0.
          2    1    1    2  501    0 -0.32590728763E+02  0.12898936843E+03 -0.14806017748E+03  0.19905333186E+03  0.00000000000E+00 0. -1.
          1    1    1    2  502    0  0.45005810478E+02 -0.12168488465E+02  0.34449070639E+02  0.57968384109E+02  0.00000000000E+00 0. -1.
         22    1    3    3    0    0  0.38069129988E+02  0.12191820159E+01  0.12671148710E+03  0.13231230489E+03  0.00000000000E+00 0.  1.
         22    1    3    3    0    0 -0.50484211702E+02 -0.11804006199E+03  0.22656307641E+03  0.26040917699E+03  0.00000000000E+00 0.  1.
</event>
<event>
 7    1  0.2895750E-005  0.2695133E+03  0.7818608E-02  0.1220225E+00
          2   -1    0    0  502    0  0.00000000000E+00  0.00000000000E+00  0.12676216618E+04  0.12676216618E+04  0.00000000000E+00 0. -1.
          1   -1    0    0  501    0 -0.00000000000E+00 -0.00000000000E+00 -0.16948494187E+03  0.16948494187E+03  0.00000000000E+00 0. -1.
         25    2    1    2    0    0  0.11784913118E+02 -0.24716364877E+03  0.27976568333E+03  0.39385549206E+03  0.12499823041E+03 0.  0.
          2    1    1    2  501    0 -0.73988673502E+02  0.27367594257E+03  0.70242957362E+02  0.29207348118E+03  0.00000000000E+00 0. -1.
          1    1    1    2  502    0  0.62203760383E+02 -0.26512293806E+02  0.74812807919E+03  0.75117763039E+03  0.00000000000E+00 0. -1.
         22    1    3    3    0    0 -0.36711344106E+01 -0.11008574589E+03  0.21476124121E+03  0.24136018604E+03  0.00000000000E+00 0.  1.
         22    1    3    3    0    0  0.15456047529E+02 -0.13707790288E+03  0.65004442114E+02  0.15249530602E+03  0.00000000000E+00 0.  1.
</event>
<event>
 7    1  0.2895750E-005  0.1035355E+03  0.7818608E-02  0.1375591E+00
          2   -1    0    0  502    0  0.00000000000E+00  0.00000000000E+00  0.64176498629E+03  0.64176498629E+03  0.00000000000E+00 0. -1.
          1   -1    0    0  501    0 -0.00000000000E+00 -0.00000000000E+00 -0.41572789015E+03  0.41572789015E+03  0.00000000000E+00 0. -1.
         25    2    1    2    0    0 -0.86126887493E+02 -0.11286465906E+03  0.67800760826E+02  0.20095254654E+03  0.12501484223E+03 0.  0.
          2    1    1    2  501    0  0.21820390291E+02  0.35430873641E+02 -0.34288989673E+03  0.34540549724E+03  0.00000000000E+00 0. -1.
          1    1    1    2  502    0  0.64306497202E+02  0.77433785424E+02  0.50112623205E+03  0.51113483266E+03  0.00000000000E+00 0. -1.
         22    1    3    3    0    0 -0.86448543948E+02 -0.17054601333E+02  0.90854437392E+01  0.88581913873E+02  0.00000000000E+00 0.  1.
         22    1    3    3    0    0  0.32165645534E+00 -0.95810057732E+02  0.58715317087E+02  0.11237063267E+03  0.00000000000E+00 0.  1.
</event>
<event>
 7    1  0.2895750E-005  0.1289210E+03  0.7818608E-02  0.1348715E+00
          2   -1    0    0  502    0  0.00000000000E+00  0.00000000000E+00  0.56713811509E+03  0.56713811509E+03  0.00000000000E+00 0. -1.
          1   -1    0    0  501    0 -0.00000000000E+00 -0.00000000000E+00 -0.57933922773E+03  0.57933922773E+03  0.00000000000E+00 0. -1.
         25    2    1    2    0    0  0.27395034451E+02 -0.15738032011E+03 -0.17231585015E+03  0.26615407243E+03  0.12500473987E+03 0.  0.
          2    1    1    2  501    0 -0.36918067198E+02  0.11662299704E+03 -0.34883178206E+03  0.36965859830E+03  0.00000000000E+00 0. -1.
          1    1    1    2  502    0  0.95230327466E+01  0.40757323076E+02  0.50894651957E+03  0.51066467209E+03  0.00000000000E+00 0. -1.
         22    1    3    3    0    0 -0.52123969921E+01 -0.16835179475E+03 -0.14227462313E+03  0.22048030357E+03  0.00000000000E+00 0. -1.
         22    1    3    3    0    0  0.32607431443E+02  0.10971474635E+02 -0.30041227018E+02  0.45673768858E+02  0.00000000000E+00 0. -1.
</event>
<event>
 7    1  0.2895750E-005  0.1618365E+03  0.7818608E-02  0.1243040E+00
          2   -1    0    0  502    0  0.00000000000E+00  0.00000000000E+00  0.97725920391E+03  0.97725920391E+03  0.00000000000E+00 0. -1.
          1   -1    0    0  501    0 -0.00000000000E+00 -0.00000000000E+00 -0.16895728750E+04  0.16895728750E+04  0.00000000000E+00 0. -1.
         25    2    1    2    0    0 -0.11361950486E+02  0.88070434906E+02 -0.92851701306E+03  0.94109208798E+03  0.12499991635E+03 0.  0.
          2    1    1    2  501    0  0.58054340755E+02  0.67498189597E+02 -0.74530779698E+03  0.75060643770E+03  0.00000000000E+00 0. -1.
          1    1    1    2  502    0 -0.46692390269E+02 -0.15556862450E+03  0.96151113897E+03  0.97513355321E+03  0.00000000000E+00 0. -1.
         22    1    3    3    0    0 -0.87659743920E+01  0.10657667714E+03 -0.90380751580E+03  0.91011178216E+03  0.00000000000E+00 0.  1.
         22    1    3    3    0    0 -0.25959760940E+01 -0.18506242233E+02 -0.24709497262E+02  0.30980305815E+02  0.00000000000E+00 0.  1.
</event>
<event>
 7    1  0.2895750E-005  0.6404264E+02  0.7818608E-02  0.1407604E+00
          2   -1    0    0  502    0  0.00000000000E+00  0.00000000000E+00  0.51206131511E+02  0.51206131511E+02  0.00000000000E+00 0. -1.
          1   -1    0    0  501    0 -0.00000000000E+00 -0.00000000000E+00 -0.68743464018E+03  0.68743464018E+03  0.00000000000E+00 0. -1.
         25    2    1    2    0    0 -0.23176652177E+02 -0.60383602343E+02 -0.15065425877E+03  0.20616726654E+03  0.12499959787E+03 0.  0.
          2    1    1    2  501    0 -0.28844303865E+02  0.58873629458E+02 -0.47482818559E+03  0.47933276952E+03  0.00000000000E+00 0. -1.
          1    1    1    2  502    0  0.52020956042E+02  0.15099728850E+01 -0.10746064319E+02  0.53140735636E+02  0.00000000000E+00 0. -1.
         22    1    3    3    0    0 -0.20957747416E+02 -0.71007791899E+02 -0.22252859509E+02  0.77307977877E+02  0.00000000000E+00 0. -1.
         22    1    3    3    0    0 -0.22189047603E+01  0.10624189556E+02 -0.12840139926E+03  0.12885928866E+03  0.00000000000E+00 0. -1.
</event>
<event>
 7    1  0.2895750E-005  0.1988989E+03  0.7818608E-02  0.1161800E+00
          2   -1    0    0  502    0  0.00000000000E+00  0.00000000000E+00  0.20893909567E+03  0.20893909567E+03  0.00000000000E+00 0. -1.
          1   -1    0    0  501    0 -0.00000000000E+00 -0.00000000000E+00 -0.55907307516E+03  0.55907307516E+03  0.00000000000E+00 0. -1.
         25    2    1    2    0    0 -0.17622426087E+03  0.48595084319E+02 -0.24276140410E+03  0.32859361116E+03  0.12499675849E+03 0.  0.
          2    1    1    2  501    0  0.68357228328E+02 -0.21570430608E+03 -0.42705393378E+02  0.23027116395E+03  0.00000000000E+00 0. -1.
          1    1    1    2  502    0  0.10786703255E+03  0.16710922176E+03 -0.64667182010E+02  0.20914739572E+03  0.00000000000E+00 0. -1.
         22    1    3    3    0    0 -0.17905979293E+03  0.22799252218E+02 -0.15779673754E+03  0.23975409428E+03  0.00000000000E+00 0.  1.
         22    1    3    3    0    0  0.28355320542E+01  0.25795832101E+02 -0.84964666553E+02  0.88839516873E+02  0.00000000000E+00 0.  1.
</event>
<event>
 7    1  0.2895750E-005  0.5069854E+02  0.7818608E-02  0.1464054E+00
          2   -1    0    0  502    0  0.00000000000E+00  0.00000000000E+00  0.41898389651E+03  0.41898389651E+03  0.00000000000E+00 0. -1.
          1   -1    0    0  501    0 -0.00000000000E+00 -0.00000000000E+00 -0.16039216092E+03  0.16039216092E+03  0.00000000000E+00 0. -1.
         25    2    1    2    0    0 -0.44345128736E+02  0.21184283101E+02 -0.83538951319E+02  0.15818619156E+03  0.12501540113E+03 0.  0.
          2    1    1    2  501    0  0.32322366591E+02  0.28359378290E+02 -0.25532417788E+02  0.50008939973E+02  0.00000000000E+00 0. -1.
          1    1    1    2  502    0  0.12022762144E+02 -0.49543661390E+02  0.36766310470E+03  0.37118092590E+03  0.00000000000E+00 0. -1.
         22    1    3    3    0    0 -0.29285269910E+02 -0.13268187439E+02  0.26649160177E+02  0.41759424922E+02  0.00000000000E+00 0.  1.
         22    1    3    3    0    0 -0.15059858825E+02  0.34452470539E+02 -0.11018811150E+03  0.11642676664E+03  0.00000000000E+00 0.  1.
</event>
<event>
 7    1  0.2895750E-005  0.6690237E+02  0.7818608E-02  0.1431909E+00
          2   -1    0    0  502    0  0.00000000000E+00  0.00000000000E+00  0.17747185271E+04  0.17747185271E+04  0.00000000000E+00 0. -1.
          1   -1    0    0  501    0 -0.00000000000E+00 -0.00000000000E+00 -0.24681275026E+02  0.24681275026E+02  0.00000000000E+00 0. -1.
         25    2    1    2    0    0 -0.10303607107E+03 -0.11882400431E+02  0.14399379757E+04  0.14490698826E+04  0.12499811024E+03 0.  0.
          2    1    1    2  501    0  0.62462979669E+02  0.19711989775E+02  0.39276660291E+02  0.76373047691E+02  0.00000000000E+00 0. -1.
          1    1    1    2  502    0  0.40573091398E+02 -0.78295893443E+01  0.27082261613E+03  0.27395687183E+03  0.00000000000E+00 0. -1.
         22    1    3    3    0    0 -0.91803787282E+02 -0.35815502449E+02  0.55124161345E+03  0.55998035856E+03  0.00000000000E+00 0.  1.
         22    1    3    3    0    0 -0.11232283786E+02  0.23933102018E+02  0.88869636220E+03  0.88908952404E+03  0.00000000000E+00 0.  1.
</event>
<event>
 7    1  0.2895750E-005  0.5633138E+03  0.7818608E-02  0.1098755E+00
          2   -1    0    0  502    0  0.00000000000E+00  0.00000000000E+00  0.12558517013E+04  0.12558517013E+04  0.00000000000E+00 0. -1.
          1   -1    0    0  501    0 -0.00000000000E+00 -0.00000000000E+00 -0.30150018612E+04  0.30150018612E+04  0.00000000000E+00 0. -1.
         25    2    1    2    0    0  0.64715406702E+01  0.47370884264E+03  0.92356349195E+02  0.49859457000E+03  0.12499960628E+03 0.  0.
          2    1    1    2  501    0  0.90681655037E+02 -0.56559207152E+03 -0.27778596148E+04  0.28363042139E+04  0.00000000000E+00 0. -1.
          1    1    1    2  502    0 -0.97153195708E+02  0.91883228880E+02  0.92635310574E+03  0.93595477867E+03  0.00000000000E+00 0. -1.
         22    1    3    3    0    0 -0.27056317706E+02  0.42854074118E+03  0.10244399184E+03  0.44144533369E+03  0.00000000000E+00 0. -1.
         22    1    3    3    0    0  0.33527858377E+02  0.45168101460E+02 -0.10087642642E+02  0.57149236311E+02  0.00000000000E+00 0. -1.
</event>
<event>
 7    1  0.2895750E-005  0.4665151E+02  0.7818608E-02  0.1503704E+00
          2   -1    0    0  502    0  0.00000000000E+00  0.00000000000E+00  0.26057326228E+04  0.26057326228E+04  0.00000000000E+00 0. -1.
          1   -1    0    0  501    0 -0.00000000000E+00 -0.00000000000E+00 -0.33521206182E+02  0.33521206182E+02  0.00000000000E+00 0. -1.
         25    2    1    2    0    0  0.41660191493E+02 -0.65389665946E+02  0.52329660367E+03  0.54357657233E+03  0.12499909839E+03 0.  0.
          2    1    1    2  501    0 -0.14109369587E+02  0.43214061980E+02 -0.98755526954E+00  0.45469822172E+02  0.00000000000E+00 0. -1.
          1    1    1    2  502    0 -0.27550821906E+02  0.22175603966E+02  0.20499023682E+04  0.20502074345E+04  0.00000000000E+00 0. -1.
         22    1    3    3    0    0  0.76739281360E+02 -0.19154264001E+02  0.19925992849E+03  0.21438358667E+03  0.00000000000E+00 0. -1.
         22    1    3    3    0    0 -0.35079089868E+02 -0.46235401945E+02  0.32403667519E+03  0.32919298566E+03  0.00000000000E+00 0. -1.
</event>
<event>
 7    1  0.2895750E-005  0.9668431E+02  0.7818608E-02  0.1397499E+00
          2   -1    0    0  502    0  0.00000000000E+00  0.00000000000E+00  0.81271653565E+03  0.81271653565E+03  0.00000000000E+00 0. -1.
          1   -1    0    0  501    0 -0.00000000000E+00 -0.00000000000E+00 -0.20236875775E+03  0.20236875775E+03  0.00000000000E+00 0. -1.
         25    2    1    2    0    0 -0.61740775343E+02 -0.74870750609E+02  0.27396249398E+03  0.31638262073E+03  0.12499984781E+03 0.  0.
          2    1    1    2  501    0 -0.24360034905E+02  0.28290557441E+02 -0.17453782268E+03  0.17848590557E+03  0.00000000000E+00 0. -1.
          1    1    1    2  502    0  0.86100810248E+02  0.46580193168E+02  0.51092310660E+03  0.52021676711E+03  0.00000000000E+00 0. -1.
         22    1    3    3    0    0 -0.93899227166E+02 -0.43107804871E+02  0.23498786082E+03  0.25669951779E+03  0.00000000000E+00 0.  1.
         22    1    3    3    0    0  0.32158451823E+02 -0.31762945738E+02  0.38974633168E+02  0.59683102937E+02  0.00000000000E+00 0.  1.
</event>
<event>
 7    1  0.2895750E-005  0.1080822E+03  0.7818608E-02  0.1352309E+00
          2   -1    0    0  502    0  0.00000000000E+00  0.00000000000E+00  0.36866102714E+03  0.36866102714E+03  0.00000000000E+00 0. -1.
          1   -1    0    0  501    0 -0.00000000000E+00 -0.00000000000E+00 -0.41214582670E+04  0.41214582670E+04  0.00000000000E+00 0. -1.
         25    2    1    2    0    0 -0.10402247804E+03  0.38324282060E+02 -0.13206837034E+04  0.13312154340E+04  0.12505862974E+03 0.  0.
          2    1    1    2  501    0  0.28547346043E+02  0.39107814496E+02 -0.27872500406E+04  0.27876705618E+04  0.00000000000E+00 0. -1.
          1    1    1    2  502    0  0.75475131994E+02 -0.77432096556E+02  0.35513650421E+03  0.37123329827E+03  0.00000000000E+00 0. -1.
         22    1    3    3    0    0 -0.22697448888E+01 -0.24571681868E+02 -0.61272316453E+03  0.61321985914E+03  0.00000000000E+00 0. -1.
         22    1    3    3    0    0 -0.10175273315E+03  0.62895963928E+02 -0.70796053885E+03  0.71799557488E+03  0.00000000000E+00 0. -1.
</event>
<event>
 7    1  0.2895750E-005  0.1237542E+03  0.7818608E-02  0.1259251E+00
          2   -1    0    0  502    0  0.00000000000E+00  0.00000000000E+00  0.54674836064E+03  0.54674836064E+03  0.00000000000E+00 0. -1.
          1   -1    0    0  501    0 -0.00000000000E+00 -0.00000000000E+00 -0.71181090491E+03  0.71181090491E+03  0.00000000000E+00 0. -1.
         25    2    1    2    0    0 -0.16302684144E+03  0.13863247879E+03  0.27779082887E+02  0.24938608646E+03  0.12500010987E+03 0.  0.
          2    1    1    2  501    0  0.84136289375E+02 -0.52268380497E+02 -0.58840174538E+03  0.59668041091E+03  0.00000000000E+00 0. -1.
          1    1    1    2  502    0  0.78890552063E+02 -0.86364098291E+02  0.39556011823E+03  0.41249276819E+03  0.00000000000E+00 0. -1.
         22    1    3    3    0    0 -0.42216329038E+02  0.92532313696E+02 -0.32423848121E+02  0.10675089434E+03  0.00000000000E+00 0. -1.
         22    1    3    3    0    0 -0.12081051240E+03  0.46100165092E+02  0.60202931008E+02  0.14263519212E+03  0.00000000000E+00 0. -1.
</event>
<event>
 7    1  0.2895750E-005  0.9465644E+02  0.7818608E-02  0.1320578E+00
          2   -1    0    0  502    0  0.00000000000E+00  0.00000000000E+00  0.11068824656E+04  0.11068824656E+04  0.00000000000E+00 0. -1.
          1   -1    0    0  501    0 -0.00000000000E+00 -0.00000000000E+00 -0.42211114339E+02  0.42211114339E+02  0.00000000000E+00 0. -1.
         25    2    1    2    0    0  0.33023546391E+02 -0.48566634828E+02  0.37637140390E+03  0.40091045470E+03  0.12499794550E+03 0.  0.
          2    1    1    2  501    0 -0.35904516602E+02 -0.63432449108E+02  0.27423193913E+02  0.77877092117E+02  0.00000000000E+00 0. -1.
          1    1    1    2  502    0  0.28809702108E+01  0.11199908394E+03  0.66087675341E+03  0.67030603308E+03  0.00000000000E+00 0. -1.
         22    1    3    3    0    0  0.62047721146E+02 -0.39098559346E+02  0.35766302591E+03  0.36510472079E+03  0.00000000000E+00 0. -1.
         22    1    3    3    0    0 -0.29024174755E+02 -0.94680754822E+01  0.18708377990E+02  0.35805733907E+02  0.00000000000E+00 0. -1.
</event>
<event>
 7    1  0.2895750E-005  0.9276595E+02  0.7818608E-02  0.1336633E+00
          2   -1    0    0  502    0  0.00000000000E+00  0.00000000000E+00  0.33769342898E+04  0.33769342898E+04  0.00000000000E+00 0. -1.
          1   -1    0    0  501    0 -0.00000000000E+00 -0.00000000000E+00 -0.67252225258E+02  0.67252225258E+02  0.00000000000E+00 0. -1.
         25    2    1    2    0    0 -0.51706672189E+00 -0.58298736978E+02  0.11586679791E+04  0.11668483369E+04  0.12499818233E+03 0.  0.
          2    1    1    2  501    0 -0.62937451063E+02  0.70188402082E+02 -0.27237908167E+02  0.98129700776E+02  0.00000000000E+00 0. -1.
          1    1    1    2  502    0  0.63454517785E+02 -0.11889665105E+02  0.21782519937E+04  0.21792084774E+04  0.00000000000E+00 0. -1.
         22    1    3    3    0    0  0.95072900467E+01  0.25520039548E+02  0.69662833497E+03  0.69716045360E+03  0.00000000000E+00 0. -1.
         22    1    3    3    0    0 -0.10024356769E+02 -0.83818776525E+02  0.46203964410E+03  0.46968788333E+03  0.00000000000E+00 0. -1.
</event>
<event>
 7    1  0.2895750E-005  0.5036583E+03  0.7818608E-02  0.1167559E+00
          2   -1    0    0  502    0  0.00000000000E+00  0.00000000000E+00  0.75375495809E+03  0.75375495809E+03  0.00000000000E+00 0. -1.
          1   -1    0    0  501    0 -0.00000000000E+00 -0.00000000000E+00 -0.14219094599E+04  0.14219094599E+04  0.00000000000E+00 0. -1.
         25    2    1    2    0    0 -0.19833073103E+03 -0.49752644667E+03 -0.68073724350E+03  0.87515523026E+03  0.12500335335E+03 0.  0.
          2    1    1    2  501    0  0.15633094357E+03  0.44856183110E+03 -0.55428331964E+03  0.72998430029E+03  0.00000000000E+00 0. -1.
          1    1    1    2  502    0  0.41999787461E+02  0.48964615574E+02  0.56686606132E+03  0.57052488745E+03  0.00000000000E+00 0. -1.
         22    1    3    3    0    0 -0.72836959560E+02 -0.19927779181E+03 -0.37011190592E+03  0.42661420966E+03  0.00000000000E+00 0.  1.
         22    1    3    3    0    0 -0.12549377147E+03 -0.29824865486E+03 -0.31062533758E+03  0.44854102059E+03  0.00000000000E+00 0.  1.
</event>
<event>
 7    1  0.2895750E-005  0.1009371E+04  0.7818608E-02  0.1044915E+00
          2   -1    0    0  502    0  0.00000000000E+00  0.00000000000E+00  0.28809137981E+04  0.28809137981E+04  0.00000000000E+00 0. -1.
          1   -1    0    0  501    0 -0.00000000000E+00 -0.00000000000E+00 -0.11581061148E+04  0.11581061148E+04  0.00000000000E+00 0. -1.
         25    2    1    2    0    0  0.36513830618E+03  0.89635637782E+03  0.16054103021E+04  0.18787621766E+04  0.12499735803E+03 0.  0.
          2    1    1    2  501    0 -0.47089162463E+02  0.14865928868E+03 -0.74960859139E+03  0.76565658987E+03  0.00000000000E+00 0. -1.
          1    1    1    2  502    0 -0.31804914371E+03 -0.10450156665E+04  0.86700597265E+03  0.13946011464E+04  0.00000000000E+00 0. -1.
         22    1    3    3    0    0  0.32748875695E+03  0.85033535408E+03  0.15469611154E+04  0.17953851378E+04  0.00000000000E+00 0. -1.
         22    1    3    3    0    0  0.37649549223E+02  0.46021023747E+02  0.58449186684E+02  0.83377038851E+02  0.00000000000E+00 0. -1.
</event>
<event>
 7    1  0.2895750E-005  0.7816181E+02  0.7818608E-02  0.1351847E+00
          2   -1    0    0  502    0  0.00000000000E+00  0.00000000000E+00  0.22436656425E+03  0.22436656425E+03  0.00000000000E+00 0. -1.
          1   -1    0    0  501    0 -0.00000000000E+00 -0.00000000000E+00 -0.12497305123E+03  0.12497305123E+03  0.00000000000E+00 0. -1.
         25    2    1    2    0    0  0.90944493961E+02 -0.67484681667E+02  0.95165358262E+02  0.19366502040E+03  0.12499844588E+03 0.  0.
          2    1    1    2  501    0 -0.74814807230E+02  0.22314507073E+01 -0.29522309191E+02  0.80459937193E+02  0.00000000000E+00 0. -1.
          1    1    1    2  502    0 -0.16129686731E+02  0.65253230960E+02  0.33750463947E+02  0.75214657889E+02  0.00000000000E+00 0. -1.
         22    1    3    3    0    0 -0.15763126275E+01 -0.47499568613E+02  0.86395902464E+02  0.98604998567E+02  0.00000000000E+00 0.  1.
         22    1    3    3    0    0  0.92520806588E+02 -0.19985113055E+02  0.87694557982E+01  0.95060021831E+02  0.00000000000E+00 0.  1.
</event>
<event>
 7    1  0.2895750E-005  0.6928169E+02  0.7818608E-02  0.1419831E+00
          2   -1    0    0  502    0  0.00000000000E+00  0.00000000000E+00  0.15859993735E+04  0.15859993735E+04  0.00000000000E+00 0. -1.
          1   -1    0    0  501    0 -0.00000000000E+00 -0.00000000000E+00 -0.15939694571E+02  0.15939694571E+02  0.00000000000E+00 0. -1.
         25    2    1    2    0    0 -0.86841396505E+02 -0.17321506221E+02  0.12415733676E+04  0.12509878713E+04  0.12499905777E+03 0.  0.
          2    1    1    2  501    0  0.29358627160E+02  0.32439865749E+02  0.51115770956E+02  0.67283697275E+02  0.00000000000E+00 0. -1.
          1    1    1    2  502    0  0.57482769345E+02 -0.15118359529E+02  0.27737054039E+03  0.28366749945E+03  0.00000000000E+00 0. -1.
         22    1    3    3    0    0 -0.12134733121E+02 -0.62950285202E+02  0.61418444294E+03  0.61752127097E+03  0.00000000000E+00 0.  1.
         22    1    3    3    0    0 -0.74706663384E+02  0.45628778982E+02  0.62738892462E+03  0.63346660036E+03  0.00000000000E+00 0.  1.
</event>
<event>
 7    1  0.2895750E-005  0.1398838E+03  0.7818608E-02  0.1231003E+00
          2   -1    0    0  502    0  0.00000000000E+00  0.00000000000E+00  0.33909033002E+04  0.33909033002E+04  0.00000000000E+00 0. -1.
          1   -1    0    0  501    0 -0.00000000000E+00 -0.00000000000E+00 -0.20467090790E+03  0.20467090790E+03  0.00000000000E+00 0. -1.
         25    2    1    2    0    0  0.17062402002E+03  0.12006617091E+03  0.91454786061E+03  0.94633585324E+03  0.12500126468E+03 0.  0.
          2    1    1    2  501    0 -0.36101961904E+02 -0.11072744666E+03 -0.16877386123E+03  0.20505739521E+03  0.00000000000E+00 0. -1.
          1    1    1    2  502    0 -0.13452205812E+03 -0.93387242560E+01  0.24404583930E+04  0.24441809597E+04  0.00000000000E+00 0. -1.
         22    1    3    3    0    0  0.18262430475E+03  0.10100734998E+03  0.88448259300E+03  0.90877036635E+03  0.00000000000E+00 0. -1.
         22    1    3    3    0    0 -0.12000284728E+02  0.19058820927E+02  0.30065267615E+02  0.37565486892E+02  0.00000000000E+00 0. -1.
</event>
<event>
 7    1  0.2895750E-005  0.2796645E+03  0.7818608E-02  0.1261869E+00
          2   -1    0    0  502    0  0.00000000000E+00  0.00000000000E+00  0.13235327345E+04  0.13235327345E+04  0.00000000000E+00 0. -1.
          1   -1    0    0  501    0 -0.00000000000E+00 -0.00000000000E+00 -0.24464579596E+03  0.24464579596E+03  0.00000000000E+00 0. -1.
         25    2    1    2    0    0  0.24417711961E+03  0.23258985502E+02  0.45006697354E+03  0.52758620554E+03  0.12499390968E+03 0.  0.
          2    1    1    2  501    0 -0.28417675797E+03 -0.38255582950E+02 -0.10512641799E+03  0.30540380344E+03  0.00000000000E+00 0. -1.
          1    1    1    2  502    0  0.39999638366E+02  0.14996597448E+02  0.73394638303E+03  0.73518852152E+03  0.00000000000E+00 0. -1.
         22    1    3    3    0    0  0.12983483236E+03  0.22405078790E+02  0.35574113698E+03  0.37935580632E+03  0.00000000000E+00 0.  1.
         22    1    3    3    0    0  0.11434228724E+03  0.85390671141E+00  0.94325836557E+02  0.14823039921E+03  0.00000000000E+00 0.  1.
</event>
<event>
 7    1  0.2895750E-005  0.1547182E+03  0.7818608E-02  0.1283140E+00
          2   -1    0    0  502    0  0.00000000000E+00  0.00000000000E+00  0.20403131318E+03  0.20403131318E+03  0.00000000000E+00 0. -1.
          1   -1    0    0  501    0 -0.00000000000E+00 -0.00000000000E+00 -0.12094250013E+04  0.12094250013E+04  0.00000000000E+00 0. -1.
         25    2    1    2    0    0 -0.11055058257E+03  0.17577217913E+03  0.97340994678E+02  0.26118606546E+03  0.12500240511E+03 0.  0.
          2    1    1    2  501    0  0.57457703138E+02 -0.14202057534E+03 -0.10708227522E+04  0.10817266744E+04  0.00000000000E+00 0. -1.
          1    1    1    2  502    0  0.53092879433E+02 -0.33751603789E+02 -0.31911930584E+02  0.70543574608E+02  0.00000000000E+00 0. -1.
         22    1    3    3    0    0 -0.55192423077E+02  0.11045189557E+03 -0.10000326675E+02  0.12387829243E+03  0.00000000000E+00 0.  1.
         22    1    3    3    0    0 -0.55358159495E+02  0.65320283561E+02  0.10734132135E+03  0.13730777304E+03  0.00000000000E+00 0.  1.
</event>
<event>
 7    1  0.2895750E-005  0.5102131E+03  0.7818608E-02  0.1090590E+00
          2   -1    0    0  502    0  0.00000000000E+00  0.00000000000E+00  0.16996047277E+04  0.16996047277E+04  0.00000000000E+00 0. -1.
          1   -1    0    0  501    0 -0.00000000000E+00 -0.00000000000E+00 -0.64704493729E+03  0.64704493729E+03  0.00000000000E+00 0. -1.
         25    2    1    2    0    0  0.29686619583E+03  0.55713635793E+03  0.64310574605E+03  0.90980208364E+03  0.12499748491E+03 0.  0.
          2    1    1    2  501    0 -0.16036670041E+03 -0.46567276249E+03 -0.38527909192E+03  0.62530678790E+03  0.00000000000E+00 0. -1.
          1    1    1    2  502    0 -0.13649949542E+03 -0.91463595434E+02  0.79473313630E+03  0.81154079347E+03  0.00000000000E+00 0. -1.
         22    1    3    3    0    0  0.13876431068E+03  0.35180409836E+03  0.44245346750E+03  0.58205388792E+03  0.00000000000E+00 0.  1.
         22    1    3    3    0    0  0.15810188515E+03  0.20533225957E+03  0.20065227855E+03  0.32774819572E+03  0.00000000000E+00 0.  1.
</event>
<event>
 7    1  0.3807726E-005  0.1189582E+03  0.7818608E-02  0.1267126E+00
          2   -1    0    0  502    0  0.00000000000E+00  0.00000000000E+00  0.97371353698E+03  0.97371353698E+03  0.00000000000E+00 0. -1.
          1   -1    0    0  501    0 -0.00000000000E+00 -0.00000000000E+00 -0.10458177902E+04  0.10458177902E+04  0.00000000000E+00 0. -1.
         25    2    1    2    0    0 -0.78315110543E+02  0.62480529656E+02 -0.32034824595E+03  0.35816965818E+03  0.12500172891E+03 0.  0.
          2    1    1    2  501    0  0.13247257540E+03  0.16066791966E+02 -0.69783743022E+03  0.71048167045E+03  0.00000000000E+00 0. -1.
          1    1    1    2  502    0 -0.54157464853E+02 -0.78547321623E+02  0.94608142297E+03  0.95087999854E+03  0.00000000000E+00 0. -1.
         22    1    3    3    0    0 -0.31806346929E+02  0.80776537749E+01 -0.31161439689E+01  0.32963654966E+02  0.00000000000E+00 0. -1.
         22    1    3    3    0    0 -0.46508763613E+02  0.54402875881E+02 -0.31723210198E+03  0.32520600321E+03  0.00000000000E+00 0. -1.
</event>
<event>
 7    1  0.2895750E-005  0.6343063E+02  0.7818608E-02  0.1396032E+00
          2   -1    0    0  502    0  0.00000000000E+00  0.00000000000E+00  0.10924101923E+04  0.10924101923E+04  0.00000000000E+00 0. -1.
          1   -1    0    0  501    0 -0.00000000000E+00 -0.00000000000E+00 -0.30272580053E+03  0.30272580053E+03  0.00000000000E+00 0. -1.
         25    2    1    2    0    0  0.11837255365E+02 -0.32465713050E+02 -0.74994246248E+02  0.14980030524E+03  0.12498740474E+03 0.  0.
          2    1    1    2  501    0 -0.64235338912E+02 -0.32818180511E+01 -0.18390868811E+03  0.19483160590E+03  0.00000000000E+00 0. -1.
          1    1    1    2  502    0  0.52398083547E+02  0.35747531101E+02  0.10485873261E+04  0.10505040817E+04  0.00000000000E+00 0. -1.
         22    1    3    3    0    0  0.52343108793E+02  0.25048811698E+02 -0.44509869617E+02  0.73132567977E+02  0.00000000000E+00 0. -1.
         22    1    3    3    0    0 -0.40505853428E+02 -0.57514524748E+02 -0.30484376631E+02  0.76667737266E+02  0.00000000000E+00 0. -1.
</event>
<event>
 7    1  0.2895750E-005  0.2394669E+03  0.7818608E-02  0.1131985E+00
          2   -1    0    0  502    0  0.00000000000E+00  0.00000000000E+00  0.12858637870E+04  0.12858637870E+04  0.00000000000E+00 0. -1.
          1   -1    0    0  501    0 -0.00000000000E+00 -0.00000000000E+00 -0.10327029332E+04  0.10327029332E+04  0.00000000000E+00 0. -1.
         25    2    1    2    0    0 -0.36724216782E+03 -0.61592506306E+02 -0.63756628753E+03  0.74884972394E+03  0.12499876557E+03 0.  0.
          2    1    1    2  501    0  0.14516603934E+03  0.14736415407E+03 -0.29501649801E+03  0.36031112525E+03  0.00000000000E+00 0. -1.
          1    1    1    2  502    0  0.22207612847E+03 -0.85771647764E+02  0.11857436394E+04  0.12094058710E+04  0.00000000000E+00 0. -1.
         22    1    3    3    0    0  0.30237133443E+01  0.10390252099E+02 -0.46028318861E+02  0.47283256214E+02  0.00000000000E+00 0.  1.
         22    1    3    3    0    0 -0.37026588116E+03 -0.71982758405E+02 -0.59153796867E+03  0.70156646772E+03  0.00000000000E+00 0.  1.
</event>
<event>
 7    1  0.2895750E-005  0.2722412E+03  0.7818608E-02  0.1268280E+00
          2   -1    0    0  502    0  0.00000000000E+00  0.00000000000E+00  0.24426242043E+03  0.24426242043E+03  0.00000000000E+00 0. -1.
          1   -1    0    0  501    0 -0.00000000000E+00 -0.00000000000E+00 -0.46906106752E+03  0.46906106752E+03  0.00000000000E+00 0. -1.
         25    2    1    2    0    0 -0.15269879074E+03 -0.24983699083E+03 -0.58437458781E+00  0.31837027932E+03  0.12499540224E+03 0.  0.
          2    1    1    2  501    0  0.11272039186E+03  0.23977653471E+03 -0.23297062431E+03  0.35280870898E+03  0.00000000000E+00 0. -1.
          1    1    1    2  502    0  0.39978398872E+02  0.10060456126E+02  0.87563518004E+01  0.42144499649E+02  0.00000000000E+00 0. -1.
         22    1    3    3    0    0 -0.11784120895E+03 -0.75421591410E+02  0.93981564231E+01  0.14022586181E+03  0.00000000000E+00 0.  1.
         22    1    3    3    0    0 -0.34857581788E+02 -0.17441539942E+03 -0.99825310109E+01  0.17814441751E+03  0.00000000000E+00 0.  1.
</event>
<event>
 7    1  0.3317357E-005  0.1096130E+03  0.7818608E-02  0.1373133E+00
          2   -1    0    0  502    0  0.00000000000E+00  0.00000000000E+00  0.19393267118E+04  0.19393267118E+04  0.00000000000E+00 0. -1.
          1   -1    0    0  501    0 -0.00000000000E+00 -0.00000000000E+00 -0.10266545453E+04  0.10266545453E+04  0.00000000000E+00 0. -1.
         25    2    1    2    0    0  0.20104377285E+02 -0.10468952918E+03 -0.97389764108E+03  0.98765658692E+03  0.12499933950E+03 0.  0.
          2    1    1    2  501    0 -0.39984908105E+02 -0.31221515431E+01 -0.35240835694E+02  0.53389673223E+02  0.00000000000E+00 0. -1.
          1    1    1    2  502    0  0.19880530819E+02  0.10781168072E+03  0.19218106432E+04  0.19249349969E+04  0.00000000000E+00 0. -1.
         22    1    3    3    0    0 -0.28378032783E+02 -0.32028433610E+01 -0.49116374790E+03  0.49199329081E+03  0.00000000000E+00 0. -1.
         22    1    3    3    0    0  0.48482410068E+02 -0.10148668582E+03 -0.48273389317E+03  0.49566329610E+03  0.00000000000E+00 0. -1.
</event>
<event>
 7    1  0.2895750E-005  0.1164907E+03  0.7818608E-02  0.1263796E+00
          2   -1    0    0  502    0  0.00000000000E+00  0.00000000000E+00  0.82783138298E+03  0.82783138298E+03  0.00000000000E+00 0. -1.
          1   -1    0    0  501    0 -0.00000000000E+00 -0.00000000000E+00 -0.25899885712E+03  0.25899885712E+03  0.00000000000E+00 0. -1.
         25    2    1    2    0    0  0.28006702211E+02  0.20071988246E+03  0.44687779336E+02  0.24227160044E+03  0.12500273668E+03 0.  0.
          2    1    1    2  501    0  0.19889300184E+02 -0.98655629074E+02 -0.13916122666E+03  0.17173923377E+03  0.00000000000E+00 0. -1.
          1    1    1    2  502    0 -0.47896002395E+02 -0.10206425338E+03  0.66330597319E+03  0.67281940589E+03  0.00000000000E+00 0. -1.
         22    1    3    3    0    0  0.61434112936E+02  0.13714577146E+03 -0.12021085173E+02  0.15075682191E+03  0.00000000000E+00 0.  1.
         22    1    3    3    0    0 -0.33427410725E+02  0.63574110993E+02  0.56708864509E+02  0.91514778535E+02  0.00000000000E+00 0.  1.
</event>
<event>
 7    1  0.2895750E-005  0.3681040E+03  0.7818608E-02  0.1097946E+00
          2   -1    0    0  502    0  0.00000000000E+00  0.00000000000E+00  0.18787382166E+04  0.18787382166E+04  0.00000000000E+00 0. -1.
          1   -1    0    0  501    0 -0.00000000000E+00 -0.00000000000E+00 -0.10093653488E+04  0.10093653488E+04  0.00000000000E+00 0. -1.
         25    2    1    2    0    0 -0.27773499832E+03  0.17915524122E+02  0.19139358430E+03  0.36015853034E+03  0.12499987027E+03 0.  0.
          2    1    1    2  501    0 -0.64494717641E+02  0.19648659535E+03 -0.88746910317E+03  0.91124527973E+03  0.00000000000E+00 0. -1.
          1    1    1    2  502    0  0.34222971597E+03 -0.21440211947E+03  0.15654483867E+04  0.16166997553E+04  0.00000000000E+00 0. -1.
         22    1    3    3    0    0 -0.20448973794E+02 -0.24746753764E+02 -0.65300521994E+01  0.32759791403E+02  0.00000000000E+00 0.  1.
         22    1    3    3    0    0 -0.25728602453E+03  0.42662277886E+02  0.19792363650E+03  0.32739873894E+03  0.00000000000E+00 0.  1.
</event>
<event>
 7    1  0.2895750E-005  0.5324939E+03  0.7818608E-02  0.1078256E+00
          2   -1    0    0  502    0  0.00000000000E+00  0.00000000000E+00  0.20082127181E+04  0.20082127181E+04  0.00000000000E+00 0. -1.
          1   -1    0    0  501    0 -0.00000000000E+00 -0.00000000000E+00 -0.70009167871E+03  0.70009167871E+03  0.00000000000E+00 0. -1.
         25    2    1    2    0    0 -0.17180334133E+03  0.12049916102E+02  0.11908559378E+04  0.12097208793E+04  0.12500061025E+03 0.  0.
          2    1    1    2  501    0 -0.19534413401E+03 -0.49536897686E+03 -0.42760963132E+03  0.68293466066E+03  0.00000000000E+00 0. -1.
          1    1    1    2  502    0  0.36714747534E+03  0.48331906076E+03  0.54487473284E+03  0.81564885682E+03  0.00000000000E+00 0. -1.
         22    1    3    3    0    0 -0.76088126246E+00 -0.33177375644E+02  0.12754004951E+03  0.13178687880E+03  0.00000000000E+00 0.  1.
         22    1    3    3    0    0 -0.17104246007E+03  0.45227291746E+02  0.10633158883E+04  0.10779340005E+04  0.00000000000E+00 0.  1.
</event>
<event>
 7    1  0.2895750E-005  0.4679177E+03  0.7818608E-02  0.1087318E+00
          2   -1    0    0  502    0  0.00000000000E+00  0.00000000000E+00  0.28416106138E+04  0.28416106138E+04  0.00000000000E+00 0. -1.
          1   -1    0    0  501    0 -0.00000000000E+00 -0.00000000000E+00 -0.53651368251E+03  0.53651368251E+03  0.00000000000E+00 0. -1.
         25    2    1    2    0    0  0.43799158461E+03 -0.76783022835E+02  0.21618767859E+04  0.22106714559E+04  0.12499915088E+03 0.  0.
          2    1    1    2  501    0 -0.45804080206E+03 -0.10923559902E+03 -0.38425995518E+03  0.60777422256E+03  0.00000000000E+00 0. -1.
          1    1    1    2  502    0  0.20049217449E+02  0.18601862185E+03  0.52748010057E+03  0.55967861787E+03  0.00000000000E+00 0. -1.
         22    1    3    3    0    0  0.41247228496E+03 -0.86203493281E+02  0.21141626877E+04  0.21557477353E+04  0.00000000000E+00 0.  1.
         22    1    3    3    0    0  0.25519299657E+02  0.94204704458E+01  0.47714098132E+02  0.54923720549E+02  0.00000000000E+00 0.  1.
</event>
<event>
 7    1  0.2895750E-005  0.2332550E+03  0.7818608E-02  0.1294113E+00
          2   -1    0    0  502    0  0.00000000000E+00  0.00000000000E+00  0.17455248893E+04  0.17455248893E+04  0.00000000000E+00 0. -1.
          1   -1    0    0  501    0 -0.00000000000E+00 -0.00000000000E+00 -0.94863317574E+03  0.94863317574E+03  0.00000000000E+00 0. -1.
         25    2    1    2    0    0  0.56887200644E+02  0.25591975596E+03 -0.32647900421E+03  0.43695550568E+03  0.12494198122E+03 0.  0.
          2    1    1    2  501    0  0.14864856816E+02 -0.34587160304E+02 -0.55827198735E+03  0.55953985335E+03  0.00000000000E+00 0. -1.
          1    1    1    2  502    0 -0.71752057460E+02 -0.22133259565E+03  0.16816427051E+04  0.16976627060E+04  0.00000000000E+00 0. -1.
         22    1    3    3    0    0 -0.17757995289E+02 -0.12943827302E+01 -0.45114230790E+02  0.48500676729E+02  0.00000000000E+00 0. -1.
         22    1    3    3    0    0  0.74645195933E+02  0.25721413869E+03 -0.28136477342E+03  0.38845482896E+03  0.00000000000E+00 0. -1.
</event>
<event>
 7    1  0.2895750E-005  0.2535507E+03  0.7818608E-02  0.1227544E+00
          2   -1    0    0  502    0  0.00000000000E+00  0.00000000000E+00  0.19537951390E+04  0.19537951390E+04  0.00000000000E+00 0. -1.
          1   -1    0    0  501    0 -0.00000000000E+00 -0.00000000000E+00 -0.51685447868E+03  0.51685447868E+03  0.00000000000E+00 0. -1.
         25    2    1    2    0    0 -0.18774694262E+02 -0.28130527871E+03  0.49766228215E+03  0.58547247173E+03  0.12500047641E+03 0.  0.
          2    1    1    2  501    0 -0.39502671803E+02  0.24908250628E+03 -0.43846774099E+03  0.50582261308E+03  0.00000000000E+00 0. -1.
          1    1    1    2  502    0  0.58277366065E+02  0.32222772430E+02  0.13777461191E+04  0.13793545328E+04  0.00000000000E+00 0. -1.
         22    1    3    3    0    0 -0.22134616355E+02 -0.13684012444E+02  0.11875334500E+03  0.12157117415E+03  0.00000000000E+00 0. -1.
         22    1    3    3    0    0  0.33599220920E+01 -0.26762126627E+03  0.37890893715E+03  0.46390129757E+03  0.00000000000E+00 0. -1.
</event>
<event>
 7    1  0.2895750E-005  0.1147291E+03  0.7818608E-02  0.1293997E+00
          2   -1    0    0  502    0  0.00000000000E+00  0.00000000000E+00  0.83294740491E+02  0.83294740491E+02  0.00000000000E+00 0. -1.
          1   -1    0    0  501    0 -0.00000000000E+00 -0.00000000000E+00 -0.48372154505E+03  0.48372154505E+03  0.00000000000E+00 0. -1.
         25    2    1    2    0    0 -0.86969590017E+02 -0.52444000110E+01 -0.94156797469E+02  0.17911258788E+03  0.12499841322E+03 0.  0.
          2    1    1    2  501    0  0.12109257579E+03  0.73847800701E+02 -0.11752174325E+03  0.18419628040E+03  0.00000000000E+00 0. -1.
          1    1    1    2  502    0 -0.34122985768E+02 -0.68603400690E+02 -0.18874826384E+03  0.20370741726E+03  0.00000000000E+00 0. -1.
         22    1    3    3    0    0  0.29116400092E+02  0.14860052578E+02 -0.95153042855E+01  0.34045953248E+02  0.00000000000E+00 0.  1.
         22    1    3    3    0    0 -0.11608599011E+03 -0.20104452589E+02 -0.84641493184E+02  0.14506663463E+03  0.00000000000E+00 0.  1.
</event>
<event>
 7    1  0.2895750E-005  0.2075886E+03  0.7818608E-02  0.1172004E+00
          2   -1    0    0  502    0  0.00000000000E+00  0.00000000000E+00  0.70569468372E+03  0.70569468372E+03  0.00000000000E+00 0. -1.
          1   -1    0    0  501    0 -0.00000000000E+00 -0.00000000000E+00 -0.19650198931E+03  0.19650198931E+03  0.00000000000E+00 0. -1.
         25    2    1    2    0    0 -0.20815703612E+03  0.25431006309E+03  0.10369537177E+03  0.36657938133E+03  0.12499901127E+03 0.  0.
          2    1    1    2  501    0  0.71678001775E+02 -0.13034673741E+03  0.10151884818E+03  0.18009465408E+03  0.00000000000E+00 0. -1.
          1    1    1    2  502    0  0.13647903434E+03 -0.12396332569E+03  0.30397847446E+03  0.35552263762E+03  0.00000000000E+00 0. -1.
         22    1    3    3    0    0 -0.18649681701E+03  0.25172396492E+03  0.12385453221E+03  0.33687677631E+03  0.00000000000E+00 0.  1.
         22    1    3    3    0    0 -0.21660219111E+02  0.25860981727E+01 -0.20159160439E+02  0.29702605025E+02  0.00000000000E+00 0.  1.
</event>
<event>
 7    1  0.2895750E-005  0.9200571E+02  0.7818608E-02  0.1331851E+00
          2   -1    0    0  502    0  0.00000000000E+00  0.00000000000E+00  0.20443486722E+04  0.20443486722E+04  0.00000000000E+00 0. -1.
          1   -1    0    0  501    0 -0.00000000000E+00 -0.00000000000E+00 -0.16154585980E+04  0.16154585980E+04  0.00000000000E+00 0. -1.
         25    2    1    2    0    0 -0.41570896491E+00  0.14683578965E+03  0.67510368266E+02  0.20431192087E+03  0.12499915700E+03 0.  0.
          2    1    1    2  501    0  0.30446147328E+02 -0.60658023365E+02 -0.15452214936E+04  0.15467112943E+04  0.00000000000E+00 0. -1.
          1    1    1    2  502    0 -0.30030438363E+02 -0.86177766282E+02  0.19066011995E+04  0.19087840550E+04  0.00000000000E+00 0. -1.
         22    1    3    3    0    0 -0.52674773445E+02  0.11787249942E+03  0.26377757041E+02  0.13177383634E+03  0.00000000000E+00 0. -1.
         22    1    3    3    0    0  0.52259064480E+02  0.28963290222E+02  0.41132611225E+02  0.72538084528E+02  0.00000000000E+00 0. -1.
</event>
<event>
 7    1  0.2895750E-005  0.3484982E+03  0.7818608E-02  0.1132963E+00
          2   -1    0    0  502    0  0.00000000000E+00  0.00000000000E+00  0.46276866253E+03  0.46276866253E+03  0.00000000000E+00 0. -1.
          1   -1    0    0  501    0 -0.00000000000E+00 -0.00000000000E+00 -0.59614537586E+03  0.59614537586E+03  0.00000000000E+00 0. -1.
         25    2    1    2    0    0  0.35083325516E+02  0.29529439797E+03  0.31207080475E+02  0.32407929512E+03  0.12499554572E+03 0.  0.
          2    1    1    2  501    0  0.11124877395E+03  0.85732145607E+02 -0.27778076651E+03  0.31126908735E+03  0.00000000000E+00 0. -1.
          1    1    1    2  502    0 -0.14633209946E+03 -0.38102654358E+03  0.11319697270E+03  0.42356565592E+03  0.00000000000E+00 0. -1.
         22    1    3    3    0    0 -0.24992785457E+02  0.17258642707E+02  0.25358431887E+02  0.39567033510E+02  0.00000000000E+00 0.  1.
         22    1    3    3    0    0  0.60076110974E+02  0.27803575527E+03  0.58486485875E+01  0.28451226161E+03  0.00000000000E+00 0.  1.
</event>
<event>
 7    1  0.4469607E-005  0.2558937E+03  0.7818608E-02  0.1202226E+00
          2   -1    0    0  502    0  0.00000000000E+00  0.00000000000E+00  0.15923783296E+04  0.15923783296E+04  0.00000000000E+00 0. -1.
          1   -1    0    0  501    0 -0.00000000000E+00 -0.00000000000E+00 -0.13988485002E+04  0.13988485002E+04  0.00000000000E+00 0. -1.
         25    2    1    2    0    0  0.18444863923E+03  0.26656565776E+03 -0.52360750783E+03  0.62838519663E+03  0.12499833069E+03 0.  0.
          2    1    1    2  501    0 -0.46147215875E+01 -0.86149582162E+02 -0.81001153449E+03  0.81459298559E+03  0.00000000000E+00 0. -1.
          1    1    1    2  502    0 -0.17983391765E+03 -0.18041607560E+03  0.15271488717E+04  0.15482486476E+04  0.00000000000E+00 0. -1.
         22    1    3    3    0    0  0.20305024999E+03  0.25122954255E+03 -0.49340113143E+03  0.58973753787E+03  0.00000000000E+00 0.  1.
         22    1    3    3    0    0 -0.18601610760E+02  0.15336115212E+02 -0.30206376400E+02  0.38647658763E+02  0.00000000000E+00 0.  1.
</event>
<event>
 7    1  0.2895750E-005  0.1288334E+03  0.7818608E-02  0.1282496E+00
          2   -1    0    0  502    0  0.00000000000E+00  0.00000000000E+00  0.40438106722E+03  0.40438106722E+03  0.00000000000E+00 0. -1.
          1   -1    0    0  501    0 -0.00000000000E+00 -0.00000000000E+00 -0.55979183923E+03  0.55979183923E+03  0.00000000000E+00 0. -1.
         25    2    1    2    0    0 -0.87036426480E+02  0.17128064285E+03  0.61017827221E+01  0.22929091694E+03  0.12499877875E+03 0.  0.
          2    1    1    2  501    0  0.79654157226E+02 -0.95624562161E+02 -0.43425898893E+03  0.45174075654E+03  0.00000000000E+00 0. -1.
          1    1    1    2  502    0  0.73822692538E+01 -0.75656080685E+02  0.27274643420E+03  0.28314123298E+03  0.00000000000E+00 0. -1.
         22    1    3    3    0    0 -0.94973279395E+01  0.14704925294E+03 -0.41200364053E+01  0.14741321762E+03  0.00000000000E+00 0.  1.
         22    1    3    3    0    0 -0.77539098541E+02  0.24231389905E+02  0.10221819127E+02  0.81877699317E+02  0.00000000000E+00 0.  1.
</event>
<event>
 7    1  0.2895750E-005  0.4656927E+02  0.7818608E-02  0.1494650E+00
          2   -1    0    0  502    0  0.00000000000E+00  0.00000000000E+00  0.30382235450E+04  0.30382235450E+04  0.00000000000E+00 0. -1.
          1   -1    0    0  501    0 -0.00000000000E+00 -0.00000000000E+00 -0.27777503393E+03  0.27777503393E+03  0.00000000000E+00 0. -1.
         25    2    1    2    0    0 -0.28878188881E+02  0.74652750692E+02  0.12637840809E+03  0.19494813914E+03  0.12500516766E+03 0.  0.
          2    1    1    2  501    0  0.81458678893E+00 -0.37697197380E+02 -0.24184212215E+03  0.24476387456E+03  0.00000000000E+00 0. -1.
          1    1    1    2  502    0  0.28063602092E+02 -0.36955553312E+02  0.28759122251E+04  0.28762865652E+04  0.00000000000E+00 0. -1.
         22    1    3    3    0    0 -0.62244371353E+02  0.49701267644E+02  0.22111198576E+02  0.82664882949E+02  0.00000000000E+00 0.  1.
         22    1    3    3    0    0  0.33366182472E+02  0.24951483048E+02  0.10426720952E+03  0.11228325619E+03  0.00000000000E+00 0.  1.
</event>
<event>
 7    1  0.2895750E-005  0.1273686E+03  0.7818608E-02  0.1256541E+00
          2   -1    0    0  502    0  0.00000000000E+00  0.00000000000E+00  0.23662716160E+04  0.23662716160E+04  0.00000000000E+00 0. -1.
          1   -1    0    0  501    0 -0.00000000000E+00 -0.00000000000E+00 -0.62975266539E+03  0.62975266539E+03  0.00000000000E+00 0. -1.
         25    2    1    2    0    0 -0.84531058490E+02 -0.16619945554E+03  0.12116379285E+04  0.12322571791E+04  0.12499410702E+03 0.  0.
          2    1    1    2  501    0 -0.81282008765E+01  0.98511060727E+02 -0.61259463649E+03  0.62051807821E+03  0.00000000000E+00 0. -1.
          1    1    1    2  502    0  0.92659259367E+02  0.67688394812E+02  0.11374756586E+04  0.11432490240E+04  0.00000000000E+00 0. -1.
         22    1    3    3    0    0  0.27801451780E+02 -0.13695139554E+02  0.26888485301E+03  0.27066499911E+03  0.00000000000E+00 0.  1.
         22    1    3    3    0    0 -0.11233251027E+03 -0.15250431598E+03  0.94275307550E+03  0.96159217999E+03  0.00000000000E+00 0.  1.
</event>
<event>
 7    1  0.2895750E-005  0.6722633E+03  0.7818608E-02  0.1158014E+00
          2   -1    0    0  502    0  0.00000000000E+00  0.00000000000E+00  0.66912518003E+03  0.66912518003E+03  0.00000000000E+00 0. -1.
          1   -1    0    0  501    0 -0.00000000000E+00 -0.00000000000E+00 -0.13805023636E+04  0.13805023636E+04  0.00000000000E+00 0. -1.
         25    2    1    2    0    0 -0.54429182483E+03  0.33466155022E+03 -0.22747132840E+03  0.68965195432E+03  0.12499867632E+03 0.  0.
          2    1    1    2  501    0  0.58081289631E+03 -0.37441214727E+03 -0.78975444259E+03  0.10493999029E+04  0.00000000000E+00 0. -1.
          1    1    1    2  502    0 -0.36521071480E+02  0.39750597050E+02  0.30584858738E+03  0.31057568648E+03  0.00000000000E+00 0. -1.
         22    1    3    3    0    0 -0.21655352136E+02  0.12229725170E+02 -0.40854133272E+02  0.47828659393E+02  0.00000000000E+00 0.  1.
         22    1    3    3    0    0 -0.52263647269E+03  0.32243182505E+03 -0.18661719513E+03  0.64182329493E+03  0.00000000000E+00 0.  1.
</event>
<event>
 7    1  0.2895750E-005  0.4347586E+03  0.7818608E-02  0.1163032E+00
          2   -1    0    0  502    0  0.00000000000E+00  0.00000000000E+00  0.14629338435E+04  0.14629338435E+04  0.00000000000E+00 0. -1.
          1   -1    0    0  501    0 -0.00000000000E+00 -0.00000000000E+00 -0.33602029916E+03  0.33602029916E+03  0.00000000000E+00 0. -1.
         25    2    1    2    0    0 -0.17768584629E+03 -0.34339516323E+03  0.68609188399E+03  0.79739490970E+03  0.12499628255E+03 0.  0.
          2    1    1    2  501    0  0.25209558208E+03  0.36914121394E+03 -0.97492249128E+02  0.45751738434E+03  0.00000000000E+00 0. -1.
          1    1    1    2  502    0 -0.74409735793E+02 -0.25746050715E+02  0.53831390947E+03  0.54404184861E+03  0.00000000000E+00 0. -1.
         22    1    3    3    0    0 -0.15640382646E+03 -0.30621075264E+03  0.50255844770E+03  0.60892706897E+03  0.00000000000E+00 0.  1.
         22    1    3    3    0    0 -0.21282019833E+02 -0.37184410590E+02  0.18353343628E+03  0.18846784074E+03  0.00000000000E+00 0.  1.
</event>
<event>
 7    1  0.2895750E-005  0.1637637E+03  0.7818608E-02  0.1310206E+00
          2   -1    0    0  502    0  0.00000000000E+00  0.00000000000E+00  0.41773282841E+03  0.41773282841E+03  0.00000000000E+00 0. -1.
          1   -1    0    0  501    0 -0.00000000000E+00 -0.00000000000E+00 -0.11134415556E+04  0.11134415556E+04  0.00000000000E+00 0. -1.
         25    2    1    2    0    0 -0.43147230243E+02 -0.15980796367E+03 -0.67457672937E+03  0.70574619339E+03  0.12499462766E+03 0.  0.
          2    1    1    2  501    0 -0.41847743591E+02  0.19697428945E+02 -0.40521497849E+03  0.40784605079E+03  0.00000000000E+00 0. -1.
          1    1    1    2  502    0  0.84994973834E+02  0.14011053472E+03  0.38408298064E+03  0.41758213987E+03  0.00000000000E+00 0. -1.
         22    1    3    3    0    0 -0.83133873430E+02 -0.13985374646E+03 -0.53456522663E+03  0.55877570888E+03  0.00000000000E+00 0. -1.
         22    1    3    3    0    0  0.39986643187E+02 -0.19954217212E+02 -0.14001150274E+03  0.14697048451E+03  0.00000000000E+00 0. -1.
</event>
<event>
 7    1  0.2895750E-005  0.4305531E+03  0.7818608E-02  0.1131329E+00
          2   -1    0    0  502    0  0.00000000000E+00  0.00000000000E+00  0.10625731672E+04  0.10625731672E+04  0.00000000000E+00 0. -1.
          1   -1    0    0  501    0 -0.00000000000E+00 -0.00000000000E+00 -0.57065540575E+03  0.57065540575E+03  0.00000000000E+00 0. -1.
         25    2    1    2    0    0 -0.32567512121E+03  0.30936067504E+03 -0.12405270196E+02  0.46641806357E+03  0.12499442972E+03 0.  0.
          2    1    1    2  501    0  0.22233662972E+03 -0.36201010411E+03 -0.18819161143E+03  0.46465145540E+03  0.00000000000E+00 0. -1.
          1    1    1    2  502    0  0.10333849150E+03  0.52649429072E+02  0.69251464311E+03  0.70215905401E+03  0.00000000000E+00 0. -1.
         22    1    3    3    0    0 -0.19565081254E+03  0.17523576939E+03  0.54027935741E+02  0.26815263035E+03  0.00000000000E+00 0. -1.
         22    1    3    3    0    0 -0.13002430867E+03  0.13412490565E+03 -0.66433205937E+02  0.19826543322E+03  0.00000000000E+00 0. -1.
</event>
<event>
 7    1  0.2895750E-005  0.1762771E+03  0.7818608E-02  0.1322894E+00
          2   -1    0    0  502    0  0.00000000000E+00  0.00000000000E+00  0.41987875040E+03  0.41987875040E+03  0.00000000000E+00 0. -1.
          1   -1    0    0  501    0 -0.00000000000E+00 -0.00000000000E+00 -0.14003344029E+03  0.14003344029E+03  0.00000000000E+00 0. -1.
         25    2    1    2    0    0 -0.11406097341E+03  0.16056390783E+03  0.63769246104E+02  0.24185356154E+03  0.12504380963E+03 0.  0.
          2    1    1    2  501    0  0.90578483957E+02 -0.13025649372E+03  0.81967925725E+02  0.17857759311E+03  0.00000000000E+00 0. -1.
          1    1    1    2  502    0  0.23482489458E+02 -0.30307414109E+02  0.13410813828E+03  0.13948103604E+03  0.00000000000E+00 0. -1.
         22    1    3    3    0    0 -0.72394364668E+02  0.15249399654E+02 -0.81813690039E+01  0.74434017924E+02  0.00000000000E+00 0. -1.
         22    1    3    3    0    0 -0.41666608747E+02  0.14531450818E+03  0.71950615108E+02  0.16741954362E+03  0.00000000000E+00 0. -1.
</event>
<event>
 7    1  0.2895750E-005  0.9014640E+02  0.7818608E-02  0.1454837E+00
          2   -1    0    0  502    0  0.00000000000E+00  0.00000000000E+00  0.79415917381E+03  0.79415917381E+03  0.00000000000E+00 0. -1.
          1   -1    0    0  501    0 -0.00000000000E+00 -0.00000000000E+00 -0.53856273479E+02  0.53856273479E+02  0.00000000000E+00 0. -1.
         25    2    1    2    0    0  0.35867283217E+02 -0.59514555991E+02  0.29008256044E+03  0.32342112763E+03  0.12499955819E+03 0.  0.
          2    1    1    2  501    0 -0.55834297615E+02  0.75946776049E+02  0.23574492269E+02  0.97165519956E+02  0.00000000000E+00 0. -1.
          1    1    1    2  502    0  0.19967014399E+02 -0.16432220059E+02  0.42664584762E+03  0.42742879970E+03  0.00000000000E+00 0. -1.
         22    1    3    3    0    0  0.23453143398E+02 -0.96706846204E+02  0.24002786777E+03  0.25983772117E+03  0.00000000000E+00 0.  1.
         22    1    3    3    0    0  0.12414139819E+02  0.37192290214E+02  0.50054692667E+02  0.63583406457E+02  0.00000000000E+00 0.  1.
</event>
<event>
 7    1  0.2895750E-005  0.1088248E+03  0.7818608E-02  0.1343975E+00
          2   -1    0    0  502    0  0.00000000000E+00  0.00000000000E+00  0.30190677917E+03  0.30190677917E+03  0.00000000000E+00 0. -1.
          1   -1    0    0  501    0 -0.00000000000E+00 -0.00000000000E+00 -0.15237553685E+04  0.15237553685E+04  0.00000000000E+00 0. -1.
         25    2    1    2    0    0 -0.89002981750E+02 -0.45561894006E+02 -0.13213516837E+03  0.20755806562E+03  0.12499292356E+03 0.  0.
          2    1    1    2  501    0 -0.21154477418E+02  0.47110765344E+02 -0.13419055124E+04  0.13428988571E+04  0.00000000000E+00 0. -1.
          1    1    1    2  502    0  0.11015745917E+03 -0.15488713387E+01  0.25219209149E+03  0.27520522492E+03  0.00000000000E+00 0. -1.
         22    1    3    3    0    0 -0.66002447179E+02 -0.23200165257E+02  0.16499960521E+01  0.69980662961E+02  0.00000000000E+00 0.  1.
         22    1    3    3    0    0 -0.23000534572E+02 -0.22361728749E+02 -0.13378516443E+03  0.13757740266E+03  0.00000000000E+00 0.  1.
</event>
<event>
 7    1  0.2895750E-005  0.6634927E+03  0.7818608E-02  0.1094388E+00
          2   -1    0    0  502    0  0.00000000000E+00  0.00000000000E+00  0.42794778456E+04  0.42794778456E+04  0.00000000000E+00 0. -1.
          1   -1    0    0  501    0 -0.00000000000E+00 -0.00000000000E+00 -0.28927903451E+03  0.28927903451E+03  0.00000000000E+00 0. -1.
         25    2    1    2    0    0 -0.22118879803E+03  0.73285510097E+03  0.58591361310E+03  0.97206986315E+03  0.12499589364E+03 0.  0.
          2    1    1    2  501    0  0.54171134524E+02 -0.10729304691E+03 -0.10882580101E+02  0.12068446578E+03  0.00000000000E+00 0. -1.
          1    1    1    2  502    0  0.16701766350E+03 -0.62556205407E+03  0.34151677781E+04  0.34760025512E+04  0.00000000000E+00 0. -1.
         22    1    3    3    0    0 -0.46974465161E+02  0.49399944431E+02  0.73688779474E+02  0.10038421742E+03  0.00000000000E+00 0. -1.
         22    1    3    3    0    0 -0.17421433287E+03  0.68345515654E+03  0.51222483363E+03  0.87168564573E+03  0.00000000000E+00 0. -1.
</event>
<event>
 7    1  0.2895750E-005  0.5461179E+02  0.7818608E-02  0.1484706E+00
          2   -1    0    0  502    0  0.00000000000E+00  0.00000000000E+00  0.27998369403E+04  0.27998369403E+04  0.00000000000E+00 0. -1.
          1   -1    0    0  501    0 -0.00000000000E+00 -0.00000000000E+00 -0.12426651234E+03  0.12426651234E+03  0.00000000000E+00 0. -1.
         25    2    1    2    0    0  0.24527351746E+02  0.36133266332E+02  0.54121199824E+03  0.55717313889E+03  0.12499710296E+03 0.  0.
          2    1    1    2  501    0  0.45249465612E+01 -0.54667105806E+02 -0.10967738463E+03  0.12262991600E+03  0.00000000000E+00 0. -1.
          1    1    1    2  502    0 -0.29052298307E+02  0.18533839474E+02  0.22440358143E+04  0.22443003977E+04  0.00000000000E+00 0. -1.
         22    1    3    3    0    0 -0.40733525690E+02  0.47750367645E+02  0.32588900218E+03  0.33187792856E+03  0.00000000000E+00 0.  1.
         22    1    3    3    0    0  0.65260877436E+02 -0.11617101313E+02  0.21532299606E+03  0.22529521033E+03  0.00000000000E+00 0.  1.
</event>
<event>
 7    1  0.2895750E-005  0.6825408E+02  0.7818608E-02  0.1416307E+00
          2   -1    0    0  502    0  0.00000000000E+00  0.00000000000E+00  0.27322222702E+04  0.27322222702E+04  0.00000000000E+00 0. -1.
          1   -1    0    0  501    0 -0.00000000000E+00 -0.00000000000E+00 -0.80766726076E+01  0.80766726076E+01  0.00000000000E+00 0. -1.
         25    2    1    2    0    0  0.45840359246E+02  0.17766394011E+01  0.87858559640E+03  0.88861814108E+03  0.12500022189E+03 0.  0.
          2    1    1    2  501    0 -0.84271163112E+02 -0.26385277784E+02  0.75165094723E+03  0.75682029458E+03  0.00000000000E+00 0. -1.
          1    1    1    2  502    0  0.38430803866E+02  0.24608638383E+02  0.10939090539E+04  0.10948605071E+04  0.00000000000E+00 0. -1.
         22    1    3    3    0    0  0.37300458687E+02  0.24372647539E+02  0.97943680633E+02  0.10760257777E+03  0.00000000000E+00 0.  1.
         22    1    3    3    0    0  0.85399005593E+01 -0.22596008137E+02  0.78064191577E+03  0.78101556332E+03  0.00000000000E+00 0.  1.
</event>
<event>
 7    1  0.2895750E-005  0.2007272E+03  0.7818608E-02  0.1203472E+00
          2   -1    0    0  502    0  0.00000000000E+00  0.00000000000E+00  0.22073863267E+04  0.22073863267E+04  0.00000000000E+00 0. -1.
          1   -1    0    0  501    0 -0.00000000000E+00 -0.00000000000E+00 -0.26270090936E+04  0.26270090936E+04  0.00000000000E+00 0. -1.
         25    2    1    2    0    0  0.23334189496E+03 -0.17642651360E+03  0.45828309753E+03  0.55787409973E+03  0.12500143605E+03 0.  0.
          2    1    1    2  501    0 -0.10172469611E+03  0.37776910474E+02 -0.25706886372E+04  0.25729778620E+04  0.00000000000E+00 0. -1.
          1    1    1    2  502    0 -0.13161719885E+03  0.13864960312E+03  0.16927827728E+04  0.17035434586E+04  0.00000000000E+00 0. -1.
         22    1    3    3    0    0  0.21619404970E+02 -0.11555397194E+01 -0.20297008838E+01  0.21745197837E+02  0.00000000000E+00 0.  1.
         22    1    3    3    0    0  0.21172248999E+03 -0.17527097388E+03  0.46031279842E+03  0.53612890189E+03  0.00000000000E+00 0.  1.
</event>
<event>
 7    1  0.2895750E-005  0.8472063E+02  0.7818608E-02  0.1323954E+00
          2   -1    0    0  502    0  0.00000000000E+00  0.00000000000E+00  0.70861057250E+03  0.70861057250E+03  0.00000000000E+00 0. -1.
          1   -1    0    0  501    0 -0.00000000000E+00 -0.00000000000E+00 -0.52742741797E+03  0.52742741797E+03  0.00000000000E+00 0. -1.
         25    2    1    2    0    0 -0.24600196190E+02 -0.15310992656E+03 -0.71274605640E+02  0.21154884161E+03  0.12500009486E+03 0.  0.
          2    1    1    2  501    0 -0.64601184850E+01  0.80443680580E+02 -0.37930887948E+03  0.38779910383E+03  0.00000000000E+00 0. -1.
          1    1    1    2  502    0  0.31060314675E+02  0.72666245978E+02  0.63176663966E+03  0.63669004503E+03  0.00000000000E+00 0. -1.
         22    1    3    3    0    0 -0.46585520273E+02 -0.51351836753E+01 -0.25994107513E+01  0.46939724613E+02  0.00000000000E+00 0.  1.
         22    1    3    3    0    0  0.21985324083E+02 -0.14797474288E+03 -0.68675194889E+02  0.16460911700E+03  0.00000000000E+00 0.  1.
</event>
<event>
 7    1  0.2895750E-005  0.3591047E+03  0.7818608E-02  0.1213032E+00
          2   -1    0    0  502    0  0.00000000000E+00  0.00000000000E+00  0.16734830472E+04  0.16734830472E+04  0.00000000000E+00 0. -1.
          1   -1    0    0  501    0 -0.00000000000E+00 -0.00000000000E+00 -0.38006852727E+03  0.38006852727E+03  0.00000000000E+00 0. -1.
         25    2    1    2    0    0  0.42816630892E+02 -0.35593379022E+03  0.98713949513E+03  0.10576352608E+04  0.12500334023E+03 0.  0.
          2    1    1    2  501    0 -0.54388881519E+02 -0.62998819931E+01 -0.29164187586E+03  0.29673695877E+03  0.00000000000E+00 0. -1.
          1    1    1    2  502    0  0.11572250627E+02  0.36223367222E+03  0.59791690065E+03  0.69917935492E+03  0.00000000000E+00 0. -1.
         22    1    3    3    0    0  0.60515485798E+01 -0.32867116438E+03  0.91439935920E+03  0.97169313245E+03  0.00000000000E+00 0. -1.
         22    1    3    3    0    0  0.36765082312E+02 -0.27262625843E+02  0.72740135922E+02  0.85942128315E+02  0.00000000000E+00 0. -1.
</event>
<event>
 7    1  0.2895750E-005  0.5631226E+02  0.7818608E-02  0.1421851E+00
          2   -1    0    0  502    0  0.00000000000E+00  0.00000000000E+00  0.71853128429E+02  0.71853128429E+02  0.00000000000E+00 0. -1.
          1   -1    0    0  501    0 -0.00000000000E+00 -0.00000000000E+00 -0.18410468068E+04  0.18410468068E+04  0.00000000000E+00 0. -1.
         25    2    1    2    0    0  0.13655175339E+02 -0.10161780109E+03 -0.27158782073E+03  0.31606599353E+03  0.12500050634E+03 0.  0.
          2    1    1    2  501    0 -0.22195454201E+02  0.48128956313E+02 -0.15318396707E+04  0.15327562791E+04  0.00000000000E+00 0. -1.
          1    1    1    2  502    0  0.85402788620E+01  0.53488844781E+02  0.34233813053E+02  0.64077662529E+02  0.00000000000E+00 0. -1.
         22    1    3    3    0    0 -0.29959399505E+02 -0.55980512773E+02 -0.23429650788E+03  0.24274726988E+03  0.00000000000E+00 0.  1.
         22    1    3    3    0    0  0.43614574843E+02 -0.45637288321E+02 -0.37291312854E+02  0.73318723655E+02  0.00000000000E+00 0.  1.
</event>
<event>
 7    1  0.2895750E-005  0.1278448E+03  0.7818608E-02  0.1341294E+00
          2   -1    0    0  502    0  0.00000000000E+00  0.00000000000E+00  0.14301017933E+04  0.14301017933E+04  0.00000000000E+00 0. -1.
          1   -1    0    0  501    0 -0.00000000000E+00 -0.00000000000E+00 -0.76593882811E+03  0.76593882811E+03  0.00000000000E+00 0. -1.
         25    2    1    2    0    0  0.18163647222E+02 -0.16691929885E+03 -0.14549038889E+03  0.25489367219E+03  0.12494542991E+03 0.  0.
          2    1    1    2  501    0 -0.11808467879E+02  0.12238253448E+03 -0.55869268106E+03  0.57206156708E+03  0.00000000000E+00 0. -1.
          1    1    1    2  502    0 -0.63551793430E+01  0.44536764366E+02  0.13683460352E+04  0.13690853821E+04  0.00000000000E+00 0. -1.
         22    1    3    3    0    0  0.22553297096E+02 -0.17650525650E+03 -0.15839740336E+03  0.23822781990E+03  0.00000000000E+00 0. -1.
         22    1    3    3    0    0 -0.43896498740E+01  0.95859576534E+01  0.12907014470E+02  0.16665852294E+02  0.00000000000E+00 0. -1.
</event>
<event>
 7    1  0.2895750E-005  0.2173123E+03  0.7818608E-02  0.1181528E+00
          2   -1    0    0  502    0  0.00000000000E+00  0.00000000000E+00  0.11337478968E+04  0.11337478968E+04  0.00000000000E+00 0. -1.
          1   -1    0    0  501    0 -0.00000000000E+00 -0.00000000000E+00 -0.92349639162E+03  0.92349639162E+03  0.00000000000E+00 0. -1.
         25    2    1    2    0    0 -0.85355048169E+02 -0.17207776143E+03 -0.36467422398E+03  0.43070684349E+03  0.12499942068E+03 0.  0.
          2    1    1    2  501    0 -0.12200807377E+02  0.25431982050E+03 -0.49095321190E+03  0.55304835871E+03  0.00000000000E+00 0. -1.
          1    1    1    2  502    0  0.97555855546E+02 -0.82242059076E+02  0.10658789411E+04  0.10734890862E+04  0.00000000000E+00 0. -1.
         22    1    3    3    0    0 -0.10581250047E+03 -0.97683569937E+02 -0.28765360070E+03  0.32168767319E+03  0.00000000000E+00 0.  1.
         22    1    3    3    0    0  0.20457452298E+02 -0.74394191489E+02 -0.77020623281E+02  0.10901917030E+03  0.00000000000E+00 0.  1.
</event>
<event>
 7    1  0.2895750E-005  0.5304133E+03  0.7818608E-02  0.1045250E+00
          2   -1    0    0  502    0  0.00000000000E+00  0.00000000000E+00  0.24706220895E+04  0.24706220895E+04  0.00000000000E+00 0. -1.
          1   -1    0    0  501    0 -0.00000000000E+00 -0.00000000000E+00 -0.28353742259E+03  0.28353742259E+03  0.00000000000E+00 0. -1.
         25    2    1    2    0    0  0.25135905663E+03 -0.41097453557E+03  0.31615669074E+03  0.58962867076E+03  0.12500188816E+03 0.  0.
          2    1    1    2  501    0 -0.78014936298E+02  0.65007437072E+03  0.70650392027E+03  0.96323974540E+03  0.00000000000E+00 0. -1.
          1    1    1    2  502    0 -0.17334412033E+03 -0.23909983514E+03  0.11644240559E+04  0.12012910959E+04  0.00000000000E+00 0. -1.
         22    1    3    3    0    0  0.13263639249E+03 -0.27148716168E+03  0.13149079232E+03  0.32952620538E+03  0.00000000000E+00 0.  1.
         22    1    3    3    0    0  0.11872266414E+03 -0.13948737390E+03  0.18466589842E+03  0.26010246538E+03  0.00000000000E+00 0.  1.
</event>
<event>
 7    1  0.2895750E-005  0.1029516E+03  0.7818608E-02  0.1348751E+00
          2   -1    0    0  502    0  0.00000000000E+00  0.00000000000E+00  0.52636944440E+02  0.52636944440E+02  0.00000000000E+00 0. -1.
          1   -1    0    0  501    0 -0.00000000000E+00 -0.00000000000E+00 -0.27639425234E+04  0.27639425234E+04  0.00000000000E+00 0. -1.
         25    2    1    2    0    0  0.10920986928E+03  0.56333721031E+02 -0.12180658578E+04  0.12306132242E+04  0.12499675969E+03 0.  0.
          2    1    1    2  501    0 -0.61773012151E+02 -0.78587123603E+02 -0.15226175988E+04  0.15258952104E+04  0.00000000000E+00 0. -1.
          1    1    1    2  502    0 -0.47436857133E+02  0.22253402573E+02  0.29377877626E+02  0.60071033240E+02  0.00000000000E+00 0. -1.
         22    1    3    3    0    0  0.10775639164E+03 -0.39708393675E+01 -0.60015042654E+03  0.60976039719E+03  0.00000000000E+00 0.  1.
         22    1    3    3    0    0  0.14534776435E+01  0.60304560398E+02 -0.61791543125E+03  0.62085282698E+03  0.00000000000E+00 0.  1.
</event>
<event>
 7    1  0.2895750E-005  0.2220711E+03  0.7818608E-02  0.1181464E+00
          2   -1    0    0  502    0  0.00000000000E+00  0.00000000000E+00  0.87264518392E+03  0.87264518392E+03  0.00000000000E+00 0. -1.
          1   -1    0    0  501    0 -0.00000000000E+00 -0.00000000000E+00 -0.65792872050E+03  0.65792872050E+03  0.00000000000E+00 0. -1.
         25    2    1    2    0    0  0.13842004139E+03 -0.20969805793E+03  0.78911877844E+03  0.83753628177E+03  0.12500077372E+03 0.  0.
          2    1    1    2  501    0 -0.81061964451E+02  0.95089730792E+02 -0.54815656788E+03  0.56221768195E+03  0.00000000000E+00 0. -1.
          1    1    1    2  502    0 -0.57358076942E+02  0.11460832714E+03 -0.26245747134E+02  0.13081994070E+03  0.00000000000E+00 0. -1.
         22    1    3    3    0    0  0.72492034400E+02 -0.19767797165E+03  0.54103596298E+03  0.58056144271E+03  0.00000000000E+00 0. -1.
         22    1    3    3    0    0  0.65928006993E+02 -0.12020086280E+02  0.24808281547E+03  0.25697483906E+03  0.00000000000E+00 0. -1.
</event>
<event>
 7    1  0.2895750E-005  0.6619714E+03  0.7818608E-02  0.1193995E+00
          2   -1    0    0  502    0  0.00000000000E+00  0.00000000000E+00  0.20011816358E+04  0.20011816358E+04  0.00000000000E+00 0. -1.
          1   -1    0    0  501    0 -0.00000000000E+00 -0.00000000000E+00 -0.38390753795E+03  0.38390753795E+03  0.00000000000E+00 0. -1.
         25    2    1    2    0    0  0.55531993149E+03  0.34129026308E+03  0.10559857534E+04  0.12472325739E+04  0.12499564811E+03 0.  0.
          2    1    1    2  501    0  0.34939428472E+02 -0.10484926851E+02 -0.15104151126E+03  0.15538415452E+03  0.00000000000E+00 0. -1.
          1    1    1    2  502    0 -0.59025935996E+03 -0.33080533622E+03  0.71232985572E+03  0.98247244533E+03  0.00000000000E+00 0. -1.
         22    1    3    3    0    0  0.29225272153E+02  0.75509430550E+01  0.11344144143E+03  0.11738864471E+03  0.00000000000E+00 0.  1.
         22    1    3    3    0    0  0.52609465933E+03  0.33373932002E+03  0.94254431195E+03  0.11298439292E+04  0.00000000000E+00 0.  1.
</event>
<event>
 7    1  0.2895750E-005  0.4378014E+03  0.7818608E-02  0.1144983E+00
          2   -1    0    0  502    0  0.00000000000E+00  0.00000000000E+00  0.29713471137E+04  0.29713471137E+04  0.00000000000E+00 0. -1.
          1   -1    0    0  501    0 -0.00000000000E+00 -0.00000000000E+00 -0.17349560390E+04  0.17349560390E+04  0.00000000000E+00 0. -1.
         25    2    1    2    0    0  0.32639326139E+03  0.13703734406E+03  0.12088670667E+04  0.12658186155E+04  0.12500155059E+03 0.  0.
          2    1    1    2  501    0 -0.38367213443E+03 -0.21493234912E+03 -0.16767540639E+04  0.17334660113E+04  0.00000000000E+00 0. -1.
          1    1    1    2  502    0  0.57278873037E+02  0.77895005067E+02  0.17042780720E+04  0.17070185259E+04  0.00000000000E+00 0. -1.
         22    1    3    3    0    0  0.16613404174E+03  0.13155399786E+02  0.66164272772E+03  0.68230834930E+03  0.00000000000E+00 0.  1.
         22    1    3    3    0    0  0.16025921965E+03  0.12388194427E+03  0.54722433897E+03  0.58351026620E+03  0.00000000000E+00 0.  1.
</event>
<event>
 7    1  0.2895750E-005  0.1037512E+03  0.7818608E-02  0.1334680E+00
          2   -1    0    0  502    0  0.00000000000E+00  0.00000000000E+00  0.81689936721E+03  0.81689936721E+03  0.00000000000E+00 0. -1.
          1   -1    0    0  501    0 -0.00000000000E+00 -0.00000000000E+00 -0.19071292080E+04  0.19071292080E+04  0.00000000000E+00 0. -1.
         25    2    1    2    0    0 -0.13176072328E+03 -0.91370920986E+02  0.14443355672E+03  0.24939098169E+03  0.12500110415E+03 0.  0.
          2    1    1    2  501    0  0.90852456326E+02  0.49252855572E+02 -0.18518164325E+04  0.18546978494E+04  0.00000000000E+00 0. -1.
          1    1    1    2  502    0  0.40908266957E+02  0.42118065414E+02  0.61715303503E+03  0.61993974416E+03  0.00000000000E+00 0. -1.
         22    1    3    3    0    0 -0.64076364421E+02  0.14256568413E+02  0.11563284468E+02  0.66653880367E+02  0.00000000000E+00 0.  1.
         22    1    3    3    0    0 -0.67684358862E+02 -0.10562748940E+03  0.13287027225E+03  0.18273710132E+03  0.00000000000E+00 0.  1.
</event>
<event>
 7    1  0.2895750E-005  0.1834940E+03  0.7818608E-02  0.1337959E+00
          2   -1    0    0  502    0  0.00000000000E+00  0.00000000000E+00  0.14795538340E+04  0.14795538340E+04  0.00000000000E+00 0. -1.
          1   -1    0    0  501    0 -0.00000000000E+00 -0.00000000000E+00 -0.38143970794E+03  0.38143970794E+03  0.00000000000E+00 0. -1.
         25    2    1    2    0    0 -0.18786559884E+03 -0.69615734761E+02 -0.17085779977E+03  0.29147270505E+03  0.12499646514E+03 0.  0.
          2    1    1    2  501    0  0.88656804705E+01  0.31021364657E+02 -0.14255790449E+03  0.14616320156E+03  0.00000000000E+00 0. -1.
          1    1    1    2  502    0  0.17899991837E+03  0.38594370104E+02  0.14115298303E+04  0.14233576353E+04  0.00000000000E+00 0. -1.
         22    1    3    3    0    0 -0.10371144629E+01 -0.32320683521E+00 -0.66549092510E+02  0.66557958074E+02  0.00000000000E+00 0.  1.
         22    1    3    3    0    0 -0.18682848437E+03 -0.69292527926E+02 -0.10430870726E+03  0.22491474698E+03  0.00000000000E+00 0.  1.
</event>
<event>
 7    1  0.2895750E-005  0.9092571E+02  0.7818608E-02  0.1462972E+00
          2   -1    0    0  502    0  0.00000000000E+00  0.00000000000E+00  0.84510752354E+03  0.84510752354E+03  0.00000000000E+00 0. -1.
          1   -1    0    0  501    0 -0.00000000000E+00 -0.00000000000E+00 -0.58267248079E+03  0.58267248079E+03  0.00000000000E+00 0. -1.
         25    2    1    2    0    0  0.54457290356E+02 -0.54049153288E+02  0.84984055768E+02  0.16951977485E+03  0.12501102706E+03 0.  0.
          2    1    1    2  501    0 -0.48526338466E+02  0.77474222942E+02 -0.53633259154E+03  0.54406774348E+03  0.00000000000E+00 0. -1.
          1    1    1    2  502    0 -0.59309518903E+01 -0.23425069654E+02  0.71378357853E+03  0.71419248600E+03  0.00000000000E+00 0. -1.
         22    1    3    3    0    0  0.44331866827E+02  0.34265539214E+02  0.20346359325E+02  0.59610535409E+02  0.00000000000E+00 0.  1.
         22    1    3    3    0    0  0.10125423529E+02 -0.88314692502E+02  0.64637696443E+02  0.10990923944E+03  0.00000000000E+00 0.  1.
</event>
<event>
 7    1  0.2895750E-005  0.4603887E+03  0.7818608E-02  0.1056705E+00
          2   -1    0    0  502    0  0.00000000000E+00  0.00000000000E+00  0.10852118738E+04  0.10852118738E+04  0.00000000000E+00 0. -1.
          1   -1    0    0  501    0 -0.00000000000E+00 -0.00000000000E+00 -0.46141126943E+03  0.46141126943E+03  0.00000000000E+00 0. -1.
         25    2    1    2    0    0 -0.21648836970E+03 -0.55188209721E+03  0.14261919904E+03  0.62242079933E+03  0.12500540818E+03 0.  0.
          2    1    1    2  501    0  0.26095665803E+03  0.12426436621E+03  0.14095040973E+02  0.28937636438E+03  0.00000000000E+00 0. -1.
          1    1    1    2  502    0 -0.44468288335E+02  0.42761773100E+03  0.46708636438E+03  0.63482597956E+03  0.00000000000E+00 0. -1.
         22    1    3    3    0    0 -0.60593751087E+02 -0.16328819747E+03  0.10180050715E+03  0.20173740695E+03  0.00000000000E+00 0.  1.
         22    1    3    3    0    0 -0.15589461861E+03 -0.38859389973E+03  0.40818691889E+02  0.42068339238E+03  0.00000000000E+00 0.  1.
</event>
<event>
 7    1  0.2895750E-005  0.3622327E+02  0.7818608E-02  0.1554001E+00
          2   -1    0    0  502    0  0.00000000000E+00  0.00000000000E+00  0.44693617757E+03  0.44693617757E+03  0.00000000000E+00 0. -1.
          1   -1    0    0  501    0 -0.00000000000E+00 -0.00000000000E+00 -0.27558876163E+03  0.27558876163E+03  0.00000000000E+00 0. -1.
         25    2    1    2    0    0  0.16380276936E+02  0.11625904927E+01 -0.25289712453E+02  0.12858586410E+03  0.12500035921E+03 0.  0.
          2    1    1    2  501    0  0.22649502599E+01 -0.32588483479E+02 -0.19645487922E+03  0.19915235079E+03  0.00000000000E+00 0. -1.
          1    1    1    2  502    0 -0.18645227195E+02  0.31425892986E+02  0.39309200761E+03  0.39478672431E+03  0.00000000000E+00 0. -1.
         22    1    3    3    0    0 -0.18982863318E+02  0.56804953673E+02 -0.79772346415E+01  0.60421752160E+02  0.00000000000E+00 0.  1.
         22    1    3    3    0    0  0.35363140254E+02 -0.55642363180E+02 -0.17312477812E+02  0.68164111942E+02  0.00000000000E+00 0.  1.
</event>
<event>
 7    1  0.2895750E-005  0.4019623E+03  0.7818608E-02  0.1163699E+00
          2   -1    0    0  502    0  0.00000000000E+00  0.00000000000E+00  0.24594170973E+04  0.24594170973E+04  0.00000000000E+00 0. -1.
          1   -1    0    0  501    0 -0.00000000000E+00 -0.00000000000E+00 -0.13793426088E+04  0.13793426088E+04  0.00000000000E+00 0. -1.
         25    2    1    2    0    0 -0.59783639538E+02 -0.45090653098E+03  0.21583789282E+03  0.51875064694E+03  0.12500181797E+03 0.  0.
          2    1    1    2  501    0 -0.58448892688E+01  0.39766741023E+03 -0.11947923162E+04  0.12592466838E+04  0.00000000000E+00 0. -1.
          1    1    1    2  502    0  0.65628528807E+02  0.53239120750E+02  0.20590289119E+04  0.20607623754E+04  0.00000000000E+00 0. -1.
         22    1    3    3    0    0 -0.32452389721E+02 -0.41879926685E+03  0.22362623428E+03  0.47587254194E+03  0.00000000000E+00 0. -1.
         22    1    3    3    0    0 -0.27331249816E+02 -0.32107264129E+02 -0.77883414611E+01  0.42878105008E+02  0.00000000000E+00 0. -1.
</event>
<event>
 7    1  0.2895750E-005  0.1680602E+03  0.7818608E-02  0.1252435E+00
          2   -1    0    0  502    0  0.00000000000E+00  0.00000000000E+00  0.10542494105E+03  0.10542494105E+03  0.00000000000E+00 0. -1.
          1   -1    0    0  501    0 -0.00000000000E+00 -0.00000000000E+00 -0.12306877525E+04  0.12306877525E+04  0.00000000000E+00 0. -1.
         25    2    1    2    0    0 -0.47332306638E+01 -0.11856330184E+03 -0.90961040920E+03  0.92579447661E+03  0.12499862548E+03 0.  0.
          2    1    1    2  501    0  0.64342531088E+02 -0.44137375450E+02 -0.22363703773E+03  0.23685775027E+03  0.00000000000E+00 0. -1.
          1    1    1    2  502    0 -0.59609300425E+02  0.16270067729E+03  0.79846355013E+01  0.17346046666E+03  0.00000000000E+00 0. -1.
         22    1    3    3    0    0 -0.27989709498E+02  0.17805704674E+02 -0.21476643810E+03  0.21731334494E+03  0.00000000000E+00 0.  1.
         22    1    3    3    0    0  0.23256478834E+02 -0.13636900652E+03 -0.69484397110E+03  0.70848113166E+03  0.00000000000E+00 0.  1.
</event>
<event>
 7    1  0.2895750E-005  0.1103845E+03  0.7818608E-02  0.1298726E+00
          2   -1    0    0  502    0  0.00000000000E+00  0.00000000000E+00  0.22370288965E+03  0.22370288965E+03  0.00000000000E+00 0. -1.
          1   -1    0    0  501    0 -0.00000000000E+00 -0.00000000000E+00 -0.13214090036E+04  0.13214090036E+04  0.00000000000E+00 0. -1.
         25    2    1    2    0    0  0.93926168464E+02  0.94284881853E+02  0.63477443231E+02  0.19330299257E+03  0.12499958827E+03 0.  0.
          2    1    1    2  501    0 -0.19087962305E+02 -0.10873684059E+03 -0.12383993715E+04  0.12433105220E+04  0.00000000000E+00 0. -1.
          1    1    1    2  502    0 -0.74838206160E+02  0.14451958739E+02  0.77215814265E+02  0.10849837872E+03  0.00000000000E+00 0. -1.
         22    1    3    3    0    0  0.37684026145E+02  0.11324835250E+03  0.60657789003E+02  0.13388294341E+03  0.00000000000E+00 0.  1.
         22    1    3    3    0    0  0.56242142319E+02 -0.18963470646E+02  0.28196542281E+01  0.59420049155E+02  0.00000000000E+00 0.  1.
</event>
<event>
 7    1  0.2895750E-005  0.8175142E+02  0.7818608E-02  0.1503699E+00
          2   -1    0    0  502    0  0.00000000000E+00  0.00000000000E+00  0.13356244052E+04  0.13356244052E+04  0.00000000000E+00 0. -1.
          1   -1    0    0  501    0 -0.00000000000E+00 -0.00000000000E+00 -0.72422335432E+03  0.72422335432E+03  0.00000000000E+00 0. -1.
         25    2    1    2    0    0 -0.73894662111E+02  0.56045364072E+02  0.37114222661E+02  0.16001146571E+03  0.12499879884E+03 0.  0.
          2    1    1    2  501    0  0.19602998175E+02  0.48025745802E+01 -0.66127668106E+03  0.66158460620E+03  0.00000000000E+00 0. -1.
          1    1    1    2  502    0  0.54291663936E+02 -0.60847938652E+02  0.12355635093E+04  0.12382516876E+04  0.00000000000E+00 0. -1.
         22    1    3    3    0    0 -0.31545878050E+02  0.89816783312E+02  0.15395371869E+01  0.95208020467E+02  0.00000000000E+00 0. -1.
         22    1    3    3    0    0 -0.42348784060E+02 -0.33771419240E+02  0.35574685474E+02  0.64803445243E+02  0.00000000000E+00 0. -1.
</event>
<event>
 7    1  0.2895750E-005  0.7579825E+02  0.7818608E-02  0.1356084E+00
          2   -1    0    0  502    0  0.00000000000E+00  0.00000000000E+00  0.59500680711E+03  0.59500680711E+03  0.00000000000E+00 0. -1.
          1   -1    0    0  501    0 -0.00000000000E+00 -0.00000000000E+00 -0.14630766791E+03  0.14630766791E+03  0.00000000000E+00 0. -1.
         25    2    1    2    0    0 -0.13027503968E+03 -0.28394905323E+02  0.11977082793E+03  0.21851232316E+03  0.12499891015E+03 0.  0.
          2    1    1    2  501    0  0.63551240427E+02  0.32766158019E+02 -0.80661636543E+02  0.10778998507E+03  0.00000000000E+00 0. -1.
          1    1    1    2  502    0  0.66723799255E+02 -0.43712526964E+01  0.40958994781E+03  0.41501216679E+03  0.00000000000E+00 0. -1.
         22    1    3    3    0    0 -0.33965656443E+02  0.89784282221E+01  0.10914579002E+03  0.11466072331E+03  0.00000000000E+00 0. -1.
         22    1    3    3    0    0 -0.96309383239E+02 -0.37373333545E+02  0.10625037901E+02  0.10385159985E+03  0.00000000000E+00 0. -1.
</event>
<event>
 7    1  0.2895750E-005  0.3328177E+03  0.7818608E-02  0.1133621E+00
          2   -1    0    0  502    0  0.00000000000E+00  0.00000000000E+00  0.85024501904E+03  0.85024501904E+03  0.00000000000E+00 0. -1.
          1   -1    0    0  501    0 -0.00000000000E+00 -0.00000000000E+00 -0.25409174101E+03  0.25409174101E+03  0.00000000000E+00 0. -1.
         25    2    1    2    0    0 -0.36430173243E+03  0.17433924410E+02  0.15534725581E+02  0.38585801937E+03  0.12500155776E+03 0.  0.
          2    1    1    2  501    0  0.25318723322E+03 -0.11197308639E+03  0.39599500586E+03  0.48317056181E+03  0.00000000000E+00 0. -1.
          1    1    1    2  502    0  0.11111449921E+03  0.94539161976E+02  0.18462354660E+03  0.23530817886E+03  0.00000000000E+00 0. -1.
         22    1    3    3    0    0 -0.30264223129E+03  0.28537203514E+02  0.58932094596E+02  0.30964444759E+03  0.00000000000E+00 0. -1.
         22    1    3    3    0    0 -0.61659501138E+02 -0.11103279103E+02 -0.43397369014E+02  0.76213571789E+02  0.00000000000E+00 0. -1.
</event>
<event>
 7    1  0.4936106E-005  0.1661293E+03  0.7818608E-02  0.1212751E+00
          2   -1    0    0  502    0  0.00000000000E+00  0.00000000000E+00  0.16753462008E+04  0.16753462008E+04  0.00000000000E+00 0. -1.
          1   -1    0    0  501    0 -0.00000000000E+00 -0.00000000000E+00 -0.20608739788E+04  0.20608739788E+04  0.00000000000E+00 0. -1.
         25    2    1    2    0    0 -0.65270808693E+02 -0.24903857736E+03 -0.53933314980E+03  0.61056194771E+03  0.12500061614E+03 0.  0.
          2    1    1    2  501    0 -0.31278252489E+02  0.11451185331E+03 -0.14793624351E+04  0.14841174172E+04  0.00000000000E+00 0. -1.
          1    1    1    2  502    0  0.96549061182E+02  0.13452672405E+03  0.16331678069E+04  0.16415408146E+04  0.00000000000E+00 0. -1.
         22    1    3    3    0    0 -0.20036516167E+02 -0.23108972141E+03 -0.39298363229E+03  0.45633327357E+03  0.00000000000E+00 0.  1.
         22    1    3    3    0    0 -0.45234292526E+02 -0.17948855948E+02 -0.14634951751E+03  0.15422867414E+03  0.00000000000E+00 0.  1.
</event>
<event>
 7    1  0.2895750E-005  0.7277420E+02  0.7818608E-02  0.1404918E+00
          2   -1    0    0  502    0  0.00000000000E+00  0.00000000000E+00  0.16511531285E+04  0.16511531285E+04  0.00000000000E+00 0. -1.
          1   -1    0    0  501    0 -0.00000000000E+00 -0.00000000000E+00 -0.52519856790E+03  0.52519856790E+03  0.00000000000E+00 0. -1.
         25    2    1    2    0    0 -0.64081591884E+02  0.90002502751E+02  0.16782874844E+03  0.23663905920E+03  0.12499861845E+03 0.  0.
          2    1    1    2  501    0  0.70074631577E+01 -0.46246451763E+02 -0.48878385533E+03  0.49101679816E+03  0.00000000000E+00 0. -1.
          1    1    1    2  502    0  0.57074128726E+02 -0.43756050988E+02  0.14469096675E+04  0.14486958390E+04  0.00000000000E+00 0. -1.
         22    1    3    3    0    0 -0.25435689883E+02  0.10758426524E+03  0.72281066242E+02  0.13208293222E+03  0.00000000000E+00 0.  1.
         22    1    3    3    0    0 -0.38645902001E+02 -0.17581762493E+02  0.95547682197E+02  0.10455612697E+03  0.00000000000E+00 0.  1.
</event>
<event>
 7    1  0.2895750E-005  0.1431108E+03  0.7818608E-02  0.1262317E+00
          2   -1    0    0  502    0  0.00000000000E+00  0.00000000000E+00  0.80363220376E+02  0.80363220376E+02  0.00000000000E+00 0. -1.
          1   -1    0    0  501    0 -0.00000000000E+00 -0.00000000000E+00 -0.13008806114E+04  0.13008806114E+04  0.00000000000E+00 0. -1.
         25    2    1    2    0    0 -0.53781850878E+02 -0.19841601199E+03 -0.41026238761E+03  0.47560690373E+03  0.12500119557E+03 0.  0.
          2    1    1    2  501    0 -0.70925152146E+01  0.82810928042E+02 -0.76174969112E+03  0.76627054328E+03  0.00000000000E+00 0. -1.
          1    1    1    2  502    0  0.60874366093E+02  0.11560508395E+03 -0.48505312297E+02  0.13936638477E+03  0.00000000000E+00 0. -1.
         22    1    3    3    0    0 -0.87436129227E+02 -0.12647143421E+03 -0.21082592633E+03  0.26093614463E+03  0.00000000000E+00 0. -1.
         22    1    3    3    0    0  0.33654278349E+02 -0.71944577785E+02 -0.19943646128E+03  0.21467075910E+03  0.00000000000E+00 0. -1.
</event>
<event>
 7    1  0.2895750E-005  0.5513684E+03  0.7818608E-02  0.1176380E+00
          2   -1    0    0  502    0  0.00000000000E+00  0.00000000000E+00  0.43638973289E+03  0.43638973289E+03  0.00000000000E+00 0. -1.
          1   -1    0    0  501    0 -0.00000000000E+00 -0.00000000000E+00 -0.14561592906E+04  0.14561592906E+04  0.00000000000E+00 0. -1.
         25    2    1    2    0    0  0.33922604423E+03  0.39513540945E+03 -0.14843645032E+03  0.55575602728E+03  0.12500032476E+03 0.  0.
          2    1    1    2  501    0 -0.39186476222E+03 -0.40345125237E+03 -0.10277316203E+04  0.11715644191E+04  0.00000000000E+00 0. -1.
          1    1    1    2  502    0  0.52638717992E+02  0.83158429134E+01  0.15639851284E+03  0.16522857711E+03  0.00000000000E+00 0. -1.
         22    1    3    3    0    0  0.13128507830E+03  0.20875713734E+03 -0.12237093019E+03  0.27529976159E+03  0.00000000000E+00 0. -1.
         22    1    3    3    0    0  0.20794096592E+03  0.18637827211E+03 -0.26065520124E+02  0.28045626569E+03  0.00000000000E+00 0. -1.
</event>
<event>
 7    1  0.2895750E-005  0.1313449E+03  0.7818608E-02  0.1241357E+00
          2   -1    0    0  502    0  0.00000000000E+00  0.00000000000E+00  0.33021312741E+03  0.33021312741E+03  0.00000000000E+00 0. -1.
          1   -1    0    0  501    0 -0.00000000000E+00 -0.00000000000E+00 -0.58183612700E+03  0.58183612700E+03  0.00000000000E+00 0. -1.
         25    2    1    2    0    0 -0.94637761208E+02  0.35443702343E+02 -0.23467371915E+03  0.28444406100E+03  0.12499642993E+03 0.  0.
          2    1    1    2  501    0  0.10943284487E+03  0.95065258999E+02 -0.29022011266E+03  0.32440817622E+03  0.00000000000E+00 0. -1.
          1    1    1    2  502    0 -0.14795083662E+02 -0.13050896134E+03  0.27327083222E+03  0.30319701719E+03  0.00000000000E+00 0. -1.
         22    1    3    3    0    0  0.96406119288E+01  0.53947530693E+02 -0.82569872312E+02  0.99101267802E+02  0.00000000000E+00 0. -1.
         22    1    3    3    0    0 -0.10427837314E+03 -0.18503828350E+02 -0.15210384683E+03  0.18534279320E+03  0.00000000000E+00 0. -1.
</event>
<event>
 7    1  0.2895750E-005  0.4795417E+03  0.7818608E-02  0.1149632E+00
          2   -1    0    0  502    0  0.00000000000E+00  0.00000000000E+00  0.88309896020E+03  0.88309896020E+03  0.00000000000E+00 0. -1.
          1   -1    0    0  501    0 -0.00000000000E+00 -0.00000000000E+00 -0.32379271147E+03  0.32379271147E+03  0.00000000000E+00 0. -1.
         25    2    1    2    0    0  0.33538144606E+03  0.29035359504E+03  0.30050776123E+03  0.55019649574E+03  0.12500137940E+03 0.  0.
          2    1    1    2  501    0 -0.41885607464E+03 -0.29307297118E+03  0.18028230850E+03  0.54206446892E+03  0.00000000000E+00 0. -1.
          1    1    1    2  502    0  0.83474628584E+02  0.27193761362E+01  0.78516178997E+02  0.11463070700E+03  0.00000000000E+00 0. -1.
         22    1    3    3    0    0  0.83677515675E+02  0.15195204774E+03  0.12035228126E+03  0.21113034611E+03  0.00000000000E+00 0.  1.
         22    1    3    3    0    0  0.25170393038E+03  0.13840154731E+03  0.18015547997E+03  0.33906614964E+03  0.00000000000E+00 0.  1.
</event>
<event>
 7    1  0.2895750E-005  0.1973271E+03  0.7818608E-02  0.1229996E+00
          2   -1    0    0  502    0  0.00000000000E+00  0.00000000000E+00  0.30539062942E+04  0.30539062942E+04  0.00000000000E+00 0. -1.
          1   -1    0    0  501    0 -0.00000000000E+00 -0.00000000000E+00 -0.69845428944E+03  0.69845428944E+03  0.00000000000E+00 0. -1.
         25    2    1    2    0    0  0.23721629572E+03  0.51942008263E+02  0.16487830012E+04  0.16712509562E+04  0.12499932184E+03 0.  0.
          2    1    1    2  501    0 -0.16943951556E+03 -0.10057988172E+03 -0.67180904590E+03  0.70010960298E+03  0.00000000000E+00 0. -1.
          1    1    1    2  502    0 -0.67776780158E+02  0.48637873461E+02  0.13784780494E+04  0.13810000244E+04  0.00000000000E+00 0. -1.
         22    1    3    3    0    0  0.31942069428E+02  0.47073657689E+02  0.59038577089E+03  0.59312021000E+03  0.00000000000E+00 0. -1.
         22    1    3    3    0    0  0.20527422629E+03  0.48683505736E+01  0.10583972303E+04  0.10781307462E+04  0.00000000000E+00 0. -1.
</event>
<event>
 7    1  0.2895750E-005  0.7934261E+02  0.7818608E-02  0.1364981E+00
          2   -1    0    0  502    0  0.00000000000E+00  0.00000000000E+00  0.44822662146E+02  0.44822662146E+02  0.00000000000E+00 0. -1.
          1   -1    0    0  501    0 -0.00000000000E+00 -0.00000000000E+00 -0.23177135925E+04  0.23177135925E+04  0.00000000000E+00 0. -1.
         25    2    1    2    0    0  0.65118200541E+02  0.15908914054E+01 -0.53925804310E+03  0.55737577184E+03  0.12500241200E+03 0.  0.
          2    1    1    2  501    0 -0.56812817302E+02 -0.60287752547E+02 -0.17431522516E+04  0.17451195035E+04  0.00000000000E+00 0. -1.
          1    1    1    2  502    0 -0.83053832396E+01  0.58696861141E+02  0.95193643267E+01  0.60040979304E+02  0.00000000000E+00 0. -1.
         22    1    3    3    0    0 -0.49392256811E+00  0.20102189321E+02 -0.78079759696E+01  0.21570963440E+02  0.00000000000E+00 0. -1.
         22    1    3    3    0    0  0.65612123109E+02 -0.18511297915E+02 -0.53145006713E+03  0.53580480840E+03  0.00000000000E+00 0. -1.
</event>
<event>
 7    1  0.2895750E-005  0.2853239E+03  0.7818608E-02  0.1225934E+00
          2   -1    0    0  502    0  0.00000000000E+00  0.00000000000E+00  0.27248004361E+04  0.27248004361E+04  0.00000000000E+00 0. -1.
          1   -1    0    0  501    0 -0.00000000000E+00 -0.00000000000E+00 -0.46679647930E+03  0.46679647930E+03  0.00000000000E+00 0. -1.
         25    2    1    2    0    0 -0.18153292338E+03  0.28998540826E+03 -0.38159973052E+02  0.36623667861E+03  0.12500952740E+03 0.  0.
          2    1    1    2  501    0  0.22243151017E+02 -0.55911938794E+02 -0.25323566052E+03  0.26028676959E+03  0.00000000000E+00 0. -1.
          1    1    1    2  502    0  0.15928977236E+03 -0.23407346946E+03  0.25493995904E+04  0.25650734672E+04  0.00000000000E+00 0. -1.
         22    1    3    3    0    0 -0.23246487576E+02  0.10153290934E+03 -0.58195495509E+02  0.11931490503E+03  0.00000000000E+00 0.  1.
         22    1    3    3    0    0 -0.15828643580E+03  0.18845249892E+03  0.20035522457E+02  0.24692177358E+03  0.00000000000E+00 0.  1.
</event>
<event>
 7    1  0.2895750E-005  0.2643064E+03  0.7818608E-02  0.1171156E+00
          2   -1    0    0  502    0  0.00000000000E+00  0.00000000000E+00  0.26517551844E+03  0.26517551844E+03  0.00000000000E+00 0. -1.
          1   -1    0    0  501    0 -0.00000000000E+00 -0.00000000000E+00 -0.13260748777E+04  0.13260748777E+04  0.00000000000E+00 0. -1.
         25    2    1    2    0    0 -0.20825985341E+03  0.14303106680E+03 -0.20530199696E+03  0.34871672311E+03  0.12499756162E+03 0.  0.
          2    1    1    2  501    0  0.70067162418E+02  0.94907123717E+02 -0.94567664019E+03  0.95300633638E+03  0.00000000000E+00 0. -1.
          1    1    1    2  502    0  0.13819269099E+03 -0.23793819052E+03  0.90079277907E+02  0.28952733664E+03  0.00000000000E+00 0. -1.
         22    1    3    3    0    0 -0.21263907728E+03  0.12057353412E+03 -0.14498940893E+03  0.28420992773E+03  0.00000000000E+00 0.  1.
         22    1    3    3    0    0  0.43792238760E+01  0.22457532679E+02 -0.60312588025E+02  0.64506795379E+02  0.00000000000E+00 0.  1.
</event>
<event>
 7    1  0.2895750E-005  0.1916634E+03  0.7818608E-02  0.1227950E+00
          2   -1    0    0  502    0  0.00000000000E+00  0.00000000000E+00  0.11390013167E+04  0.11390013167E+04  0.00000000000E+00 0. -1.
          1   -1    0    0  501    0 -0.00000000000E+00 -0.00000000000E+00 -0.39145060094E+03  0.39145060094E+03  0.00000000000E+00 0. -1.
         25    2    1    2    0    0 -0.24039196832E+03 -0.13477977498E+03 -0.80431127299E+02  0.31312629155E+03  0.12500008817E+03 0.  0.
          2    1    1    2  501    0  0.75047150722E+02  0.45426565690E+02 -0.17560205024E+03  0.19629500185E+03  0.00000000000E+00 0. -1.
          1    1    1    2  502    0  0.16534481760E+03  0.89353209294E+02  0.10035838933E+04  0.10210306242E+04  0.00000000000E+00 0. -1.
         22    1    3    3    0    0 -0.74390288902E+02 -0.85276409891E+02  0.16916971834E+02  0.11442099940E+03  0.00000000000E+00 0. -1.
         22    1    3    3    0    0 -0.16600167942E+03 -0.49503365093E+02 -0.97348099132E+02  0.19870529215E+03  0.00000000000E+00 0. -1.
</event>
<event>
 7    1  0.2895750E-005  0.3589490E+02  0.7818608E-02  0.1565350E+00
          2   -1    0    0  502    0  0.00000000000E+00  0.00000000000E+00  0.68075132516E+03  0.68075132516E+03  0.00000000000E+00 0. -1.
          1   -1    0    0  501    0 -0.00000000000E+00 -0.00000000000E+00 -0.61699947219E+02  0.61699947219E+02  0.00000000000E+00 0. -1.
         25    2    1    2    0    0  0.40303938885E+02  0.88975274297E+01  0.55131788335E+02  0.14271753768E+03  0.12500083196E+03 0.  0.
          2    1    1    2  501    0 -0.19423943805E+02 -0.31371796804E+02  0.19735286569E+01  0.36950968093E+02  0.00000000000E+00 0. -1.
          1    1    1    2  502    0 -0.20879995080E+02  0.22474269374E+02  0.56194606094E+03  0.56278276661E+03  0.00000000000E+00 0. -1.
         22    1    3    3    0    0  0.68463892910E+02  0.47742959268E+02  0.31262327502E+02  0.89129276407E+02  0.00000000000E+00 0. -1.
         22    1    3    3    0    0 -0.28159954025E+02 -0.38845431838E+02  0.23869460833E+02  0.53588261269E+02  0.00000000000E+00 0. -1.
</event>
<event>
 7    1  0.2895750E-005  0.3440967E+03  0.7818608E-02  0.1146805E+00
          2   -1    0    0  502    0  0.00000000000E+00  0.00000000000E+00  0.33881295817E+03  0.33881295817E+03  0.00000000000E+00 0. -1.
          1   -1    0    0  501    0 -0.00000000000E+00 -0.00000000000E+00 -0.12795025027E+04  0.12795025027E+04  0.00000000000E+00 0. -1.
         25    2    1    2    0    0  0.26880567979E+03  0.28561140533E+03 -0.92646691556E+03  0.10138029451E+04  0.12500039023E+03 0.  0.
          2    1    1    2  501    0  0.27248725022E+02 -0.11724632059E+03 -0.18717107167E+03  0.22253584605E+03  0.00000000000E+00 0. -1.
          1    1    1    2  502    0 -0.29605440481E+03 -0.16836508474E+03  0.17294844269E+03  0.38197666970E+03  0.00000000000E+00 0. -1.
         22    1    3    3    0    0  0.50884269051E+02  0.74302575357E+02 -0.36043834084E+03  0.37151834287E+03  0.00000000000E+00 0. -1.
         22    1    3    3    0    0  0.21792141074E+03  0.21130882997E+03 -0.56602857472E+03  0.64228460225E+03  0.00000000000E+00 0. -1.
</event>
<event>
 7    1  0.2895750E-005  0.1723357E+03  0.7818608E-02  0.1375498E+00
          2   -1    0    0  502    0  0.00000000000E+00  0.00000000000E+00  0.14289633241E+04  0.14289633241E+04  0.00000000000E+00 0. -1.
          1   -1    0    0  501    0 -0.00000000000E+00 -0.00000000000E+00 -0.17588167627E+03  0.17588167627E+03  0.00000000000E+00 0. -1.
         25    2    1    2    0    0  0.34694411851E+02 -0.16811615692E+03  0.26570582574E+03  0.34013416728E+03  0.12499968594E+03 0.  0.
          2    1    1    2  501    0 -0.24642159999E+02 -0.43213395050E+01 -0.13085139793E+03  0.13322161373E+03  0.00000000000E+00 0. -1.
          1    1    1    2  502    0 -0.10052251852E+02  0.17243749643E+03  0.11182272200E+04  0.11314892194E+04  0.00000000000E+00 0. -1.
         22    1    3    3    0    0  0.78732810615E+02 -0.76603552202E+02  0.15399597194E+03  0.18916056420E+03  0.00000000000E+00 0.  1.
         22    1    3    3    0    0 -0.44038398764E+02 -0.91512604720E+02  0.11170985380E+03  0.15097360307E+03  0.00000000000E+00 0.  1.
</event>
<event>
 7    1  0.2895750E-005  0.1642067E+03  0.7818608E-02  0.1363551E+00
          2   -1    0    0  502    0  0.00000000000E+00  0.00000000000E+00  0.93073266974E+03  0.93073266974E+03  0.00000000000E+00 0. -1.
          1   -1    0    0  501    0 -0.00000000000E+00 -0.00000000000E+00 -0.76282990767E+03  0.76282990767E+03  0.00000000000E+00 0. -1.
         25    2    1    2    0    0  0.59325608648E+02 -0.15761200619E+03 -0.58416107959E+03  0.62066933746E+03  0.12500074889E+03 0.  0.
          2    1    1    2  501    0 -0.78428524001E+02  0.13580855052E+03 -0.12178651254E+03  0.19856220790E+03  0.00000000000E+00 0. -1.
          1    1    1    2  502    0  0.19102915353E+02  0.21803455671E+02  0.87385035420E+03  0.87433103204E+03  0.00000000000E+00 0. -1.
         22    1    3    3    0    0 -0.31487498108E+02 -0.36098965884E+02 -0.71719229085E+02  0.86245264772E+02  0.00000000000E+00 0. -1.
         22    1    3    3    0    0  0.90813106755E+02 -0.12151304030E+03 -0.51244185051E+03  0.53442407269E+03  0.00000000000E+00 0. -1.
</event>
<event>
 7    1  0.2895750E-005  0.1514360E+03  0.7818608E-02  0.1201245E+00
          2   -1    0    0  502    0  0.00000000000E+00  0.00000000000E+00  0.85907147888E+03  0.85907147888E+03  0.00000000000E+00 0. -1.
          1   -1    0    0  501    0 -0.00000000000E+00 -0.00000000000E+00 -0.16520242898E+03  0.16520242898E+03  0.00000000000E+00 0. -1.
         25    2    1    2    0    0 -0.17770861243E+01 -0.75425219829E+01 -0.69780550974E+02  0.14336754463E+03  0.12499951954E+03 0.  0.
          2    1    1    2  501    0 -0.82636240114E+01 -0.15121033124E+03  0.65724933253E+02  0.16508367154E+03  0.00000000000E+00 0. -1.
          1    1    1    2  502    0  0.10040710136E+02  0.15875285323E+03  0.69792466762E+03  0.71582269169E+03  0.00000000000E+00 0. -1.
         22    1    3    3    0    0  0.51707540417E+02 -0.26938037526E+02 -0.71275191014E+01  0.58737799841E+02  0.00000000000E+00 0. -1.
         22    1    3    3    0    0 -0.53484626541E+02  0.19395515543E+02 -0.62653031873E+02  0.84629744784E+02  0.00000000000E+00 0. -1.
</event>
<event>
 7    1  0.2895750E-005  0.9447711E+03  0.7818608E-02  0.1195100E+00
          2   -1    0    0  502    0  0.00000000000E+00  0.00000000000E+00  0.31669803706E+04  0.31669803706E+04  0.00000000000E+00 0. -1.
          1   -1    0    0  501    0 -0.00000000000E+00 -0.00000000000E+00 -0.31285922561E+03  0.31285922561E+03  0.00000000000E+00 0. -1.
         25    2    1    2    0    0  0.72543122608E+02  0.94457881999E+03  0.14642076471E+04  0.17484337871E+04  0.12500008977E+03 0.  0.
          2    1    1    2  501    0 -0.47465807163E+02 -0.94161631629E+03  0.11361598571E+04  0.14763988319E+04  0.00000000000E+00 0. -1.
          1    1    1    2  502    0 -0.25077315446E+02 -0.29625036944E+01  0.25375364083E+03  0.25500697718E+03  0.00000000000E+00 0. -1.
         22    1    3    3    0    0 -0.84893335140E+01  0.22573270859E+03  0.26801625254E+03  0.35051395997E+03  0.00000000000E+00 0.  1.
         22    1    3    3    0    0  0.81032456122E+02  0.71884611140E+03  0.11961913945E+04  0.13979198272E+04  0.00000000000E+00 0.  1.
</event>
<event>
 7    1  0.2895750E-005  0.3995561E+02  0.7818608E-02  0.1535788E+00
          2   -1    0    0  502    0  0.00000000000E+00  0.00000000000E+00  0.10137663750E+04  0.10137663750E+04  0.00000000000E+00 0. -1.
          1   -1    0    0  501    0 -0.00000000000E+00 -0.00000000000E+00 -0.24452503541E+04  0.24452503541E+04  0.00000000000E+00 0. -1.
         25    2    1    2    0    0 -0.60447392040E+02  0.17475385529E+02  0.57677752182E+03  0.59351231803E+03  0.12500114268E+03 0.  0.
          2    1    1    2  501    0  0.39117457454E+02  0.81193857569E+01 -0.24360714625E+04  0.24363990375E+04  0.00000000000E+00 0. -1.
          1    1    1    2  502    0  0.21329934585E+02 -0.25594771286E+02  0.42780996158E+03  0.42910537360E+03  0.00000000000E+00 0. -1.
         22    1    3    3    0    0 -0.54630229236E+02 -0.13371980748E+02  0.54814983168E+03  0.55102768513E+03  0.00000000000E+00 0.  1.
         22    1    3    3    0    0 -0.58171628034E+01  0.30847366277E+02  0.28627690142E+02  0.42484632894E+02  0.00000000000E+00 0.  1.
</event>
<event>
 7    1  0.2895750E-005  0.3322254E+03  0.7818608E-02  0.1215398E+00
          2   -1    0    0  502    0  0.00000000000E+00  0.00000000000E+00  0.39148936380E+04  0.39148936380E+04  0.00000000000E+00 0. -1.
          1   -1    0    0  501    0 -0.00000000000E+00 -0.00000000000E+00 -0.22115596422E+04  0.22115596422E+04  0.00000000000E+00 0. -1.
         25    2    1    2    0    0  0.82818644946E+02 -0.36153281592E+03  0.13193143365E+04  0.13761466158E+04  0.12499713976E+03 0.  0.
          2    1    1    2  501    0 -0.34571276245E+02  0.46217058250E+02 -0.21728498402E+04  0.21736162535E+04  0.00000000000E+00 0. -1.
          1    1    1    2  502    0 -0.48247368701E+02  0.31531575767E+03  0.25568694996E+04  0.25766904109E+04  0.00000000000E+00 0. -1.
         22    1    3    3    0    0  0.34145536245E+02 -0.33058874109E+03  0.11619414502E+04  0.12085374496E+04  0.00000000000E+00 0. -1.
         22    1    3    3    0    0  0.48673108700E+02 -0.30944074833E+02  0.15737288623E+03  0.16760916621E+03  0.00000000000E+00 0. -1.
</event>
<event>
 7    1  0.2895750E-005  0.6466284E+03  0.7818608E-02  0.1205929E+00
          2   -1    0    0  502    0  0.00000000000E+00  0.00000000000E+00  0.29998206456E+04  0.29998206456E+04  0.00000000000E+00 0. -1.
          1   -1    0    0  501    0 -0.00000000000E+00 -0.00000000000E+00 -0.10883217001E+04  0.10883217001E+04  0.00000000000E+00 0. -1.
         25    2    1    2    0    0  0.52996435588E+03 -0.39751052692E+03  0.10815938474E+04  0.12744986446E+04  0.12499882741E+03 0.  0.
          2    1    1    2  501    0 -0.49919025443E+03  0.40887250292E+03 -0.88675082638E+03  0.10966743645E+04  0.00000000000E+00 0. -1.
          1    1    1    2  502    0 -0.30774101453E+02 -0.11361976002E+02  0.17166559245E+04  0.17169693366E+04  0.00000000000E+00 0. -1.
         22    1    3    3    0    0  0.38910944676E+03 -0.22311232787E+03  0.68093074448E+03  0.81538454191E+03  0.00000000000E+00 0. -1.
         22    1    3    3    0    0  0.14085490913E+03 -0.17439819905E+03  0.40066310294E+03  0.45911410271E+03  0.00000000000E+00 0. -1.
</event>
<event>
 7    1  0.2895750E-005  0.2113162E+03  0.7818608E-02  0.1183751E+00
          2   -1    0    0  502    0  0.00000000000E+00  0.00000000000E+00  0.15939620548E+04  0.15939620548E+04  0.00000000000E+00 0. -1.
          1   -1    0    0  501    0 -0.00000000000E+00 -0.00000000000E+00 -0.15212584781E+04  0.15212584781E+04  0.00000000000E+00 0. -1.
         25    2    1    2    0    0  0.12132532881E+03 -0.29103967684E+03 -0.68042842738E+03  0.76029321126E+03  0.12505596102E+03 0.  0.
          2    1    1    2  501    0 -0.98372608090E+02  0.81885842582E+02 -0.78859195976E+03  0.79891159726E+03  0.00000000000E+00 0. -1.
          1    1    1    2  502    0 -0.22952720716E+02  0.20915383426E+03  0.15417239638E+04  0.15560157243E+04  0.00000000000E+00 0. -1.
         22    1    3    3    0    0  0.12610941264E+03 -0.14215470024E+03 -0.36788057374E+03  0.41406238574E+03  0.00000000000E+00 0.  1.
         22    1    3    3    0    0 -0.47840838322E+01 -0.14888497660E+03 -0.31254785365E+03  0.34623082551E+03  0.00000000000E+00 0.  1.
</event>
<event>
 7    1  0.2895750E-005  0.1220924E+03  0.7818608E-02  0.1275332E+00
          2   -1    0    0  502    0  0.00000000000E+00  0.00000000000E+00  0.11178928628E+04  0.11178928628E+04  0.00000000000E+00 0. -1.
          1   -1    0    0  501    0 -0.00000000000E+00 -0.00000000000E+00 -0.56834454626E+03  0.56834454626E+03  0.00000000000E+00 0. -1.
         25    2    1    2    0    0 -0.16260958293E+03  0.18355594959E+02  0.80491086117E+03  0.83083412889E+03  0.12500020390E+03 0.  0.
          2    1    1    2  501    0  0.78118456843E+02  0.35679094205E+02 -0.54353468149E+03  0.55027760362E+03  0.00000000000E+00 0. -1.
          1    1    1    2  502    0  0.84491126089E+02 -0.54034689164E+02  0.28817213682E+03  0.30512567650E+03  0.00000000000E+00 0. -1.
         22    1    3    3    0    0  0.99560894934E+01 -0.24205728315E+02  0.14834672731E+03  0.15063795174E+03  0.00000000000E+00 0. -1.
         22    1    3    3    0    0 -0.17256567243E+03  0.42561323275E+02  0.65656413386E+03  0.68019617715E+03  0.00000000000E+00 0. -1.
</event>
<event>
 7    1  0.2895750E-005  0.8408094E+02  0.7818608E-02  0.1319012E+00
          2   -1    0    0  502    0  0.00000000000E+00  0.00000000000E+00  0.21996505256E+04  0.21996505256E+04  0.00000000000E+00 0. -1.
          1   -1    0    0  501    0 -0.00000000000E+00 -0.00000000000E+00 -0.28955032276E+03  0.28955032276E+03  0.00000000000E+00 0. -1.
         25    2    1    2    0    0  0.47742470543E+02  0.75207024291E+02  0.19206381215E+03  0.24586734551E+03  0.12500721441E+03 0.  0.
          2    1    1    2  501    0  0.37511428980E+02 -0.74278924568E+02 -0.25511380330E+03  0.26834216697E+03  0.00000000000E+00 0. -1.
          1    1    1    2  502    0 -0.85253899523E+02 -0.92809972329E+00  0.19731501940E+04  0.19749913359E+04  0.00000000000E+00 0. -1.
         22    1    3    3    0    0  0.42334835968E+02 -0.22536852647E+02  0.10258211530E+03  0.11323973880E+03  0.00000000000E+00 0.  1.
         22    1    3    3    0    0  0.54076345745E+01  0.97743876937E+02  0.89481696852E+02  0.13262760671E+03  0.00000000000E+00 0.  1.
</event>
<event>
 7    1  0.2895750E-005  0.3524922E+03  0.7818608E-02  0.1190424E+00
          2   -1    0    0  502    0  0.00000000000E+00  0.00000000000E+00  0.83213167907E+03  0.83213167907E+03  0.00000000000E+00 0. -1.
          1   -1    0    0  501    0 -0.00000000000E+00 -0.00000000000E+00 -0.49607792118E+03  0.49607792118E+03  0.00000000000E+00 0. -1.
         25    2    1    2    0    0  0.38756039743E+03 -0.13076657860E+03  0.32765264376E+03  0.53878107493E+03  0.12500332796E+03 0.  0.
          2    1    1    2  501    0 -0.33157895822E+03  0.86687868442E+02 -0.31062383336E+03  0.46254357408E+03  0.00000000000E+00 0. -1.
          1    1    1    2  502    0 -0.55981439211E+02  0.44078710163E+02  0.31902494750E+03  0.32688495124E+03  0.00000000000E+00 0. -1.
         22    1    3    3    0    0  0.36467978145E+03 -0.91040298171E+02  0.31703726193E+03  0.49172380900E+03  0.00000000000E+00 0. -1.
         22    1    3    3    0    0  0.22880615988E+02 -0.39726280433E+02  0.10615381822E+02  0.47057265924E+02  0.00000000000E+00 0. -1.
</event>
<event>
 7    1  0.2895750E-005  0.3309199E+03  0.7818608E-02  0.1195143E+00
          2   -1    0    0  502    0  0.00000000000E+00  0.00000000000E+00  0.85971606204E+03  0.85971606204E+03  0.00000000000E+00 0. -1.
          1   -1    0    0  501    0 -0.00000000000E+00 -0.00000000000E+00 -0.14439747687E+04  0.14439747687E+04  0.00000000000E+00 0. -1.
         25    2    1    2    0    0 -0.32307290319E+03 -0.19896869582E+01 -0.73793032016E+03  0.81519721396E+03  0.12500112246E+03 0.  0.
          2    1    1    2  501    0 -0.10195620205E+01  0.72052078151E+02 -0.63180376619E+03  0.63589978805E+03  0.00000000000E+00 0. -1.
          1    1    1    2  502    0  0.32409246521E+03 -0.70062391193E+02  0.78547537970E+03  0.85259382872E+03  0.00000000000E+00 0. -1.
         22    1    3    3    0    0 -0.33355250674E+03 -0.60410007091E+01 -0.72497098987E+03  0.79804555296E+03  0.00000000000E+00 0. -1.
         22    1    3    3    0    0  0.10479603552E+02  0.40513137509E+01 -0.12959330282E+02  0.17151661001E+02  0.00000000000E+00 0. -1.
</event>
<event>
 7    1  0.2895750E-005  0.7416582E+02  0.7818608E-02  0.1435631E+00
          2   -1    0    0  502    0  0.00000000000E+00  0.00000000000E+00  0.27723761464E+03  0.27723761464E+03  0.00000000000E+00 0. -1.
          1   -1    0    0  501    0 -0.00000000000E+00 -0.00000000000E+00 -0.20425264174E+03  0.20425264174E+03  0.00000000000E+00 0. -1.
         25    2    1    2    0    0  0.35448064067E+02 -0.21384142385E+02 -0.40864840791E+01  0.13174122210E+03  0.12500081382E+03 0.  0.
          2    1    1    2  501    0  0.32015402459E+02 -0.16988216184E+02 -0.12665535910E+03  0.13173900513E+03  0.00000000000E+00 0. -1.
          1    1    1    2  502    0 -0.67463466525E+02  0.38372358569E+02  0.20372681609E+03  0.21801002915E+03  0.00000000000E+00 0. -1.
         22    1    3    3    0    0  0.34167049735E+02 -0.19976040281E+02 -0.62130687507E+02  0.73665811629E+02  0.00000000000E+00 0.  1.
         22    1    3    3    0    0  0.12810143312E+01 -0.14081021037E+01  0.58044203428E+02  0.58075410466E+02  0.00000000000E+00 0.  1.
</event>
<event>
 7    1  0.2895750E-005  0.2356774E+03  0.7818608E-02  0.1363260E+00
          2   -1    0    0  502    0  0.00000000000E+00  0.00000000000E+00  0.11230613305E+04  0.11230613305E+04  0.00000000000E+00 0. -1.
          1   -1    0    0  501    0 -0.00000000000E+00 -0.00000000000E+00 -0.26482923689E+03  0.26482923689E+03  0.00000000000E+00 0. -1.
         25    2    1    2    0    0 -0.11459901302E+03  0.19772460179E+03  0.70782878431E+03  0.75423692570E+03  0.12499520092E+03 0.  0.
          2    1    1    2  501    0 -0.40065574057E+01  0.19846137202E+02 -0.20191017906E+03  0.20292274903E+03  0.00000000000E+00 0. -1.
          1    1    1    2  502    0  0.11860557042E+03 -0.21757073899E+03  0.35231348835E+03  0.43073089264E+03  0.00000000000E+00 0. -1.
         22    1    3    3    0    0  0.24868866558E+02  0.47573307172E+02  0.18662864853E+03  0.19419560379E+03  0.00000000000E+00 0. -1.
         22    1    3    3    0    0 -0.13946787958E+03  0.15015129462E+03  0.52120013578E+03  0.56004132191E+03  0.00000000000E+00 0. -1.
</event>
<event>
 7    1  0.2895750E-005  0.1173388E+03  0.7818608E-02  0.1263875E+00
          2   -1    0    0  502    0  0.00000000000E+00  0.00000000000E+00  0.31462272205E+04  0.31462272205E+04  0.00000000000E+00 0. -1.
          1   -1    0    0  501    0 -0.00000000000E+00 -0.00000000000E+00 -0.70216948989E+02  0.70216948989E+02  0.00000000000E+00 0. -1.
         25    2    1    2    0    0 -0.18232673455E+02 -0.42376179780E+02  0.48009181452E+03  0.49823867155E+03  0.12500180985E+03 0.  0.
          2    1    1    2  501    0  0.11745794041E+03  0.53408763636E+02  0.89814057664E+01  0.12934268224E+03  0.00000000000E+00 0. -1.
          1    1    1    2  502    0 -0.99225266959E+02 -0.11032583856E+02  0.25869370512E+04  0.25888628157E+04  0.00000000000E+00 0. -1.
         22    1    3    3    0    0 -0.10446530857E+02  0.33040141965E+02  0.31103421634E+03  0.31295856710E+03  0.00000000000E+00 0. -1.
         22    1    3    3    0    0 -0.77861425986E+01 -0.75416321745E+02  0.16905759817E+03  0.18528010444E+03  0.00000000000E+00 0. -1.
</event>
<event>
 7    1  0.2895750E-005  0.3194637E+03  0.7818608E-02  0.1151622E+00
          2   -1    0    0  502    0  0.00000000000E+00  0.00000000000E+00  0.20384147601E+04  0.20384147601E+04  0.00000000000E+00 0. -1.
          1   -1    0    0  501    0 -0.00000000000E+00 -0.00000000000E+00 -0.22128376704E+04  0.22128376704E+04  0.00000000000E+00 0. -1.
         25    2    1    2    0    0  0.25489522274E+03 -0.22981008287E+03  0.52158073804E+03  0.63675448871E+03  0.12500225531E+03 0.  0.
          2    1    1    2  501    0 -0.29794378520E+03  0.11517560337E+03 -0.21408109562E+04  0.21645109075E+04  0.00000000000E+00 0. -1.
          1    1    1    2  502    0  0.43048562460E+02  0.11463447951E+03  0.14448073079E+04  0.14499870343E+04  0.00000000000E+00 0. -1.
         22    1    3    3    0    0  0.25724496534E+03 -0.19730621972E+03  0.50521047248E+03  0.60028521391E+03  0.00000000000E+00 0. -1.
         22    1    3    3    0    0 -0.23497425950E+01 -0.32503863155E+02  0.16370265559E+02  0.36469274804E+02  0.00000000000E+00 0. -1.
</event>
<event>
 7    1  0.2895750E-005  0.5626273E+02  0.7818608E-02  0.1448899E+00
          2   -1    0    0  502    0  0.00000000000E+00  0.00000000000E+00  0.25447679280E+04  0.25447679280E+04  0.00000000000E+00 0. -1.
          1   -1    0    0  501    0 -0.00000000000E+00 -0.00000000000E+00 -0.67357733502E+02  0.67357733502E+02  0.00000000000E+00 0. -1.
         25    2    1    2    0    0 -0.49635593908E+02  0.53340377630E+02  0.20685158197E+03  0.25242675753E+03  0.12499121123E+03 0.  0.
          2    1    1    2  501    0  0.43207249589E+02  0.25137817346E+01 -0.33638818048E+02  0.54815651007E+02  0.00000000000E+00 0. -1.
          1    1    1    2  502    0  0.64283443189E+01 -0.55854159365E+02  0.23041974306E+04  0.23048832530E+04  0.00000000000E+00 0. -1.
         22    1    3    3    0    0 -0.59588764341E+02 -0.25579427394E+02  0.85048830096E+02  0.10695060281E+03  0.00000000000E+00 0. -1.
         22    1    3    3    0    0  0.99531704334E+01  0.78919805024E+02  0.12180275188E+03  0.14547615472E+03  0.00000000000E+00 0. -1.
</event>
<event>
 7    1  0.2895750E-005  0.2782658E+03  0.7818608E-02  0.1335606E+00
          2   -1    0    0  502    0  0.00000000000E+00  0.00000000000E+00  0.51043181770E+03  0.51043181770E+03  0.00000000000E+00 0. -1.
          1   -1    0    0  501    0 -0.00000000000E+00 -0.00000000000E+00 -0.83633619736E+03  0.83633619736E+03  0.00000000000E+00 0. -1.
         25    2    1    2    0    0  0.26897990598E+03  0.11825459353E+03 -0.43927742585E+03  0.54306857244E+03  0.12499791517E+03 0.  0.
          2    1    1    2  501    0 -0.21072589065E+02  0.52450320940E+01 -0.30291561752E+03  0.30369299582E+03  0.00000000000E+00 0. -1.
          1    1    1    2  502    0 -0.24790731691E+03 -0.12349962563E+03  0.41628866372E+03  0.50000644681E+03  0.00000000000E+00 0. -1.
         22    1    3    3    0    0  0.73245686570E+02  0.62334179865E+02 -0.23843421616E+03  0.25710183977E+03  0.00000000000E+00 0.  1.
         22    1    3    3    0    0  0.19573421941E+03  0.55920413670E+02 -0.20084320970E+03  0.28596673267E+03  0.00000000000E+00 0.  1.
</event>
<event>
 7    1  0.2895750E-005  0.9465521E+02  0.7818608E-02  0.1457144E+00
          2   -1    0    0  502    0  0.00000000000E+00  0.00000000000E+00  0.28758202346E+04  0.28758202346E+04  0.00000000000E+00 0. -1.
          1   -1    0    0  501    0 -0.00000000000E+00 -0.00000000000E+00 -0.27399622231E+02  0.27399622231E+02  0.00000000000E+00 0. -1.
         25    2    1    2    0    0  0.10468625670E+03  0.26168041147E+02  0.26061646926E+03  0.30852695620E+03  0.12499583966E+03 0.  0.
          2    1    1    2  501    0 -0.10542559135E+02 -0.21800419604E+02  0.54516305875E+02  0.59652589670E+02  0.00000000000E+00 0. -1.
          1    1    1    2  502    0 -0.94143697569E+02 -0.43676215428E+01  0.25332878373E+04  0.25350403110E+04  0.00000000000E+00 0. -1.
         22    1    3    3    0    0  0.77829840537E+02  0.73614774172E+02  0.14108288013E+03  0.17714682644E+03  0.00000000000E+00 0. -1.
         22    1    3    3    0    0  0.26856416168E+02 -0.47446733025E+02  0.11953358913E+03  0.13138012976E+03  0.00000000000E+00 0. -1.
</event>
<event>
 7    1  0.2895750E-005  0.2658762E+03  0.7818608E-02  0.1328045E+00
          2   -1    0    0  502    0  0.00000000000E+00  0.00000000000E+00  0.86057599693E+02  0.86057599693E+02  0.00000000000E+00 0. -1.
          1   -1    0    0  501    0 -0.00000000000E+00 -0.00000000000E+00 -0.11318019882E+04  0.11318019882E+04  0.00000000000E+00 0. -1.
         25    2    1    2    0    0 -0.18129523960E+03  0.18169822330E+03 -0.58476497776E+03  0.65073632980E+03  0.12500193381E+03 0.  0.
          2    1    1    2  501    0 -0.24262870773E+02 -0.10595243463E+01  0.67650090634E+01  0.25210609624E+02  0.00000000000E+00 0. -1.
          1    1    1    2  502    0  0.20555811037E+03 -0.18063869895E+03 -0.46774441976E+03  0.54191264842E+03  0.00000000000E+00 0. -1.
         22    1    3    3    0    0 -0.74520780037E+02  0.16736344350E+02 -0.26156975351E+03  0.27249254637E+03  0.00000000000E+00 0. -1.
         22    1    3    3    0    0 -0.10677445956E+03  0.16496187895E+03 -0.32319522426E+03  0.37824378343E+03  0.00000000000E+00 0. -1.
</event>
<event>
 7    1  0.2895750E-005  0.4110165E+03  0.7818608E-02  0.1048368E+00
          2   -1    0    0  502    0  0.00000000000E+00  0.00000000000E+00  0.95790489611E+03  0.95790489611E+03  0.00000000000E+00 0. -1.
          1   -1    0    0  501    0 -0.00000000000E+00 -0.00000000000E+00 -0.64244230871E+03  0.64244230871E+03  0.00000000000E+00 0. -1.
         25    2    1    2    0    0  0.48904235388E+03  0.36870099074E+03  0.36974372126E+03  0.72624941329E+03  0.12499978575E+03 0.  0.
          2    1    1    2  501    0 -0.12461528823E+03 -0.36747735734E+03 -0.24885903634E+03  0.46097657011E+03  0.00000000000E+00 0. -1.
          1    1    1    2  502    0 -0.36442706564E+03 -0.12236333950E+01  0.19457790248E+03  0.41312122142E+03  0.00000000000E+00 0. -1.
         22    1    3    3    0    0  0.47755417972E+03  0.36100077920E+03  0.37996624147E+03  0.70905140985E+03  0.00000000000E+00 0. -1.
         22    1    3    3    0    0  0.11488174156E+02  0.77002115376E+01 -0.10222520204E+02  0.17198003444E+02  0.00000000000E+00 0. -1.
</event>
<event>
 7    1  0.2895750E-005  0.1009718E+03  0.7818608E-02  0.1299071E+00
          2   -1    0    0  502    0  0.00000000000E+00  0.00000000000E+00  0.69229771778E+03  0.69229771778E+03  0.00000000000E+00 0. -1.
          1   -1    0    0  501    0 -0.00000000000E+00 -0.00000000000E+00 -0.29499553261E+03  0.29499553261E+03  0.00000000000E+00 0. -1.
         25    2    1    2    0    0 -0.12145572980E+03  0.12061958744E+03  0.41212817327E+03  0.46343901799E+03  0.12500205206E+03 0.  0.
          2    1    1    2  501    0  0.89403927935E+02 -0.43991440436E+02 -0.25283891262E+03  0.27176428187E+03  0.00000000000E+00 0. -1.
          1    1    1    2  502    0  0.32051801864E+02 -0.76628147002E+02  0.23801292452E+03  0.25208995052E+03  0.00000000000E+00 0. -1.
         22    1    3    3    0    0 -0.11063875311E+03  0.24028292724E+02  0.19368277929E+03  0.22434640968E+03  0.00000000000E+00 0.  1.
         22    1    3    3    0    0 -0.10816976686E+02  0.96591294714E+02  0.21844539398E+03  0.23909260832E+03  0.00000000000E+00 0.  1.
</event>
<event>
 7    1  0.2895750E-005  0.2179438E+03  0.7818608E-02  0.1332300E+00
          2   -1    0    0  502    0  0.00000000000E+00  0.00000000000E+00  0.10647775979E+04  0.10647775979E+04  0.00000000000E+00 0. -1.
          1   -1    0    0  501    0 -0.00000000000E+00 -0.00000000000E+00 -0.81373630776E+03  0.81373630776E+03  0.00000000000E+00 0. -1.
         25    2    1    2    0    0  0.13182472904E+03  0.19114716147E+03  0.28048347211E+03  0.38498206244E+03  0.12500085499E+03 0.  0.
          2    1    1    2  501    0  0.63510784799E+01 -0.27823220518E+02 -0.74557824343E+03  0.74612424225E+03  0.00000000000E+00 0. -1.
          1    1    1    2  502    0 -0.13817580752E+03 -0.16332394095E+03  0.71613606150E+03  0.74740760101E+03  0.00000000000E+00 0. -1.
         22    1    3    3    0    0  0.57316756797E+02  0.14094773953E+03  0.96340054756E+02  0.18009131583E+03  0.00000000000E+00 0.  1.
         22    1    3    3    0    0  0.74507972238E+02  0.50199421944E+02  0.18414341735E+03  0.20489074661E+03  0.00000000000E+00 0.  1.
</event>
<event>
 7    1  0.2895750E-005  0.4434801E+02  0.7818608E-02  0.1581676E+00
          2   -1    0    0  502    0  0.00000000000E+00  0.00000000000E+00  0.22861134253E+04  0.22861134253E+04  0.00000000000E+00 0. -1.
          1   -1    0    0  501    0 -0.00000000000E+00 -0.00000000000E+00 -0.65982208287E+03  0.65982208287E+03  0.00000000000E+00 0. -1.
         25    2    1    2    0    0  0.27371433832E+02 -0.12460345284E+02  0.13126793149E+04  0.13189614151E+04  0.12501110068E+03 0.  0.
          2    1    1    2  501    0  0.52853310270E+01 -0.21797800619E+02 -0.65591205982E+03  0.65629544342E+03  0.00000000000E+00 0. -1.
          1    1    1    2  502    0 -0.32656764859E+02  0.34258145903E+02  0.96952408736E+03  0.97067864961E+03  0.00000000000E+00 0. -1.
         22    1    3    3    0    0 -0.27019411829E+02 -0.36293138230E+02  0.97859712248E+03  0.97964257187E+03  0.00000000000E+00 0. -1.
         22    1    3    3    0    0  0.54390845662E+02  0.23832792946E+02  0.33408219241E+03  0.33931884327E+03  0.00000000000E+00 0. -1.
</event>
<event>
 7    1  0.2895750E-005  0.1122330E+04  0.7818608E-02  0.1031383E+00
          2   -1    0    0  502    0  0.00000000000E+00  0.00000000000E+00  0.23556288162E+04  0.23556288162E+04  0.00000000000E+00 0. -1.
          1   -1    0    0  501    0 -0.00000000000E+00 -0.00000000000E+00 -0.13394086286E+04  0.13394086286E+04  0.00000000000E+00 0. -1.
         25    2    1    2    0    0  0.74391007107E+03  0.89686361456E+03 -0.62241081340E+03  0.13269465388E+04  0.12500143682E+03 0.  0.
          2    1    1    2  501    0 -0.57721510582E+03 -0.85927344901E+03  0.38742820677E+03  0.11052731581E+04  0.00000000000E+00 0. -1.
          1    1    1    2  502    0 -0.16669496525E+03 -0.37590165546E+02  0.12512027943E+04  0.12628177479E+04  0.00000000000E+00 0. -1.
         22    1    3    3    0    0  0.36533668412E+03  0.40645747178E+03 -0.35813173892E+03  0.65340409515E+03  0.00000000000E+00 0.  1.
         22    1    3    3    0    0  0.37857338695E+03  0.49040614278E+03 -0.26427907448E+03  0.67354244365E+03  0.00000000000E+00 0.  1.
</event>
<event>
 7    1  0.2895750E-005  0.4783967E+03  0.7818608E-02  0.1032122E+00
          2   -1    0    0  502    0  0.00000000000E+00  0.00000000000E+00  0.13823255770E+04  0.13823255770E+04  0.00000000000E+00 0. -1.
          1   -1    0    0  501    0 -0.00000000000E+00 -0.00000000000E+00 -0.20480819592E+04  0.20480819592E+04  0.00000000000E+00 0. -1.
         25    2    1    2    0    0  0.34141900228E+03 -0.39037283743E+03 -0.67771049076E+03  0.86248222476E+03  0.12500476561E+03 0.  0.
          2    1    1    2  501    0  0.36102509792E+02  0.51168880657E+03 -0.11934252806E+04  0.12989968154E+04  0.00000000000E+00 0. -1.
          1    1    1    2  502    0 -0.37752151207E+03 -0.12131596914E+03  0.12053793892E+04  0.12689284961E+04  0.00000000000E+00 0. -1.
         22    1    3    3    0    0  0.24036998727E+03 -0.18221594128E+03 -0.40093442230E+03  0.50172581260E+03  0.00000000000E+00 0.  1.
         22    1    3    3    0    0  0.10104901501E+03 -0.20815689615E+03 -0.27677606845E+03  0.36075641217E+03  0.00000000000E+00 0.  1.
</event>
<event>
 7    1  0.5655556E-005  0.1241269E+03  0.7818608E-02  0.1397724E+00
          2   -1    0    0  502    0  0.00000000000E+00  0.00000000000E+00  0.29358777492E+04  0.29358777492E+04  0.00000000000E+00 0. -1.
          1   -1    0    0  501    0 -0.00000000000E+00 -0.00000000000E+00 -0.16705356643E+04  0.16705356643E+04  0.00000000000E+00 0. -1.
         25    2    1    2    0    0  0.91991111030E+02  0.30031920699E+02 -0.23711489270E+03  0.28497986621E+03  0.12500308412E+03 0.  0.
          2    1    1    2  501    0  0.22449578359E+02  0.18401290807E+02 -0.14080128417E+04  0.14083120228E+04  0.00000000000E+00 0. -1.
          1    1    1    2  502    0 -0.11444068939E+03 -0.48433211506E+02  0.29104698193E+04  0.29131215245E+04  0.00000000000E+00 0. -1.
         22    1    3    3    0    0  0.35236785005E+02  0.90643629005E+01 -0.21874319028E+03  0.22174845430E+03  0.00000000000E+00 0. -1.
         22    1    3    3    0    0  0.56754326025E+02  0.20967557798E+02 -0.18371702417E+02  0.63231411911E+02  0.00000000000E+00 0. -1.
</event>
<event>
 7    1  0.2895750E-005  0.3558391E+03  0.7818608E-02  0.1142696E+00
          2   -1    0    0  502    0  0.00000000000E+00  0.00000000000E+00  0.21371811283E+04  0.21371811283E+04  0.00000000000E+00 0. -1.
          1   -1    0    0  501    0 -0.00000000000E+00 -0.00000000000E+00 -0.35957812795E+03  0.35957812795E+03  0.00000000000E+00 0. -1.
         25    2    1    2    0    0  0.20449237609E+03 -0.19559197732E+03  0.88883794136E+02  0.32186776694E+03  0.12500070825E+03 0.  0.
          2    1    1    2  501    0 -0.16481378275E+02 -0.12114494443E+03 -0.20879584119E+03  0.24195751009E+03  0.00000000000E+00 0. -1.
          1    1    1    2  502    0 -0.18801099782E+03  0.31673692175E+03  0.18975150474E+04  0.19329339792E+04  0.00000000000E+00 0. -1.
         22    1    3    3    0    0  0.10200704050E+03 -0.17621149088E+03  0.43938393696E+02  0.20829428285E+03  0.00000000000E+00 0. -1.
         22    1    3    3    0    0  0.10248533560E+03 -0.19380486442E+02  0.44945400439E+02  0.11357348409E+03  0.00000000000E+00 0. -1.
</event>
<event>
 7    1  0.2895750E-005  0.7552083E+03  0.7818608E-02  0.1138059E+00
          2   -1    0    0  502    0  0.00000000000E+00  0.00000000000E+00  0.11630245412E+04  0.11630245412E+04  0.00000000000E+00 0. -1.
          1   -1    0    0  501    0 -0.00000000000E+00 -0.00000000000E+00 -0.62142255248E+03  0.62142255248E+03  0.00000000000E+00 0. -1.
         25    2    1    2    0    0 -0.45926735060E+03  0.61458621501E+03 -0.53301149748E+02  0.77917230062E+03  0.12500298591E+03 0.  0.
          2    1    1    2  501    0  0.39836991795E+03 -0.61616971003E+03  0.48475647490E+03  0.87940465261E+03  0.00000000000E+00 0. -1.
          1    1    1    2  502    0  0.60897432649E+02  0.15834950180E+01  0.11014666358E+03  0.12587014045E+03  0.00000000000E+00 0. -1.
         22    1    3    3    0    0 -0.12616141301E+03  0.11753463598E+03  0.30118151472E+02  0.17503769833E+03  0.00000000000E+00 0.  1.
         22    1    3    3    0    0 -0.33310593759E+03  0.49705157903E+03 -0.83419301220E+02  0.60413460229E+03  0.00000000000E+00 0.  1.
</event>
<event>
 7    1  0.2895750E-005  0.1117156E+03  0.7818608E-02  0.1390861E+00
          2   -1    0    0  502    0  0.00000000000E+00  0.00000000000E+00  0.11787103233E+04  0.11787103233E+04  0.00000000000E+00 0. -1.
          1   -1    0    0  501    0 -0.00000000000E+00 -0.00000000000E+00 -0.19698336031E+03  0.19698336031E+03  0.00000000000E+00 0. -1.
         25    2    1    2    0    0 -0.14356079977E+03  0.17029238006E+02 -0.11815427478E+03  0.22468871353E+03  0.12499954865E+03 0.  0.
          2    1    1    2  501    0  0.32604153588E+02 -0.98821270287E+01 -0.10048701958E+02  0.35519905361E+02  0.00000000000E+00 0. -1.
          1    1    1    2  502    0  0.11095664618E+03 -0.71471109776E+01  0.11099299397E+04  0.11154850647E+04  0.00000000000E+00 0. -1.
         22    1    3    3    0    0 -0.33853343820E+02  0.29994385697E+02 -0.10387994930E+03  0.11329940833E+03  0.00000000000E+00 0.  1.
         22    1    3    3    0    0 -0.10970745595E+03 -0.12965147691E+02 -0.14274325478E+02  0.11138930520E+03  0.00000000000E+00 0.  1.
</event>
<event>
 7    1  0.2895750E-005  0.8923609E+02  0.7818608E-02  0.1445923E+00
          2   -1    0    0  502    0  0.00000000000E+00  0.00000000000E+00  0.14862769889E+04  0.14862769889E+04  0.00000000000E+00 0. -1.
          1   -1    0    0  501    0 -0.00000000000E+00 -0.00000000000E+00 -0.61257616262E+03  0.61257616262E+03  0.00000000000E+00 0. -1.
         25    2    1    2    0    0  0.60494466599E+02 -0.91709458505E+02  0.22750800350E+02  0.16796803850E+03  0.12500183108E+03 0.  0.
          2    1    1    2  501    0 -0.61330693006E+02  0.63826835941E+02 -0.53619869400E+03  0.54345593964E+03  0.00000000000E+00 0. -1.
          1    1    1    2  502    0  0.83622640738E+00  0.27882622564E+02  0.13871487200E+04  0.13874291734E+04  0.00000000000E+00 0. -1.
         22    1    3    3    0    0  0.56859884692E+02 -0.12108230893E+03  0.58734436532E+01  0.13389723434E+03  0.00000000000E+00 0.  1.
         22    1    3    3    0    0  0.36345819070E+01  0.29372850423E+02  0.16877356697E+02  0.34070804168E+02  0.00000000000E+00 0.  1.
</event>
<event>
 7    1  0.2895750E-005  0.1913573E+03  0.7818608E-02  0.1383671E+00
          2   -1    0    0  502    0  0.00000000000E+00  0.00000000000E+00  0.45669898343E+03  0.45669898343E+03  0.00000000000E+00 0. -1.
          1   -1    0    0  501    0 -0.00000000000E+00 -0.00000000000E+00 -0.13018162870E+03  0.13018162870E+03  0.00000000000E+00 0. -1.
         25    2    1    2    0    0  0.17041768163E+03 -0.78987020050E+02  0.28256861046E+03  0.36159533827E+03  0.12500013396E+03 0.  0.
          2    1    1    2  501    0 -0.16547463084E+03  0.99476814852E+02  0.55967226100E+02  0.20102194045E+03  0.00000000000E+00 0. -1.
          1    1    1    2  502    0 -0.49430507896E+01 -0.20489794802E+02 -0.12018481837E+02  0.24263333402E+02  0.00000000000E+00 0. -1.
         22    1    3    3    0    0  0.95514368513E+02  0.78451907336E+01  0.19510743611E+03  0.21737399392E+03  0.00000000000E+00 0.  1.
         22    1    3    3    0    0  0.74903313119E+02 -0.86832210784E+02  0.87461174359E+02  0.14422134435E+03  0.00000000000E+00 0.  1.
</event>
<event>
 7    1  0.2895750E-005  0.8558638E+02  0.7818608E-02  0.1365803E+00
          2   -1    0    0  502    0  0.00000000000E+00  0.00000000000E+00  0.45601097701E+03  0.45601097701E+03  0.00000000000E+00 0. -1.
          1   -1    0    0  501    0 -0.00000000000E+00 -0.00000000000E+00 -0.16277462799E+03  0.16277462799E+03  0.00000000000E+00 0. -1.
         25    2    1    2    0    0 -0.12065783759E+03 -0.21822499433E+02  0.66340072653E+01  0.17522478008E+03  0.12500071299E+03 0.  0.
          2    1    1    2  501    0  0.68570424337E+02  0.38133379022E+02 -0.56154613029E+02  0.96485222982E+02  0.00000000000E+00 0. -1.
          1    1    1    2  502    0  0.52087413250E+02 -0.16310879589E+02  0.34275695478E+03  0.34707560194E+03  0.00000000000E+00 0. -1.
         22    1    3    3    0    0 -0.83702463139E+02 -0.67096527055E+02  0.31363360798E+02  0.11176630386E+03  0.00000000000E+00 0.  1.
         22    1    3    3    0    0 -0.36955374448E+02  0.45274027622E+02 -0.24729353533E+02  0.63458476218E+02  0.00000000000E+00 0.  1.
</event>
<event>
 7    1  0.2895750E-005  0.4970712E+02  0.7818608E-02  0.1449959E+00
          2   -1    0    0  502    0  0.00000000000E+00  0.00000000000E+00  0.10293383142E+04  0.10293383142E+04  0.00000000000E+00 0. -1.
          1   -1    0    0  501    0 -0.00000000000E+00 -0.00000000000E+00 -0.17272194484E+03  0.17272194484E+03  0.00000000000E+00 0. -1.
         25    2    1    2    0    0  0.65882787066E+02 -0.49948572689E+02  0.19262646606E+02  0.15109948918E+03  0.12499841812E+03 0.  0.
          2    1    1    2  501    0 -0.48473092422E+02  0.36058659851E+01 -0.10058639528E+03  0.11171511032E+03  0.00000000000E+00 0. -1.
          1    1    1    2  502    0 -0.17409694645E+02  0.46342706704E+02  0.93794011802E+03  0.93924565952E+03  0.00000000000E+00 0. -1.
         22    1    3    3    0    0  0.37836562220E+02 -0.29614916034E+02 -0.52649469072E+02  0.71278434929E+02  0.00000000000E+00 0.  1.
         22    1    3    3    0    0  0.28046224847E+02 -0.20333656655E+02  0.71912115678E+02  0.79821054255E+02  0.00000000000E+00 0.  1.
</event>
<event>
 7    1  0.4501126E-005  0.6294269E+02  0.7818608E-02  0.1456165E+00
          2   -1    0    0  502    0  0.00000000000E+00  0.00000000000E+00  0.65310529286E+03  0.65310529286E+03  0.00000000000E+00 0. -1.
          1   -1    0    0  501    0 -0.00000000000E+00 -0.00000000000E+00 -0.14928178649E+04  0.14928178649E+04  0.00000000000E+00 0. -1.
         25    2    1    2    0    0  0.33265780584E+01 -0.30315216043E+02 -0.77518530496E+03  0.78579070893E+03  0.12499881103E+03 0.  0.
          2    1    1    2  501    0 -0.20762529116E+02 -0.30235288494E+02 -0.71032333974E+03  0.71126964104E+03  0.00000000000E+00 0. -1.
          1    1    1    2  502    0  0.17435951057E+02  0.60550504537E+02  0.64579607262E+03  0.64886280784E+03  0.00000000000E+00 0. -1.
         22    1    3    3    0    0 -0.52382986531E+02 -0.39133131980E+02 -0.53961827722E+03  0.54356532671E+03  0.00000000000E+00 0.  1.
         22    1    3    3    0    0  0.55709564589E+02  0.88179159372E+01 -0.23556702775E+03  0.24222538221E+03  0.00000000000E+00 0.  1.
</event>
<event>
 7    1  0.2895750E-005  0.1864391E+03  0.7818608E-02  0.1177112E+00
          2   -1    0    0  502    0  0.00000000000E+00  0.00000000000E+00  0.18411604745E+03  0.18411604745E+03  0.00000000000E+00 0. -1.
          1   -1    0    0  501    0 -0.00000000000E+00 -0.00000000000E+00 -0.18362898070E+04  0.18362898070E+04  0.00000000000E+00 0. -1.
         25    2    1    2    0    0 -0.92997718423E+02 -0.12153569072E+03 -0.49964090847E+03  0.53729445050E+03  0.12499915746E+03 0.  0.
          2    1    1    2  501    0 -0.29425213153E+02  0.21871331261E+03 -0.12690892146E+04  0.12881338404E+04  0.00000000000E+00 0. -1.
          1    1    1    2  502    0  0.12242293158E+03 -0.97177621890E+02  0.11655636356E+03  0.19497756347E+03  0.00000000000E+00 0. -1.
         22    1    3    3    0    0 -0.10706784711E+03 -0.10403937452E+03 -0.49107098067E+03  0.51326252872E+03  0.00000000000E+00 0. -1.
         22    1    3    3    0    0  0.14070128685E+02 -0.17496316196E+02 -0.85699278018E+01  0.24031921774E+02  0.00000000000E+00 0. -1.
</event>
<event>
 7    1  0.2895750E-005  0.9415957E+02  0.7818608E-02  0.1308667E+00
          2   -1    0    0  502    0  0.00000000000E+00  0.00000000000E+00  0.12731324811E+03  0.12731324811E+03  0.00000000000E+00 0. -1.
          1   -1    0    0  501    0 -0.00000000000E+00 -0.00000000000E+00 -0.14589304245E+04  0.14589304245E+04  0.00000000000E+00 0. -1.
         25    2    1    2    0    0 -0.41988817801E+01 -0.13450392694E+02  0.70131001560E+02  0.14402053280E+03  0.12500005126E+03 0.  0.
          2    1    1    2  501    0  0.42985574035E+02  0.85212644156E+02 -0.13304906464E+04  0.13339094102E+04  0.00000000000E+00 0. -1.
          1    1    1    2  502    0 -0.38786692254E+02 -0.71762251462E+02 -0.71257531502E+02  0.10831372963E+03  0.00000000000E+00 0. -1.
         22    1    3    3    0    0  0.30878995882E+02 -0.56437050575E+02  0.59293901798E+02  0.87489541401E+02  0.00000000000E+00 0.  1.
         22    1    3    3    0    0 -0.35077877662E+02  0.42986657881E+02  0.10837099762E+02  0.56530991397E+02  0.00000000000E+00 0.  1.
</event>
<event>
 7    1  0.2895750E-005  0.2025246E+03  0.7818608E-02  0.1293929E+00
          2   -1    0    0  502    0  0.00000000000E+00  0.00000000000E+00  0.37681540593E+03  0.37681540593E+03  0.00000000000E+00 0. -1.
          1   -1    0    0  501    0 -0.00000000000E+00 -0.00000000000E+00 -0.41563359454E+03  0.41563359454E+03  0.00000000000E+00 0. -1.
         25    2    1    2    0    0  0.80950065747E+02 -0.14841015721E+03  0.30209716006E+03  0.36805665568E+03  0.12499807905E+03 0.  0.
          2    1    1    2  501    0 -0.12019011219E+03  0.16702793632E+03 -0.30555559086E+03  0.36838595750E+03  0.00000000000E+00 0. -1.
          1    1    1    2  502    0  0.39240046438E+02 -0.18617779105E+02 -0.35359757815E+02  0.56006387279E+02  0.00000000000E+00 0. -1.
         22    1    3    3    0    0  0.79836122414E+02 -0.58364483914E+02  0.23739409705E+03  0.25716954862E+03  0.00000000000E+00 0.  1.
         22    1    3    3    0    0  0.11139433331E+01 -0.90045673297E+02  0.64703063015E+02  0.11088710706E+03  0.00000000000E+00 0.  1.
</event>
<event>
 7    1  0.2895750E-005  0.3107145E+03  0.7818608E-02  0.1300660E+00
          2   -1    0    0  502    0  0.00000000000E+00  0.00000000000E+00  0.17958980532E+03  0.17958980532E+03  0.00000000000E+00 0. -1.
          1   -1    0    0  501    0 -0.00000000000E+00 -0.00000000000E+00 -0.15029577678E+04  0.15029577678E+04  0.00000000000E+00 0. -1.
         25    2    1    2    0    0  0.11905536161E+03 -0.28723735804E+03 -0.79293437178E+02  0.34437100014E+03  0.12499783027E+03 0.  0.
          2    1    1    2  501    0 -0.24966455383E+02 -0.91763874628E+01 -0.77451413191E+03  0.77497075461E+03  0.00000000000E+00 0. -1.
          1    1    1    2  502    0 -0.94088906228E+02  0.29641374551E+03 -0.46956039338E+03  0.56320581836E+03  0.00000000000E+00 0. -1.
         22    1    3    3    0    0  0.11489425044E+03 -0.15956124769E+03 -0.51934997705E+01  0.19669126312E+03  0.00000000000E+00 0.  1.
         22    1    3    3    0    0  0.41611111729E+01 -0.12767611035E+03 -0.74099937407E+02  0.14767973701E+03  0.00000000000E+00 0.  1.
</event>
<event>
 7    1  0.2895750E-005  0.8312544E+02  0.7818608E-02  0.1331924E+00
          2   -1    0    0  502    0  0.00000000000E+00  0.00000000000E+00  0.32329703686E+02  0.32329703686E+02  0.00000000000E+00 0. -1.
          1   -1    0    0  501    0 -0.00000000000E+00 -0.00000000000E+00 -0.83516143313E+03  0.83516143313E+03  0.00000000000E+00 0. -1.
         25    2    1    2    0    0  0.51934468304E+02 -0.67437500415E+02 -0.37770600111E+03  0.40685651634E+03  0.12500158461E+03 0.  0.
          2    1    1    2  501    0 -0.70326593933E+02 -0.26267543808E+02 -0.12635432479E+03  0.14697356587E+03  0.00000000000E+00 0. -1.
          1    1    1    2  502    0  0.18392125629E+02  0.93705044223E+02 -0.29877140355E+03  0.31366105461E+03  0.00000000000E+00 0. -1.
         22    1    3    3    0    0  0.44107870131E+02 -0.19659472810E+02 -0.34515414880E+03  0.34851597598E+03  0.00000000000E+00 0. -1.
         22    1    3    3    0    0  0.78265981727E+01 -0.47778027605E+02 -0.32551852305E+02  0.58340540358E+02  0.00000000000E+00 0. -1.
</event>
<event>
 7    1  0.3921679E-005  0.1123856E+03  0.7818608E-02  0.1288114E+00
          2   -1    0    0  502    0  0.00000000000E+00  0.00000000000E+00  0.26779648936E+04  0.26779648936E+04  0.00000000000E+00 0. -1.
          1   -1    0    0  501    0 -0.00000000000E+00 -0.00000000000E+00 -0.76549270257E+03  0.76549270257E+03  0.00000000000E+00 0. -1.
         25    2    1    2    0    0 -0.23252789627E+02 -0.52152418916E+02  0.82406885416E+02  0.16024334885E+03  0.12500587611E+03 0.  0.
          2    1    1    2  501    0 -0.36733914490E+02  0.10899645802E+03 -0.72134920035E+03  0.73046168768E+03  0.00000000000E+00 0. -1.
          1    1    1    2  502    0  0.59986704117E+02 -0.56844039104E+02  0.25514145060E+04  0.25527525597E+04  0.00000000000E+00 0. -1.
         22    1    3    3    0    0 -0.84518719127E+00  0.41302460981E+02  0.23680007240E+02  0.47616702609E+02  0.00000000000E+00 0. -1.
         22    1    3    3    0    0 -0.22407602436E+02 -0.93454879897E+02  0.58726878176E+02  0.11262664624E+03  0.00000000000E+00 0. -1.
</event>
<event>
 7    1  0.2895750E-005  0.1941430E+03  0.7818608E-02  0.1260011E+00
          2   -1    0    0  502    0  0.00000000000E+00  0.00000000000E+00  0.15014333445E+04  0.15014333445E+04  0.00000000000E+00 0. -1.
          1   -1    0    0  501    0 -0.00000000000E+00 -0.00000000000E+00 -0.12508327978E+03  0.12508327978E+03  0.00000000000E+00 0. -1.
         25    2    1    2    0    0  0.57981337217E+02 -0.19600057304E+03  0.84473759254E+03  0.87805733386E+03  0.12500008480E+03 0.  0.
          2    1    1    2  501    0 -0.62349215187E+02  0.63173161475E+01 -0.83698508984E+02  0.10455990400E+03  0.00000000000E+00 0. -1.
          1    1    1    2  502    0  0.43678779697E+01  0.18968325690E+03  0.61531098116E+03  0.64389938642E+03  0.00000000000E+00 0. -1.
         22    1    3    3    0    0 -0.34466691780E+02 -0.93710001258E+02  0.30186772979E+03  0.31795226602E+03  0.00000000000E+00 0.  1.
         22    1    3    3    0    0  0.92448028997E+02 -0.10229057178E+03  0.54286986275E+03  0.56010506784E+03  0.00000000000E+00 0.  1.
</event>
<event>
 7    1  0.2895750E-005  0.3737712E+03  0.7818608E-02  0.1082864E+00
          2   -1    0    0  502    0  0.00000000000E+00  0.00000000000E+00  0.29769426232E+04  0.29769426232E+04  0.00000000000E+00 0. -1.
          1   -1    0    0  501    0 -0.00000000000E+00 -0.00000000000E+00 -0.33188503053E+03  0.33188503053E+03  0.00000000000E+00 0. -1.
         25    2    1    2    0    0  0.44388997003E+03 -0.32931689774E+03  0.15350763877E+04  0.16363289550E+04  0.12500003243E+03 0.  0.
          2    1    1    2  501    0 -0.34841937890E+03  0.99823284525E+02 -0.14704727309E+03  0.39113124684E+03  0.00000000000E+00 0. -1.
          1    1    1    2  502    0 -0.95470591128E+02  0.22949361321E+03  0.12570284780E+04  0.12813674519E+04  0.00000000000E+00 0. -1.
         22    1    3    3    0    0  0.36878836599E+03 -0.28007069120E+03  0.13957578681E+04  0.14705728399E+04  0.00000000000E+00 0. -1.
         22    1    3    3    0    0  0.75101604037E+02 -0.49246206535E+02  0.13931851959E+03  0.16575611509E+03  0.00000000000E+00 0. -1.
</event>
<event>
 7    1  0.2895750E-005  0.3094579E+03  0.7818608E-02  0.1093265E+00
          2   -1    0    0  502    0  0.00000000000E+00  0.00000000000E+00  0.37207023839E+04  0.37207023839E+04  0.00000000000E+00 0. -1.
          1   -1    0    0  501    0 -0.00000000000E+00 -0.00000000000E+00 -0.12072706763E+03  0.12072706763E+03  0.00000000000E+00 0. -1.
         25    2    1    2    0    0 -0.28216925713E+03 -0.44161587103E+03  0.13052155435E+04  0.14120399710E+04  0.12500079035E+03 0.  0.
          2    1    1    2  501    0  0.13026647664E+03  0.22873051849E+03  0.23429297437E+03  0.35239211521E+03  0.00000000000E+00 0. -1.
          1    1    1    2  502    0  0.15190278048E+03  0.21288535254E+03  0.20604667984E+04  0.20769973652E+04  0.00000000000E+00 0. -1.
         22    1    3    3    0    0 -0.29906204483E+02 -0.14955721995E+03  0.39224491129E+03  0.42085367236E+03  0.00000000000E+00 0.  1.
         22    1    3    3    0    0 -0.25226305265E+03 -0.29205865108E+03  0.91297063221E+03  0.99118629868E+03  0.00000000000E+00 0.  1.
</event>
<event>
 7    1  0.2895750E-005  0.3086698E+03  0.7818608E-02  0.1215429E+00
          2   -1    0    0  502    0  0.00000000000E+00  0.00000000000E+00  0.32407166001E+03  0.32407166001E+03  0.00000000000E+00 0. -1.
          1   -1    0    0  501    0 -0.00000000000E+00 -0.00000000000E+00 -0.13080141007E+04  0.13080141007E+04  0.00000000000E+00 0. -1.
         25    2    1    2    0    0  0.57758636581E+02  0.29002294444E+03 -0.31599333256E+03  0.45047336899E+03  0.12500040620E+03 0.  0.
          2    1    1    2  501    0  0.62095413981E+02 -0.81549079677E+00 -0.82778467669E+03  0.83011082177E+03  0.00000000000E+00 0. -1.
          1    1    1    2  502    0 -0.11985405056E+03 -0.28920745364E+03  0.15983556858E+03  0.35150156992E+03  0.00000000000E+00 0. -1.
         22    1    3    3    0    0  0.54669047360E+02  0.46914860915E+02 -0.11166790527E+03  0.13288878802E+03  0.00000000000E+00 0.  1.
         22    1    3    3    0    0  0.30895892209E+01  0.24310808352E+03 -0.20432542728E+03  0.31758458097E+03  0.00000000000E+00 0.  1.
</event>
<event>
 7    1  0.2895750E-005  0.5318830E+02  0.7818608E-02  0.1482700E+00
          2   -1    0    0  502    0  0.00000000000E+00  0.00000000000E+00  0.60757289855E+02  0.60757289855E+02  0.00000000000E+00 0. -1.
          1   -1    0    0  501    0 -0.00000000000E+00 -0.00000000000E+00 -0.73053641835E+03  0.73053641835E+03  0.00000000000E+00 0. -1.
         25    2    1    2    0    0  0.29680473144E+01 -0.83420490863E+02 -0.18207875634E+03  0.23610341943E+03  0.12499745420E+03 0.  0.
          2    1    1    2  501    0 -0.12257804352E+02  0.33726723099E+02 -0.50150304332E+03  0.50278529023E+03  0.00000000000E+00 0. -1.
          1    1    1    2  502    0  0.92897570377E+01  0.49693767763E+02  0.13802671166E+02  0.52404998537E+02  0.00000000000E+00 0. -1.
         22    1    3    3    0    0 -0.16063532191E+01  0.28226593931E+02 -0.79652739515E+02  0.84521475897E+02  0.00000000000E+00 0.  1.
         22    1    3    3    0    0  0.45744005335E+01 -0.11164708479E+03 -0.10242601683E+03  0.15158194353E+03  0.00000000000E+00 0.  1.
</event>
<event>
 7    1  0.2895750E-005  0.1326816E+03  0.7818608E-02  0.1337078E+00
          2   -1    0    0  502    0  0.00000000000E+00  0.00000000000E+00  0.11884475811E+04  0.11884475811E+04  0.00000000000E+00 0. -1.
          1   -1    0    0  501    0 -0.00000000000E+00 -0.00000000000E+00 -0.96935196091E+02  0.96935196091E+02  0.00000000000E+00 0. -1.
         25    2    1    2    0    0  0.27699072608E+02  0.15683293457E+03  0.54896811444E+03  0.58511908990E+03  0.12503819696E+03 0.  0.
          2    1    1    2  501    0  0.85530328372E+01 -0.13023613442E+03 -0.23347511405E+02  0.13258850391E+03  0.00000000000E+00 0. -1.
          1    1    1    2  502    0 -0.36252105445E+02 -0.26596800146E+02  0.56589178194E+03  0.56767518335E+03  0.00000000000E+00 0. -1.
         22    1    3    3    0    0  0.51377543350E+02  0.15920658996E+03  0.38980306673E+03  0.42418489020E+03  0.00000000000E+00 0. -1.
         22    1    3    3    0    0 -0.23678470742E+02 -0.23736553918E+01  0.15916504772E+03  0.16093419969E+03  0.00000000000E+00 0. -1.
</event>
<event>
 7    1  0.2895750E-005  0.1944781E+03  0.7818608E-02  0.1240180E+00
          2   -1    0    0  502    0  0.00000000000E+00  0.00000000000E+00  0.12057289451E+03  0.12057289451E+03  0.00000000000E+00 0. -1.
          1   -1    0    0  501    0 -0.00000000000E+00 -0.00000000000E+00 -0.64491468897E+03  0.64491468897E+03  0.00000000000E+00 0. -1.
         25    2    1    2    0    0  0.17289188257E+03  0.15029700067E+03 -0.39539981939E+03  0.47375849267E+03  0.12500120294E+03 0.  0.
          2    1    1    2  501    0 -0.37659915654E+01 -0.76171434906E+02 -0.27699608720E+02  0.81139007336E+02  0.00000000000E+00 0. -1.
          1    1    1    2  502    0 -0.16912589101E+03 -0.74125565766E+02 -0.10124236635E+03  0.21059008347E+03  0.00000000000E+00 0. -1.
         22    1    3    3    0    0  0.16278783731E+03  0.17093887455E+03 -0.37455239711E+03  0.44272957546E+03  0.00000000000E+00 0.  1.
         22    1    3    3    0    0  0.10104045264E+02 -0.20641873875E+02 -0.20847422284E+02  0.31028917218E+02  0.00000000000E+00 0.  1.
</event>
<event>
 7    1  0.2895750E-005  0.1194859E+03  0.7818608E-02  0.1287889E+00
          2   -1    0    0  502    0  0.00000000000E+00  0.00000000000E+00  0.33433162631E+03  0.33433162631E+03  0.00000000000E+00 0. -1.
          1   -1    0    0  501    0 -0.00000000000E+00 -0.00000000000E+00 -0.14254446948E+03  0.14254446948E+03  0.00000000000E+00 0. -1.
         25    2    1    2    0    0  0.39578425918E+02  0.15126621601E+03  0.12861629308E+03  0.23793878292E+03  0.12499917466E+03 0.  0.
          2    1    1    2  501    0  0.33011432796E+02 -0.70553764872E+02 -0.41396976275E+02  0.88211666335E+02  0.00000000000E+00 0. -1.
          1    1    1    2  502    0 -0.72589858714E+02 -0.80712451138E+02  0.10456784002E+03  0.15072564654E+03  0.00000000000E+00 0. -1.
         22    1    3    3    0    0  0.30355993416E+02  0.10310152276E+03  0.80474383629E+01  0.10777834475E+03  0.00000000000E+00 0.  1.
         22    1    3    3    0    0  0.92224325025E+01  0.48164693250E+02  0.12056885472E+03  0.13016043817E+03  0.00000000000E+00 0.  1.
</event>
<event>
 7    1  0.2895750E-005  0.1532145E+03  0.7818608E-02  0.1292347E+00
          2   -1    0    0  502    0  0.00000000000E+00  0.00000000000E+00  0.18014119518E+04  0.18014119518E+04  0.00000000000E+00 0. -1.
          1   -1    0    0  501    0 -0.00000000000E+00 -0.00000000000E+00 -0.62004089989E+03  0.62004089989E+03  0.00000000000E+00 0. -1.
         25    2    1    2    0    0 -0.75682925864E+02 -0.72296737939E+02  0.67464466764E+03  0.69406374985E+03  0.12499735076E+03 0.  0.
          2    1    1    2  501    0  0.82144554789E+02  0.13020106431E+03 -0.59984489126E+03  0.61928502211E+03  0.00000000000E+00 0. -1.
          1    1    1    2  502    0 -0.64616289246E+01 -0.57904326376E+02  0.11065712755E+04  0.11081040797E+04  0.00000000000E+00 0. -1.
         22    1    3    3    0    0  0.51283023901E+01 -0.62591365869E+02  0.46418046351E+03  0.46840952303E+03  0.00000000000E+00 0.  1.
         22    1    3    3    0    0 -0.80811228254E+02 -0.97053720699E+01  0.21046420413E+03  0.22565422681E+03  0.00000000000E+00 0.  1.
</event>
<event>
 7    1  0.2895750E-005  0.4581833E+03  0.7818608E-02  0.1062410E+00
          2   -1    0    0  502    0  0.00000000000E+00  0.00000000000E+00  0.49590623614E+03  0.49590623614E+03  0.00000000000E+00 0. -1.
          1   -1    0    0  501    0 -0.00000000000E+00 -0.00000000000E+00 -0.82331973040E+03  0.82331973040E+03  0.00000000000E+00 0. -1.
         25    2    1    2    0    0 -0.38635372716E+03  0.40302675224E+03 -0.18401924948E+03  0.60098842742E+03  0.12499696076E+03 0.  0.
          2    1    1    2  501    0  0.39122716048E+03 -0.13494636880E+03 -0.17286279004E+03  0.44849833637E+03  0.00000000000E+00 0. -1.
          1    1    1    2  502    0 -0.48734333211E+01 -0.26808038345E+03  0.29468545255E+02  0.26973920275E+03  0.00000000000E+00 0. -1.
         22    1    3    3    0    0 -0.29533425403E+03  0.30049977330E+03 -0.79921842572E+02  0.42884721787E+03  0.00000000000E+00 0.  1.
         22    1    3    3    0    0 -0.91019473131E+02  0.10252697895E+03 -0.10409740690E+03  0.17214120955E+03  0.00000000000E+00 0.  1.
</event>
<event>
 7    1  0.2895750E-005  0.1557548E+03  0.7818608E-02  0.1322581E+00
          2   -1    0    0  502    0  0.00000000000E+00  0.00000000000E+00  0.16961237544E+04  0.16961237544E+04  0.00000000000E+00 0. -1.
          1   -1    0    0  501    0 -0.00000000000E+00 -0.00000000000E+00 -0.22981500089E+03  0.22981500089E+03  0.00000000000E+00 0. -1.
         25    2    1    2    0    0  0.50059579758E+02  0.17163045661E+03  0.98890377875E+03  0.10126788303E+04  0.12499901777E+03 0.  0.
          2    1    1    2  501    0  0.95889791899E+01 -0.42442985487E+02 -0.20837681681E+03  0.21287144788E+03  0.00000000000E+00 0. -1.
          1    1    1    2  502    0 -0.59648558948E+02 -0.12918747113E+03  0.68578179153E+03  0.70038847711E+03  0.00000000000E+00 0. -1.
         22    1    3    3    0    0  0.35415209005E+02  0.17744390349E+03  0.68906129922E+03  0.71242266247E+03  0.00000000000E+00 0.  1.
         22    1    3    3    0    0  0.14644370754E+02 -0.58134468771E+01  0.29984247953E+03  0.30025616778E+03  0.00000000000E+00 0.  1.
</event>
<event>
 7    1  0.2895750E-005  0.2009614E+03  0.7818608E-02  0.1265060E+00
          2   -1    0    0  502    0  0.00000000000E+00  0.00000000000E+00  0.46736121529E+03  0.46736121529E+03  0.00000000000E+00 0. -1.
          1   -1    0    0  501    0 -0.00000000000E+00 -0.00000000000E+00 -0.27043824202E+04  0.27043824202E+04  0.00000000000E+00 0. -1.
         25    2    1    2    0    0 -0.11467267407E+03  0.22129678080E+03 -0.12661585455E+02  0.27911811652E+03  0.12499807939E+03 0.  0.
          2    1    1    2  501    0  0.30428753134E+02 -0.48933688152E+02 -0.25305990321E+04  0.25312550002E+04  0.00000000000E+00 0. -1.
          1    1    1    2  502    0  0.84243920933E+02 -0.17236309265E+03  0.30623941268E+03  0.36137051872E+03  0.00000000000E+00 0. -1.
         22    1    3    3    0    0 -0.11906487979E+03  0.13077599041E+03  0.29264041069E+02  0.17926290572E+03  0.00000000000E+00 0.  1.
         22    1    3    3    0    0  0.43922057245E+01  0.90520790396E+02 -0.41925626523E+02  0.99855210802E+02  0.00000000000E+00 0.  1.
</event>
<event>
 7    1  0.2895750E-005  0.7198569E+02  0.7818608E-02  0.1435354E+00
          2   -1    0    0  502    0  0.00000000000E+00  0.00000000000E+00  0.87211381587E+02  0.87211381587E+02  0.00000000000E+00 0. -1.
          1   -1    0    0  501    0 -0.00000000000E+00 -0.00000000000E+00 -0.31619071765E+03  0.31619071765E+03  0.00000000000E+00 0. -1.
         25    2    1    2    0    0  0.38955959070E+02 -0.11008494857E+02 -0.63366094024E+02  0.14587898277E+03  0.12500664797E+03 0.  0.
          2    1    1    2  501    0 -0.73101312019E+02  0.26314663601E+02 -0.19502348258E+03  0.20992956461E+03  0.00000000000E+00 0. -1.
          1    1    1    2  502    0  0.34145352949E+02 -0.15306168744E+02  0.29410240542E+02  0.47593551857E+02  0.00000000000E+00 0. -1.
         22    1    3    3    0    0  0.60129264728E+02 -0.49716800647E+02 -0.13300514677E+02  0.79146651439E+02  0.00000000000E+00 0. -1.
         22    1    3    3    0    0 -0.21173305658E+02  0.38708305789E+02 -0.50065579347E+02  0.66732331331E+02  0.00000000000E+00 0. -1.
</event>
<event>
 7    1  0.2895750E-005  0.8260562E+02  0.7818608E-02  0.1362484E+00
          2   -1    0    0  502    0  0.00000000000E+00  0.00000000000E+00  0.26618086638E+03  0.26618086638E+03  0.00000000000E+00 0. -1.
          1   -1    0    0  501    0 -0.00000000000E+00 -0.00000000000E+00 -0.81578381491E+03  0.81578381491E+03  0.00000000000E+00 0. -1.
         25    2    1    2    0    0 -0.11553993106E+03  0.70037622754E+02 -0.65830458987E+03  0.68355342469E+03  0.12500242835E+03 0.  0.
          2    1    1    2  501    0  0.56726411929E+02 -0.12743827742E+02 -0.13192150867E+03  0.14416509774E+03  0.00000000000E+00 0. -1.
          1    1    1    2  502    0  0.58813519128E+02 -0.57293795012E+02  0.24062315001E+03  0.25424615887E+03  0.00000000000E+00 0. -1.
         22    1    3    3    0    0  0.27033856727E+02  0.13156306191E+02 -0.90357842018E+02  0.95228448565E+02  0.00000000000E+00 0. -1.
         22    1    3    3    0    0 -0.14257378778E+03  0.56881316563E+02 -0.56794674785E+03  0.58832497612E+03  0.00000000000E+00 0. -1.
</event>
<event>
 7    1  0.2895750E-005  0.1214537E+03  0.7818608E-02  0.1333144E+00
          2   -1    0    0  502    0  0.00000000000E+00  0.00000000000E+00  0.81793248193E+03  0.81793248193E+03  0.00000000000E+00 0. -1.
          1   -1    0    0  501    0 -0.00000000000E+00 -0.00000000000E+00 -0.12720948460E+03  0.12720948460E+03  0.00000000000E+00 0. -1.
         25    2    1    2    0    0  0.43588340515E+02  0.13368299671E+03  0.18915507327E+03  0.26678852726E+03  0.12500155797E+03 0.  0.
          2    1    1    2  501    0  0.51511288774E+01 -0.11923873239E+03 -0.46385562363E+02  0.12804698289E+03  0.00000000000E+00 0. -1.
          1    1    1    2  502    0 -0.48739469392E+02 -0.14444264317E+02  0.54795348643E+03  0.55030645638E+03  0.00000000000E+00 0. -1.
         22    1    3    3    0    0 -0.34995375785E+02  0.22883972244E+02  0.87986261114E+02  0.97416295643E+02  0.00000000000E+00 0. -1.
         22    1    3    3    0    0  0.78583716300E+02  0.11079902446E+03  0.10116881216E+03  0.16937223161E+03  0.00000000000E+00 0. -1.
</event>
<event>
 7    1  0.2895750E-005  0.2369881E+03  0.7818608E-02  0.1186237E+00
          2   -1    0    0  502    0  0.00000000000E+00  0.00000000000E+00  0.15886267382E+04  0.15886267382E+04  0.00000000000E+00 0. -1.
          1   -1    0    0  501    0 -0.00000000000E+00 -0.00000000000E+00 -0.11026787228E+04  0.11026787228E+04  0.00000000000E+00 0. -1.
         25    2    1    2    0    0  0.12142333441E+03  0.23400523132E+03 -0.65130659601E+02  0.29894813286E+03  0.12500363553E+03 0.  0.
          2    1    1    2  501    0 -0.10432363335E+02 -0.23608930891E+03 -0.90332392235E+03  0.93372431942E+03  0.00000000000E+00 0. -1.
          1    1    1    2  502    0 -0.11099097108E+03  0.20840775857E+01  0.14544025974E+04  0.14586330088E+04  0.00000000000E+00 0. -1.
         22    1    3    3    0    0  0.25359708412E+02  0.90550363757E+02 -0.82937327824E+02  0.12538374509E+03  0.00000000000E+00 0.  1.
         22    1    3    3    0    0  0.96063626000E+02  0.14345486756E+03  0.17806668223E+02  0.17356438777E+03  0.00000000000E+00 0.  1.
</event>
<event>
 7    1  0.2895750E-005  0.4231466E+03  0.7818608E-02  0.1192068E+00
          2   -1    0    0  502    0  0.00000000000E+00  0.00000000000E+00  0.10945949361E+04  0.10945949361E+04  0.00000000000E+00 0. -1.
          1   -1    0    0  501    0 -0.00000000000E+00 -0.00000000000E+00 -0.84173402958E+03  0.84173402958E+03  0.00000000000E+00 0. -1.
         25    2    1    2    0    0  0.81118388050E+02  0.38362104160E+03 -0.24333142956E+01  0.41155602548E+03  0.12500857830E+03 0.  0.
          2    1    1    2  501    0  0.51732970889E+02  0.26857485584E+02 -0.58090986415E+03  0.58382693932E+03  0.00000000000E+00 0. -1.
          1    1    1    2  502    0 -0.13285135894E+03 -0.41047852719E+03  0.83620408495E+03  0.94094600086E+03  0.00000000000E+00 0. -1.
         22    1    3    3    0    0  0.74568047662E+02  0.34439325133E+03  0.38515816930E+02  0.35447224637E+03  0.00000000000E+00 0.  1.
         22    1    3    3    0    0  0.65503403876E+01  0.39227790273E+02 -0.40949131226E+02  0.57083779106E+02  0.00000000000E+00 0.  1.
</event>
<event>
 7    1  0.2895750E-005  0.6002378E+02  0.7818608E-02  0.1437234E+00
          2   -1    0    0  502    0  0.00000000000E+00  0.00000000000E+00  0.88447482309E+03  0.88447482309E+03  0.00000000000E+00 0. -1.
          1   -1    0    0  501    0 -0.00000000000E+00 -0.00000000000E+00 -0.53913180554E+02  0.53913180554E+02  0.00000000000E+00 0. -1.
         25    2    1    2    0    0 -0.52041966441E+02 -0.52743618219E+02  0.42505277141E+03  0.44920528808E+03  0.12500110728E+03 0.  0.
          2    1    1    2  501    0  0.83042866223E+01  0.59436347777E+02 -0.18555088495E+02  0.62816653225E+02  0.00000000000E+00 0. -1.
          1    1    1    2  502    0  0.43737679819E+02 -0.66927295575E+01  0.42406395962E+03  0.42636606234E+03  0.00000000000E+00 0. -1.
         22    1    3    3    0    0  0.35522108035E+02  0.10420364834E+02  0.12208435106E+03  0.12757348053E+03  0.00000000000E+00 0. -1.
         22    1    3    3    0    0 -0.87564074476E+02 -0.63163983054E+02  0.30296842035E+03  0.32163180755E+03  0.00000000000E+00 0. -1.
</event>
<event>
 7    1  0.2895750E-005  0.2921485E+03  0.7818608E-02  0.1103566E+00
          2   -1    0    0  502    0  0.00000000000E+00  0.00000000000E+00  0.20552251518E+04  0.20552251518E+04  0.00000000000E+00 0. -1.
          1   -1    0    0  501    0 -0.00000000000E+00 -0.00000000000E+00 -0.46975903454E+03  0.46975903454E+03  0.00000000000E+00 0. -1.
         25    2    1    2    0    0  0.39593336414E+00 -0.35865934001E+03  0.83076109092E+03  0.91346964582E+03  0.12500449873E+03 0.  0.
          2    1    1    2  501    0  0.19665283694E+03  0.21771113113E+03 -0.36363883033E+03  0.46722978696E+03  0.00000000000E+00 0. -1.
          1    1    1    2  502    0 -0.19704877031E+03  0.14094820888E+03  0.11183438567E+04  0.11442847535E+04  0.00000000000E+00 0. -1.
         22    1    3    3    0    0  0.36812620862E+02 -0.43501337774E+02  0.78127872831E+02  0.96703153806E+02  0.00000000000E+00 0.  1.
         22    1    3    3    0    0 -0.36416687498E+02 -0.31515800223E+03  0.75263321809E+03  0.81676649201E+03  0.00000000000E+00 0.  1.
</event>
<event>
 7    1  0.2895750E-005  0.4259722E+02  0.7818608E-02  0.1586480E+00
          2   -1    0    0  502    0  0.00000000000E+00  0.00000000000E+00  0.11340167857E+04  0.11340167857E+04  0.00000000000E+00 0. -1.
          1   -1    0    0  501    0 -0.00000000000E+00 -0.00000000000E+00 -0.10190249111E+04  0.10190249111E+04  0.00000000000E+00 0. -1.
         25    2    1    2    0    0 -0.43944132636E+02  0.12043760284E+01 -0.30473200448E+02  0.13597185989E+03  0.12500877338E+03 0.  0.
          2    1    1    2  501    0  0.37388479368E+02  0.20499479298E+02 -0.93519770257E+03  0.93616925283E+03  0.00000000000E+00 0. -1.
          1    1    1    2  502    0  0.65556532682E+01 -0.21703855326E+02  0.10806627775E+04  0.10809005841E+04  0.00000000000E+00 0. -1.
         22    1    3    3    0    0 -0.33641772954E+02 -0.27575725771E+02 -0.72172773790E+02  0.84268017752E+02  0.00000000000E+00 0.  1.
         22    1    3    3    0    0 -0.10302359682E+02  0.28780101799E+02  0.41699573342E+02  0.51703842135E+02  0.00000000000E+00 0.  1.
</event>
<event>
 7    1  0.2895750E-005  0.2051176E+03  0.7818608E-02  0.1209324E+00
          2   -1    0    0  502    0  0.00000000000E+00  0.00000000000E+00  0.35212464367E+04  0.35212464367E+04  0.00000000000E+00 0. -1.
          1   -1    0    0  501    0 -0.00000000000E+00 -0.00000000000E+00 -0.12065895379E+03  0.12065895379E+03  0.00000000000E+00 0. -1.
         25    2    1    2    0    0 -0.24753484918E+03  0.79618705625E+01  0.66076072759E+02  0.28517753649E+03  0.12499314775E+03 0.  0.
          2    1    1    2  501    0  0.62119814923E+02  0.78008036732E+02  0.31726571463E+03  0.33256827702E+03  0.00000000000E+00 0. -1.
          1    1    1    2  502    0  0.18541503426E+03 -0.85969907295E+02  0.30172456955E+04  0.30241595770E+04  0.00000000000E+00 0. -1.
         22    1    3    3    0    0 -0.16402954967E+02  0.35878273493E+02 -0.91813376959E+01  0.40504375101E+02  0.00000000000E+00 0.  1.
         22    1    3    3    0    0 -0.23113189421E+03 -0.27916402930E+02  0.75257410455E+02  0.24467316139E+03  0.00000000000E+00 0.  1.
</event>
<event>
 7    1  0.2895750E-005  0.8087688E+03  0.7818608E-02  0.1129172E+00
          2   -1    0    0  502    0  0.00000000000E+00  0.00000000000E+00  0.25962315406E+04  0.25962315406E+04  0.00000000000E+00 0. -1.
          1   -1    0    0  501    0 -0.00000000000E+00 -0.00000000000E+00 -0.29798964868E+04  0.29798964868E+04  0.00000000000E+00 0. -1.
         25    2    1    2    0    0  0.61373052937E+03  0.46344199709E+03  0.82864849888E+03  0.11374211996E+04  0.12500001283E+03 0.  0.
          2    1    1    2  501    0 -0.61690155382E+03 -0.52676041059E+03 -0.27666271414E+04  0.28831007261E+04  0.00000000000E+00 0. -1.
          1    1    1    2  502    0  0.31710244484E+01  0.63318413503E+02  0.15543136964E+04  0.15556061017E+04  0.00000000000E+00 0. -1.
         22    1    3    3    0    0  0.54873163774E+03  0.45582007637E+03  0.76810620820E+03  0.10482678567E+04  0.00000000000E+00 0. -1.
         22    1    3    3    0    0  0.64998891634E+02  0.76219207177E+01  0.60542290686E+02  0.89153342901E+02  0.00000000000E+00 0. -1.
</event>
<event>
 7    1  0.2895750E-005  0.9605404E+02  0.7818608E-02  0.1367378E+00
          2   -1    0    0  502    0  0.00000000000E+00  0.00000000000E+00  0.33403940168E+04  0.33403940168E+04  0.00000000000E+00 0. -1.
          1   -1    0    0  501    0 -0.00000000000E+00 -0.00000000000E+00 -0.42124088980E+02  0.42124088980E+02  0.00000000000E+00 0. -1.
         25    2    1    2    0    0 -0.75847977842E+02 -0.62927098266E+02  0.80756841387E+03  0.82310475487E+03  0.12498783530E+03 0.  0.
          2    1    1    2  501    0  0.39622780123E+02 -0.27093665153E+02 -0.16180415196E+02  0.50654093931E+02  0.00000000000E+00 0. -1.
          1    1    1    2  502    0  0.36225197719E+02  0.90020763419E+02  0.25068819292E+04  0.25087592570E+04  0.00000000000E+00 0. -1.
         22    1    3    3    0    0 -0.48264921037E+02 -0.70935804611E+02  0.77477626781E+03  0.77951244771E+03  0.00000000000E+00 0.  1.
         22    1    3    3    0    0 -0.27583056805E+02  0.80087063450E+01  0.32792146055E+02  0.43592307153E+02  0.00000000000E+00 0.  1.
</event>
<event>
 7    1  0.2895750E-005  0.2592215E+03  0.7818608E-02  0.1180262E+00
          2   -1    0    0  502    0  0.00000000000E+00  0.00000000000E+00  0.22342862649E+04  0.22342862649E+04  0.00000000000E+00 0. -1.
          1   -1    0    0  501    0 -0.00000000000E+00 -0.00000000000E+00 -0.35378105024E+03  0.35378105024E+03  0.00000000000E+00 0. -1.
         25    2    1    2    0    0  0.10874332603E+03  0.22696511210E+03  0.34210964637E+03  0.44272144758E+03  0.12499998774E+03 0.  0.
          2    1    1    2  501    0  0.92826077804E+02 -0.56172172651E+02 -0.28393731727E+03  0.30396117160E+03  0.00000000000E+00 0. -1.
          1    1    1    2  502    0 -0.20156940384E+03 -0.17079293945E+03  0.18223328856E+04  0.18413846960E+04  0.00000000000E+00 0. -1.
         22    1    3    3    0    0  0.60178012073E+02  0.66293438700E+02  0.42075097736E+02  0.98926877041E+02  0.00000000000E+00 0.  1.
         22    1    3    3    0    0  0.48565313959E+02  0.16067167340E+03  0.30003454864E+03  0.34379457053E+03  0.00000000000E+00 0.  1.
</event>
<event>
 7    1  0.2895750E-005  0.1699123E+03  0.7818608E-02  0.1354023E+00
          2   -1    0    0  502    0  0.00000000000E+00  0.00000000000E+00  0.10754956811E+04  0.10754956811E+04  0.00000000000E+00 0. -1.
          1   -1    0    0  501    0 -0.00000000000E+00 -0.00000000000E+00 -0.79194791990E+03  0.79194791990E+03  0.00000000000E+00 0. -1.
         25    2    1    2    0    0  0.12539192139E+03 -0.86801118884E+02 -0.34069298535E+03  0.39364395192E+03  0.12500512961E+03 0.  0.
          2    1    1    2  501    0 -0.15043190347E+03  0.10395903457E+03 -0.40486611729E+03  0.44424521537E+03  0.00000000000E+00 0. -1.
          1    1    1    2  502    0  0.25039982084E+02 -0.17157915681E+02  0.10291068638E+04  0.10295544337E+04  0.00000000000E+00 0. -1.
         22    1    3    3    0    0  0.78571970656E+01  0.18822791337E+02 -0.12279742904E+03  0.12447988431E+03  0.00000000000E+00 0. -1.
         22    1    3    3    0    0  0.11753472432E+03 -0.10562391022E+03 -0.21789555631E+03  0.26916406761E+03  0.00000000000E+00 0. -1.
</event>
<event>
 7    1  0.2895750E-005  0.2167995E+03  0.7818608E-02  0.1163618E+00
          2   -1    0    0  502    0  0.00000000000E+00  0.00000000000E+00  0.40363899195E+03  0.40363899195E+03  0.00000000000E+00 0. -1.
          1   -1    0    0  501    0 -0.00000000000E+00 -0.00000000000E+00 -0.51921351697E+03  0.51921351697E+03  0.00000000000E+00 0. -1.
         25    2    1    2    0    0 -0.90675308092E+02 -0.23934915683E+03  0.42830117448E+02  0.28804566997E+03  0.12500343458E+03 0.  0.
          2    1    1    2  501    0 -0.63070485538E+02  0.20839434695E+03 -0.33442371412E+03  0.39905552315E+03  0.00000000000E+00 0. -1.
          1    1    1    2  502    0  0.15374579363E+03  0.30954809878E+02  0.17601907166E+03  0.23575131580E+03  0.00000000000E+00 0. -1.
         22    1    3    3    0    0 -0.82177144520E+02 -0.11420889729E+03 -0.28780656190E+02  0.14361434981E+03  0.00000000000E+00 0.  1.
         22    1    3    3    0    0 -0.84981635715E+01 -0.12514025954E+03  0.71610773638E+02  0.14443132016E+03  0.00000000000E+00 0.  1.
</event>
<event>
 7    1  0.2895750E-005  0.3487892E+02  0.7818608E-02  0.1583661E+00
          2   -1    0    0  502    0  0.00000000000E+00  0.00000000000E+00  0.30601999093E+03  0.30601999093E+03  0.00000000000E+00 0. -1.
          1   -1    0    0  501    0 -0.00000000000E+00 -0.00000000000E+00 -0.14386539193E+03  0.14386539193E+03  0.00000000000E+00 0. -1.
         25    2    1    2    0    0  0.19264223340E+01 -0.25226560545E+02  0.16815137245E+03  0.21104275587E+03  0.12499628109E+03 0.  0.
          2    1    1    2  501    0 -0.29442977138E+02  0.19183192498E+02 -0.11811885905E+03  0.12323533844E+03  0.00000000000E+00 0. -1.
          1    1    1    2  502    0  0.27516554804E+02  0.60433680477E+01  0.11212208560E+03  0.11560728855E+03  0.00000000000E+00 0. -1.
         22    1    3    3    0    0 -0.12584928492E+02 -0.67670468173E+02  0.51202969301E+02  0.85787043038E+02  0.00000000000E+00 0. -1.
         22    1    3    3    0    0  0.14511350826E+02  0.42443907628E+02  0.11694840315E+03  0.12525571283E+03  0.00000000000E+00 0. -1.
</event>
<event>
 7    1  0.2895750E-005  0.3061892E+03  0.7818608E-02  0.1180839E+00
          2   -1    0    0  502    0  0.00000000000E+00  0.00000000000E+00  0.39391558971E+04  0.39391558971E+04  0.00000000000E+00 0. -1.
          1   -1    0    0  501    0 -0.00000000000E+00 -0.00000000000E+00 -0.35169362207E+03  0.35169362207E+03  0.00000000000E+00 0. -1.
         25    2    1    2    0    0 -0.18384091280E+02  0.30738917319E+03  0.16501110074E+03  0.37104725010E+03  0.12498527847E+03 0.  0.
          2    1    1    2  501    0  0.10791399956E+03 -0.28969276858E+03 -0.15179119904E+03  0.34439497612E+03  0.00000000000E+00 0. -1.
          1    1    1    2  502    0 -0.89529908280E+02 -0.17696404607E+02  0.35742423733E+04  0.35754072929E+04  0.00000000000E+00 0. -1.
         22    1    3    3    0    0 -0.63033771262E+02  0.23186050675E+03  0.93388653329E+02  0.25778671704E+03  0.00000000000E+00 0.  1.
         22    1    3    3    0    0  0.44649679983E+02  0.75528666439E+02  0.71622447410E+02  0.11326053306E+03  0.00000000000E+00 0.  1.
</event>
<event>
 7    1  0.2895750E-005  0.6757347E+03  0.7818608E-02  0.1202738E+00
          2   -1    0    0  502    0  0.00000000000E+00  0.00000000000E+00  0.79970107068E+03  0.79970107068E+03  0.00000000000E+00 0. -1.
          1   -1    0    0  501    0 -0.00000000000E+00 -0.00000000000E+00 -0.27582961316E+04  0.27582961316E+04  0.00000000000E+00 0. -1.
         25    2    1    2    0    0  0.65612276942E+03  0.17957182596E+03  0.35183908903E+03  0.77598685176E+03  0.12498688057E+03 0.  0.
          2    1    1    2  501    0 -0.65716826873E+01 -0.31818712978E+02 -0.20753471817E+04  0.20756014892E+04  0.00000000000E+00 0. -1.
          1    1    1    2  502    0 -0.64955108673E+03 -0.14775311298E+03 -0.23508696825E+03  0.70640886129E+03  0.00000000000E+00 0. -1.
         22    1    3    3    0    0  0.32426065590E+03  0.15330015575E+03  0.18784812888E+03  0.40488619418E+03  0.00000000000E+00 0. -1.
         22    1    3    3    0    0  0.33186211352E+03  0.26271670206E+02  0.16399096015E+03  0.37110065758E+03  0.00000000000E+00 0. -1.
</event>
<event>
 7    1  0.2895750E-005  0.1128558E+03  0.7818608E-02  0.1326930E+00
          2   -1    0    0  502    0  0.00000000000E+00  0.00000000000E+00  0.36989659374E+04  0.36989659374E+04  0.00000000000E+00 0. -1.
          1   -1    0    0  501    0 -0.00000000000E+00 -0.00000000000E+00 -0.61734330999E+03  0.61734330999E+03  0.00000000000E+00 0. -1.
         25    2    1    2    0    0  0.81439795163E+02  0.13674501784E+03  0.20226164465E+03  0.28612321859E+03  0.12500033270E+03 0.  0.
          2    1    1    2  501    0 -0.21103144011E+01 -0.57742340560E+02 -0.57305226355E+03  0.57595792214E+03  0.00000000000E+00 0. -1.
          1    1    1    2  502    0 -0.79329480762E+02 -0.79002677279E+02  0.34524132463E+04  0.34542281066E+04  0.00000000000E+00 0. -1.
         22    1    3    3    0    0 -0.29309001255E+02  0.59704551878E+02  0.54028757543E+02  0.85689892701E+02  0.00000000000E+00 0. -1.
         22    1    3    3    0    0  0.11074879642E+03  0.77040465961E+02  0.14823288711E+03  0.20043332588E+03  0.00000000000E+00 0. -1.
</event>
<event>
 7    1  0.2895750E-005  0.2296808E+03  0.7818608E-02  0.1199789E+00
          2   -1    0    0  502    0  0.00000000000E+00  0.00000000000E+00  0.15942919126E+04  0.15942919126E+04  0.00000000000E+00 0. -1.
          1   -1    0    0  501    0 -0.00000000000E+00 -0.00000000000E+00 -0.39242855495E+03  0.39242855495E+03  0.00000000000E+00 0. -1.
         25    2    1    2    0    0  0.89053098742E+01  0.16380883632E+03  0.14724255809E+04  0.14868001647E+04  0.12499999631E+03 0.  0.
          2    1    1    2  501    0  0.72141196676E+02 -0.22012548516E+03 -0.31555861430E+03  0.39145474902E+03  0.00000000000E+00 0. -1.
          1    1    1    2  502    0 -0.81046506551E+02  0.56316648835E+02  0.44996391063E+02  0.10846555383E+03  0.00000000000E+00 0. -1.
         22    1    3    3    0    0 -0.52531096867E+02  0.41162897840E+02  0.59249531671E+03  0.59624206546E+03  0.00000000000E+00 0. -1.
         22    1    3    3    0    0  0.61436406741E+02  0.12264593848E+03  0.87993026420E+03  0.89055809926E+03  0.00000000000E+00 0. -1.
</event>
<event>
 7    1  0.2895750E-005  0.6842082E+03  0.7818608E-02  0.1181505E+00
          2   -1    0    0  502    0  0.00000000000E+00  0.00000000000E+00  0.11775025247E+04  0.11775025247E+04  0.00000000000E+00 0. -1.
          1   -1    0    0  501    0 -0.00000000000E+00 -0.00000000000E+00 -0.75235798900E+03  0.75235798900E+03  0.00000000000E+00 0. -1.
         25    2    1    2    0    0 -0.67233505829E+03  0.20774220114E+03  0.34355718307E+02  0.71553963430E+03  0.12500160052E+03 0.  0.
          2    1    1    2  501    0  0.18218577800E+02 -0.36212120944E+02 -0.26751908897E+03  0.27057290560E+03  0.00000000000E+00 0. -1.
          1    1    1    2  502    0  0.65411648049E+03 -0.17153008020E+03  0.65830790639E+03  0.94374797381E+03  0.00000000000E+00 0. -1.
         22    1    3    3    0    0 -0.32712362685E+03  0.11585044371E+03  0.77886049886E+02  0.35566477098E+03  0.00000000000E+00 0. -1.
         22    1    3    3    0    0 -0.34521143144E+03  0.91891757432E+02 -0.43530331579E+02  0.35987486332E+03  0.00000000000E+00 0. -1.
</event>
<event>
 7    1  0.2895750E-005  0.3882595E+03  0.7818608E-02  0.1064679E+00
          2   -1    0    0  502    0  0.00000000000E+00  0.00000000000E+00  0.16163595507E+04  0.16163595507E+04  0.00000000000E+00 0. -1.
          1   -1    0    0  501    0 -0.00000000000E+00 -0.00000000000E+00 -0.14205807956E+04  0.14205807956E+04  0.00000000000E+00 0. -1.
         25    2    1    2    0    0  0.58999257386E+03  0.19128261850E+03 -0.28987433668E+03  0.69593871772E+03  0.12499316141E+03 0.  0.
          2    1    1    2  501    0 -0.28398445618E+03 -0.21020520080E+03 -0.87636278562E+03  0.94490482580E+03  0.00000000000E+00 0. -1.
          1    1    1    2  502    0 -0.30600811768E+03  0.18922582298E+02  0.13620158774E+04  0.13960968027E+04  0.00000000000E+00 0. -1.
         22    1    3    3    0    0  0.38934345709E+03  0.70328984796E+02 -0.21316237286E+03  0.44941371906E+03  0.00000000000E+00 0.  1.
         22    1    3    3    0    0  0.20064911678E+03  0.12095363371E+03 -0.76711963828E+02  0.24652499866E+03  0.00000000000E+00 0.  1.
</event>
<event>
 7    1  0.2895750E-005  0.4014144E+03  0.7818608E-02  0.1249595E+00
          2   -1    0    0  502    0  0.00000000000E+00  0.00000000000E+00  0.25017142583E+04  0.25017142583E+04  0.00000000000E+00 0. -1.
          1   -1    0    0  501    0 -0.00000000000E+00 -0.00000000000E+00 -0.69228544067E+03  0.69228544067E+03  0.00000000000E+00 0. -1.
         25    2    1    2    0    0 -0.42594011839E+03 -0.58143807188E+02  0.29134585553E+03  0.53414732696E+03  0.12500109037E+03 0.  0.
          2    1    1    2  501    0  0.39364399274E+03  0.48854554245E+02 -0.50182520450E+03  0.63966467494E+03  0.00000000000E+00 0. -1.
          1    1    1    2  502    0  0.32296125649E+02  0.92892529437E+01  0.20199081666E+04  0.20201876971E+04  0.00000000000E+00 0. -1.
         22    1    3    3    0    0 -0.63141815256E+02  0.23975306667E+02  0.85683112290E+02  0.10910224514E+03  0.00000000000E+00 0. -1.
         22    1    3    3    0    0 -0.36279830313E+03 -0.82119113856E+02  0.20566274324E+03  0.42504508181E+03  0.00000000000E+00 0. -1.
</event>
<event>
 7    1  0.2895750E-005  0.3036380E+03  0.7818608E-02  0.1140729E+00
          2   -1    0    0  502    0  0.00000000000E+00  0.00000000000E+00  0.13771323594E+04  0.13771323594E+04  0.00000000000E+00 0. -1.
          1   -1    0    0  501    0 -0.00000000000E+00 -0.00000000000E+00 -0.58338327420E+03  0.58338327420E+03  0.00000000000E+00 0. -1.
         25    2    1    2    0    0  0.25063250317E+03 -0.27846671917E+03  0.85449913515E+03  0.94136025931E+03  0.12502000039E+03 0.  0.
          2    1    1    2  501    0 -0.13688227098E+03  0.52791590939E+02 -0.49523934133E+03  0.51651303312E+03  0.00000000000E+00 0. -1.
          1    1    1    2  502    0 -0.11375023219E+03  0.22567512824E+03  0.43448929141E+03  0.50264234121E+03  0.00000000000E+00 0. -1.
         22    1    3    3    0    0  0.70560610393E+02 -0.10341088316E+03  0.43281588794E+03  0.45055765819E+03  0.00000000000E+00 0.  1.
         22    1    3    3    0    0  0.18007189278E+03 -0.17505583602E+03  0.42168324721E+03  0.49080260112E+03  0.00000000000E+00 0.  1.
</event>
<event>
 7    1  0.2895750E-005  0.4128159E+03  0.7818608E-02  0.1101198E+00
          2   -1    0    0  502    0  0.00000000000E+00  0.00000000000E+00  0.15255848066E+04  0.15255848066E+04  0.00000000000E+00 0. -1.
          1   -1    0    0  501    0 -0.00000000000E+00 -0.00000000000E+00 -0.15053449771E+04  0.15053449771E+04  0.00000000000E+00 0. -1.
         25    2    1    2    0    0 -0.32099335343E+03 -0.50251147597E+02  0.15308059381E+03  0.38029004274E+03  0.12499975051E+03 0.  0.
          2    1    1    2  501    0 -0.12099950662E+03  0.12887875813E+03 -0.13457519891E+04  0.13573131662E+04  0.00000000000E+00 0. -1.
          1    1    1    2  502    0  0.44199286004E+03 -0.78627610530E+02  0.12129112248E+04  0.12933265747E+04  0.00000000000E+00 0. -1.
         22    1    3    3    0    0 -0.17665855564E+03  0.72789953860E+00  0.14228924318E+03  0.22683695432E+03  0.00000000000E+00 0.  1.
         22    1    3    3    0    0 -0.14433479778E+03 -0.50979047136E+02  0.10791350632E+02  0.15345308842E+03  0.00000000000E+00 0.  1.
</event>
<event>
 7    1  0.2895750E-005  0.1111514E+03  0.7818608E-02  0.1325450E+00
          2   -1    0    0  502    0  0.00000000000E+00  0.00000000000E+00  0.97390863799E+03  0.97390863799E+03  0.00000000000E+00 0. -1.
          1   -1    0    0  501    0 -0.00000000000E+00 -0.00000000000E+00 -0.17410548923E+03  0.17410548923E+03  0.00000000000E+00 0. -1.
         25    2    1    2    0    0 -0.73300682910E+02  0.48390347073E+02 -0.17379591659E+02  0.15375733238E+03  0.12499860500E+03 0.  0.
          2    1    1    2  501    0  0.25597050658E+02  0.53646673355E+02 -0.74602042573E+02  0.95386787976E+02  0.00000000000E+00 0. -1.
          1    1    1    2  502    0  0.47703632252E+02 -0.10203702043E+03  0.89178478299E+03  0.89887000687E+03  0.00000000000E+00 0. -1.
         22    1    3    3    0    0 -0.39739823053E+02  0.71745944576E+02  0.33404886386E+02  0.88558571205E+02  0.00000000000E+00 0.  1.
         22    1    3    3    0    0 -0.33560859857E+02 -0.23355597504E+02 -0.50784478044E+02  0.65198761179E+02  0.00000000000E+00 0.  1.
</event>
<event>
 7    1  0.2895750E-005  0.1036937E+03  0.7818608E-02  0.1291655E+00
          2   -1    0    0  502    0  0.00000000000E+00  0.00000000000E+00  0.19009333470E+04  0.19009333470E+04  0.00000000000E+00 0. -1.
          1   -1    0    0  501    0 -0.00000000000E+00 -0.00000000000E+00 -0.98484394933E+02  0.98484394933E+02  0.00000000000E+00 0. -1.
         25    2    1    2    0    0 -0.14610619839E+03 -0.61692778175E+01  0.97589950138E+02  0.21571728222E+03  0.12500026514E+03 0.  0.
          2    1    1    2  501    0  0.59731425967E+02  0.62767574254E+02  0.11743506822E+02  0.87438673242E+02  0.00000000000E+00 0. -1.
          1    1    1    2  502    0  0.86374772421E+02 -0.56598296437E+02  0.16931154951E+04  0.16962617865E+04  0.00000000000E+00 0. -1.
         22    1    3    3    0    0 -0.17954687343E+02 -0.14959037992E+02 -0.27726624864E+02  0.36261678693E+02  0.00000000000E+00 0.  1.
         22    1    3    3    0    0 -0.12815151104E+03  0.87897601748E+01  0.12531657500E+03  0.17945560353E+03  0.00000000000E+00 0.  1.
</event>
<event>
 7    1  0.2895750E-005  0.9279216E+02  0.7818608E-02  0.1304154E+00
          2   -1    0    0  502    0  0.00000000000E+00  0.00000000000E+00  0.28397223407E+04  0.28397223407E+04  0.00000000000E+00 0. -1.
          1   -1    0    0  501    0 -0.00000000000E+00 -0.00000000000E+00 -0.99863946960E+03  0.99863946960E+03  0.00000000000E+00 0. -1.
         25    2    1    2    0    0 -0.11665451183E+02 -0.11259384598E+03  0.12086311616E+03  0.20747599190E+03  0.12499974985E+03 0.  0.
          2    1    1    2  501    0 -0.63793489842E+02  0.58056139671E+02 -0.95257382569E+03  0.95647112769E+03  0.00000000000E+00 0. -1.
          1    1    1    2  502    0  0.75458941024E+02  0.54537706312E+02  0.26727935807E+04  0.26744146907E+04  0.00000000000E+00 0. -1.
         22    1    3    3    0    0 -0.31028823918E+02 -0.96020668599E+02  0.19268157560E+02  0.10273275333E+03  0.00000000000E+00 0.  1.
         22    1    3    3    0    0  0.19363372735E+02 -0.16573177385E+02  0.10159495860E+03  0.10474323857E+03  0.00000000000E+00 0.  1.
</event>
<event>
 7    1  0.2895750E-005  0.8037808E+02  0.7818608E-02  0.1490402E+00
          2   -1    0    0  502    0  0.00000000000E+00  0.00000000000E+00  0.56600325196E+03  0.56600325196E+03  0.00000000000E+00 0. -1.
          1   -1    0    0  501    0 -0.00000000000E+00 -0.00000000000E+00 -0.80653832318E+02  0.80653832318E+02  0.00000000000E+00 0. -1.
         25    2    1    2    0    0 -0.15578753446E+02 -0.58460734117E+02  0.52463731026E+02  0.14845176600E+03  0.12500051505E+03 0.  0.
          2    1    1    2  501    0  0.23784970188E+01 -0.22373822533E+02 -0.24662589442E+02  0.33383955739E+02  0.00000000000E+00 0. -1.
          1    1    1    2  502    0  0.13200256428E+02  0.80834556651E+02  0.45754827806E+03  0.46482136254E+03  0.00000000000E+00 0. -1.
         22    1    3    3    0    0  0.19246264578E+02  0.13557331360E+02  0.63476207293E+02  0.67701173004E+02  0.00000000000E+00 0.  1.
         22    1    3    3    0    0 -0.34825018025E+02 -0.72018065478E+02 -0.11012476267E+02  0.80750592995E+02  0.00000000000E+00 0.  1.
</event>
<event>
 7    1  0.2895750E-005  0.1866220E+03  0.7818608E-02  0.1278326E+00
          2   -1    0    0  502    0  0.00000000000E+00  0.00000000000E+00  0.31249619802E+04  0.31249619802E+04  0.00000000000E+00 0. -1.
          1   -1    0    0  501    0 -0.00000000000E+00 -0.00000000000E+00 -0.82355351429E+03  0.82355351429E+03  0.00000000000E+00 0. -1.
         25    2    1    2    0    0  0.12595068148E+03 -0.14371553032E+03  0.30095376691E+04  0.30181878108E+04  0.12499180666E+03 0.  0.
          2    1    1    2  501    0 -0.47893764566E+02  0.26215461815E+02 -0.77309632972E+03  0.77502193398E+03  0.00000000000E+00 0. -1.
          1    1    1    2  502    0 -0.78056916915E+02  0.11750006850E+03  0.64967126595E+02  0.15530574978E+03  0.00000000000E+00 0. -1.
         22    1    3    3    0    0  0.25613953738E+02 -0.72940540534E+02  0.52963569537E+03  0.53524794898E+03  0.00000000000E+00 0.  1.
         22    1    3    3    0    0  0.10033672774E+03 -0.70774989782E+02  0.24799019737E+04  0.24829398618E+04  0.00000000000E+00 0.  1.
</event>
<event>
 7    1  0.2895750E-005  0.1016376E+03  0.7818608E-02  0.1332266E+00
          2   -1    0    0  502    0  0.00000000000E+00  0.00000000000E+00  0.53920316391E+03  0.53920316391E+03  0.00000000000E+00 0. -1.
          1   -1    0    0  501    0 -0.00000000000E+00 -0.00000000000E+00 -0.82065844401E+03  0.82065844401E+03  0.00000000000E+00 0. -1.
         25    2    1    2    0    0  0.72696398824E+02 -0.82644461380E+02 -0.35921387743E+02  0.17038232765E+03  0.12499967231E+03 0.  0.
          2    1    1    2  501    0 -0.98444249023E+02  0.27108015804E+02 -0.71186334525E+03  0.71914917576E+03  0.00000000000E+00 0. -1.
          1    1    1    2  502    0  0.25747850198E+02  0.55536445577E+02  0.46632945289E+03  0.47033010451E+03  0.00000000000E+00 0. -1.
         22    1    3    3    0    0  0.65971684359E+02  0.11712599506E+01  0.20533497889E+02  0.69103252620E+02  0.00000000000E+00 0.  1.
         22    1    3    3    0    0  0.67247144650E+01 -0.83815721331E+02 -0.56454885632E+02  0.10127907503E+03  0.00000000000E+00 0.  1.
</event>
<event>
 7    1  0.2895750E-005  0.5408674E+03  0.7818608E-02  0.1118802E+00
          2   -1    0    0  502    0  0.00000000000E+00  0.00000000000E+00  0.22461972260E+04  0.22461972260E+04  0.00000000000E+00 0. -1.
          1   -1    0    0  501    0 -0.00000000000E+00 -0.00000000000E+00 -0.34740142621E+03  0.34740142621E+03  0.00000000000E+00 0. -1.
         25    2    1    2    0    0 -0.57590225072E+03  0.98149606098E+02  0.96247725012E+03  0.11328207643E+04  0.12499471788E+03 0.  0.
          2    1    1    2  501    0  0.53128198966E+03  0.98970892323E-02  0.13264588635E+02  0.53144755334E+03  0.00000000000E+00 0. -1.
          1    1    1    2  502    0  0.44620261059E+02 -0.98159503188E+02  0.92305396101E+03  0.92933033454E+03  0.00000000000E+00 0. -1.
         22    1    3    3    0    0 -0.14840075342E+02  0.25912192858E+02  0.70794418680E+02  0.76834362697E+02  0.00000000000E+00 0. -1.
         22    1    3    3    0    0 -0.56106217538E+03  0.72237413240E+02  0.89168283144E+03  0.10559864016E+04  0.00000000000E+00 0. -1.
</event>
<event>
 7    1  0.2895750E-005  0.1553561E+03  0.7818608E-02  0.1400498E+00
          2   -1    0    0  502    0  0.00000000000E+00  0.00000000000E+00  0.56436454013E+03  0.56436454013E+03  0.00000000000E+00 0. -1.
          1   -1    0    0  501    0 -0.00000000000E+00 -0.00000000000E+00 -0.24062534211E+03  0.24062534211E+03  0.00000000000E+00 0. -1.
         25    2    1    2    0    0 -0.13846101335E+03 -0.59120031349E+02  0.34397798535E+03  0.39574055148E+03  0.12499239716E+03 0.  0.
          2    1    1    2  501    0  0.13303929612E+03  0.81150635718E+02 -0.18559521907E+03  0.24234369257E+03  0.00000000000E+00 0. -1.
          1    1    1    2  502    0  0.54217172312E+01 -0.22030604369E+02  0.16535643173E+03  0.16690563820E+03  0.00000000000E+00 0. -1.
         22    1    3    3    0    0 -0.16066642927E+03 -0.43631641849E+02  0.27282018291E+03  0.31960643590E+03  0.00000000000E+00 0. -1.
         22    1    3    3    0    0  0.22205415922E+02 -0.15488389500E+02  0.71157802444E+02  0.76134115574E+02  0.00000000000E+00 0. -1.
</event>
<event>
 7    1  0.2895750E-005  0.1935202E+03  0.7818608E-02  0.1301143E+00
          2   -1    0    0  502    0  0.00000000000E+00  0.00000000000E+00  0.21981940845E+04  0.21981940845E+04  0.00000000000E+00 0. -1.
          1   -1    0    0  501    0 -0.00000000000E+00 -0.00000000000E+00 -0.29235843614E+03  0.29235843614E+03  0.00000000000E+00 0. -1.
         25    2    1    2    0    0  0.21430994835E+02 -0.18910055432E+03  0.20926060440E+03  0.30924083720E+03  0.12498634988E+03 0.  0.
          2    1    1    2  501    0 -0.42328473746E+02 -0.40155693811E+01 -0.23559572404E+03  0.23940169104E+03  0.00000000000E+00 0. -1.
          1    1    1    2  502    0  0.20897478910E+02  0.19311612370E+03  0.19321707680E+04  0.19419099924E+04  0.00000000000E+00 0. -1.
         22    1    3    3    0    0  0.31393761757E+02 -0.20874251268E+00  0.67135532087E+01  0.32104262137E+02  0.00000000000E+00 0. -1.
         22    1    3    3    0    0 -0.99627669216E+01 -0.18889181180E+03  0.20254705119E+03  0.27713657506E+03  0.00000000000E+00 0. -1.
</event>
<event>
 7    1  0.2895750E-005  0.7457360E+03  0.7818608E-02  0.1065005E+00
          2   -1    0    0  502    0  0.00000000000E+00  0.00000000000E+00  0.28562626717E+04  0.28562626717E+04  0.00000000000E+00 0. -1.
          1   -1    0    0  501    0 -0.00000000000E+00 -0.00000000000E+00 -0.25735535995E+04  0.25735535995E+04  0.00000000000E+00 0. -1.
         25    2    1    2    0    0 -0.22788317080E+03  0.64676447432E+03  0.11324654079E+04  0.13297884109E+04  0.12499717143E+03 0.  0.
          2    1    1    2  501    0  0.61441244250E+02  0.14654498903E+03 -0.23709919030E+04  0.23763108097E+04  0.00000000000E+00 0. -1.
          1    1    1    2  502    0  0.16644192655E+03 -0.79330946335E+03  0.15212355672E+04  0.17237170506E+04  0.00000000000E+00 0. -1.
         22    1    3    3    0    0  0.10076624438E+02  0.41645352837E+02  0.11037281397E+03  0.11839776956E+03  0.00000000000E+00 0. -1.
         22    1    3    3    0    0 -0.23795979524E+03  0.60511912148E+03  0.10220925940E+04  0.12113906414E+04  0.00000000000E+00 0. -1.
</event>
<event>
 7    1  0.2895750E-005  0.7739367E+02  0.7818608E-02  0.1337915E+00
          2   -1    0    0  502    0  0.00000000000E+00  0.00000000000E+00  0.45066727408E+04  0.45066727408E+04  0.00000000000E+00 0. -1.
          1   -1    0    0  501    0 -0.00000000000E+00 -0.00000000000E+00 -0.95342253911E+02  0.95342253911E+02  0.00000000000E+00 0. -1.
         25    2    1    2    0    0 -0.48934555587E+02  0.33681348256E+02  0.68574091920E+03  0.69956759056E+03  0.12500072617E+03 0.  0.
          2    1    1    2  501    0  0.65600431576E+02  0.41896620472E+02 -0.70828933489E+02  0.10524011236E+03  0.00000000000E+00 0. -1.
          1    1    1    2  502    0 -0.16665875990E+02 -0.75577968728E+02  0.37964185011E+04  0.37972072917E+04  0.00000000000E+00 0. -1.
         22    1    3    3    0    0 -0.21777762361E+02  0.90139971742E+01  0.64219393748E+03  0.64262631165E+03  0.00000000000E+00 0.  1.
         22    1    3    3    0    0 -0.27156793226E+02  0.24667351082E+02  0.43546981721E+02  0.56941278917E+02  0.00000000000E+00 0.  1.
</event>
<event>
 7    1  0.2895750E-005  0.6497200E+02  0.7818608E-02  0.1381804E+00
          2   -1    0    0  502    0  0.00000000000E+00  0.00000000000E+00  0.83993472139E+02  0.83993472139E+02  0.00000000000E+00 0. -1.
          1   -1    0    0  501    0 -0.00000000000E+00 -0.00000000000E+00 -0.16160335354E+04  0.16160335354E+04  0.00000000000E+00 0. -1.
         25    2    1    2    0    0 -0.75011864887E+02 -0.13212954567E+01 -0.12938064718E+03  0.19491763482E+03  0.12500002722E+03 0.  0.
          2    1    1    2  501    0  0.38623187302E+02  0.52782303026E+02 -0.14334654769E+04  0.14349567923E+04  0.00000000000E+00 0. -1.
          1    1    1    2  502    0  0.36388677585E+02 -0.51461007569E+02  0.30806060861E+02  0.70152580438E+02  0.00000000000E+00 0. -1.
         22    1    3    3    0    0  0.24581269664E+02  0.22970406126E+02 -0.66850423632E+02  0.74838877034E+02  0.00000000000E+00 0.  1.
         22    1    3    3    0    0 -0.99593134552E+02 -0.24291701583E+02 -0.62530223544E+02  0.12007875779E+03  0.00000000000E+00 0.  1.
</event>
<event>
 7    1  0.2895750E-005  0.3213475E+03  0.7818608E-02  0.1225466E+00
          2   -1    0    0  502    0  0.00000000000E+00  0.00000000000E+00  0.13135404661E+04  0.13135404661E+04  0.00000000000E+00 0. -1.
          1   -1    0    0  501    0 -0.00000000000E+00 -0.00000000000E+00 -0.55013554304E+03  0.55013554304E+03  0.00000000000E+00 0. -1.
         25    2    1    2    0    0 -0.10564802658E+03  0.32685097879E+03 -0.36875920194E+03  0.51923136365E+03  0.12499916850E+03 0.  0.
          2    1    1    2  501    0  0.52590754491E+02 -0.10803494309E+02 -0.76811810531E+02  0.93715298561E+02  0.00000000000E+00 0. -1.
          1    1    1    2  502    0  0.53057272087E+02 -0.31604748448E+03  0.12089759356E+04  0.12507293470E+04  0.00000000000E+00 0. -1.
         22    1    3    3    0    0 -0.74113935794E+02  0.31198650235E+03 -0.36220788640E+03  0.48375924394E+03  0.00000000000E+00 0.  1.
         22    1    3    3    0    0 -0.31534090784E+02  0.14864476434E+02 -0.65513155430E+01  0.35472119708E+02  0.00000000000E+00 0.  1.
</event>
<event>
 7    1  0.2895750E-005  0.8068082E+02  0.7818608E-02  0.1387733E+00
          2   -1    0    0  502    0  0.00000000000E+00  0.00000000000E+00  0.35497436743E+03  0.35497436743E+03  0.00000000000E+00 0. -1.
          1   -1    0    0  501    0 -0.00000000000E+00 -0.00000000000E+00 -0.66594427802E+03  0.66594427802E+03  0.00000000000E+00 0. -1.
         25    2    1    2    0    0 -0.72189712078E+02 -0.80542940090E+02  0.46983861354E+02  0.17184086803E+03  0.12499312369E+03 0.  0.
          2    1    1    2  501    0  0.33152752705E+00  0.48374822332E+02 -0.59620038716E+03  0.59815979052E+03  0.00000000000E+00 0. -1.
          1    1    1    2  502    0  0.71858184551E+02  0.32168117758E+02  0.23824661521E+03  0.25091798690E+03  0.00000000000E+00 0. -1.
         22    1    3    3    0    0  0.16242303964E+02 -0.74515825070E+02  0.27623341574E+02  0.81113929899E+02  0.00000000000E+00 0.  1.
         22    1    3    3    0    0 -0.88432016042E+02 -0.60271150199E+01  0.19360519780E+02  0.90726938132E+02  0.00000000000E+00 0.  1.
</event>
<event>
 7    1  0.2895750E-005  0.1091558E+03  0.7818608E-02  0.1461975E+00
          2   -1    0    0  502    0  0.00000000000E+00  0.00000000000E+00  0.92646988450E+02  0.92646988450E+02  0.00000000000E+00 0. -1.
          1   -1    0    0  501    0 -0.00000000000E+00 -0.00000000000E+00 -0.17181922042E+04  0.17181922042E+04  0.00000000000E+00 0. -1.
         25    2    1    2    0    0 -0.11855184851E+03  0.45284861513E+02 -0.47119843266E+03  0.50374862190E+03  0.12501780534E+03 0.  0.
          2    1    1    2  501    0  0.99530371781E+02 -0.38268410200E+02 -0.12270187310E+04  0.12316435087E+04  0.00000000000E+00 0. -1.
          1    1    1    2  502    0  0.19021476728E+02 -0.70164513135E+01  0.72671947925E+02  0.75447062111E+02  0.00000000000E+00 0. -1.
         22    1    3    3    0    0 -0.60510888081E+01 -0.15217802892E+02 -0.23201607218E+03  0.23259332525E+03  0.00000000000E+00 0.  1.
         22    1    3    3    0    0 -0.11250075970E+03  0.60502664405E+02 -0.23918236048E+03  0.27115529665E+03  0.00000000000E+00 0.  1.
</event>
<event>
 7    1  0.2895750E-005  0.1363124E+03  0.7818608E-02  0.1353652E+00
          2   -1    0    0  502    0  0.00000000000E+00  0.00000000000E+00  0.99501317769E+03  0.99501317769E+03  0.00000000000E+00 0. -1.
          1   -1    0    0  501    0 -0.00000000000E+00 -0.00000000000E+00 -0.72588030094E+03  0.72588030094E+03  0.00000000000E+00 0. -1.
         25    2    1    2    0    0  0.12229286698E+03 -0.88701305600E+01  0.57084617306E+03  0.59709601322E+03  0.12499628461E+03 0.  0.
          2    1    1    2  501    0  0.25165218812E+02 -0.28414202355E+02 -0.69815187095E+03  0.69918287311E+03  0.00000000000E+00 0. -1.
          1    1    1    2  502    0 -0.14745808579E+03  0.37284332915E+02  0.39643857463E+03  0.42461459231E+03  0.00000000000E+00 0. -1.
         22    1    3    3    0    0  0.14246171300E+03 -0.21482127042E+02  0.53511873123E+03  0.55417405025E+03  0.00000000000E+00 0. -1.
         22    1    3    3    0    0 -0.20168846020E+02  0.12611996482E+02  0.35727441830E+02  0.42921962965E+02  0.00000000000E+00 0. -1.
</event>
<event>
 7    1  0.2895750E-005  0.9775304E+02  0.7818608E-02  0.1348268E+00
          2   -1    0    0  502    0  0.00000000000E+00  0.00000000000E+00  0.73656602455E+03  0.73656602455E+03  0.00000000000E+00 0. -1.
          1   -1    0    0  501    0 -0.00000000000E+00 -0.00000000000E+00 -0.99528630377E+03  0.99528630377E+03  0.00000000000E+00 0. -1.
         25    2    1    2    0    0 -0.49263944318E+02 -0.42490505940E+02  0.33950092782E+02  0.14494920154E+03  0.12500113168E+03 0.  0.
          2    1    1    2  501    0 -0.49761911985E+02  0.24376765473E+02 -0.93504640950E+03  0.93668685402E+03  0.00000000000E+00 0. -1.
          1    1    1    2  502    0  0.99025856304E+02  0.18113740467E+02  0.64237603750E+03  0.65021627276E+03  0.00000000000E+00 0. -1.
         22    1    3    3    0    0 -0.49955649183E+02 -0.13812257797E+02 -0.40103512180E+02  0.65533480298E+02  0.00000000000E+00 0.  1.
         22    1    3    3    0    0  0.69170486489E+00 -0.28678248143E+02  0.74053604961E+02  0.79415721239E+02  0.00000000000E+00 0.  1.
</event>
<event>
 7    1  0.2895750E-005  0.2002934E+03  0.7818608E-02  0.1164313E+00
          2   -1    0    0  502    0  0.00000000000E+00  0.00000000000E+00  0.66797370571E+03  0.66797370571E+03  0.00000000000E+00 0. -1.
          1   -1    0    0  501    0 -0.00000000000E+00 -0.00000000000E+00 -0.23734867400E+03  0.23734867400E+03  0.00000000000E+00 0. -1.
         25    2    1    2    0    0 -0.57963467901E+02  0.86234251431E+02  0.40355318571E+03  0.43505893561E+03  0.12499997610E+03 0.  0.
          2    1    1    2  501    0 -0.51012665999E+02 -0.21461465562E+03 -0.11605487731E+03  0.24925985847E+03  0.00000000000E+00 0. -1.
          1    1    1    2  502    0  0.10897613390E+03  0.12838040419E+03  0.14312672330E+03  0.22100358563E+03  0.00000000000E+00 0. -1.
         22    1    3    3    0    0 -0.37494439936E+02  0.11799081684E+03  0.32795132147E+03  0.35054205902E+03  0.00000000000E+00 0.  1.
         22    1    3    3    0    0 -0.20469027965E+02 -0.31756565411E+02  0.75601864240E+02  0.84516876593E+02  0.00000000000E+00 0.  1.
</event>
<event>
 7    1  0.2895750E-005  0.1588645E+03  0.7818608E-02  0.1331890E+00
          2   -1    0    0  502    0  0.00000000000E+00  0.00000000000E+00  0.63874453239E+03  0.63874453239E+03  0.00000000000E+00 0. -1.
          1   -1    0    0  501    0 -0.00000000000E+00 -0.00000000000E+00 -0.18512311926E+04  0.18512311926E+04  0.00000000000E+00 0. -1.
         25    2    1    2    0    0 -0.83098734303E+02 -0.88939938659E+02  0.29419773547E+03  0.34204364993E+03  0.12500335425E+03 0.  0.
          2    1    1    2  501    0  0.98710058375E+02  0.12499884094E+03 -0.18226181372E+04  0.18295642268E+04  0.00000000000E+00 0. -1.
          1    1    1    2  502    0 -0.15611324071E+02 -0.36058902281E+02  0.31593374146E+03  0.31836784835E+03  0.00000000000E+00 0. -1.
         22    1    3    3    0    0  0.15493514588E+02 -0.63715779680E+02  0.16518413777E+03  0.17772323693E+03  0.00000000000E+00 0.  1.
         22    1    3    3    0    0 -0.98592248892E+02 -0.25224158979E+02  0.12901359770E+03  0.16432041300E+03  0.00000000000E+00 0.  1.
</event>
<event>
 7    1  0.2895750E-005  0.7520015E+02  0.7818608E-02  0.1395664E+00
          2   -1    0    0  502    0  0.00000000000E+00  0.00000000000E+00  0.51473126815E+02  0.51473126815E+02  0.00000000000E+00 0. -1.
          1   -1    0    0  501    0 -0.00000000000E+00 -0.00000000000E+00 -0.79727207441E+03  0.79727207441E+03  0.00000000000E+00 0. -1.
         25    2    1    2    0    0 -0.11242946282E+03 -0.18033255736E+02 -0.40518177086E+03  0.43904045739E+03  0.12497469091E+03 0.  0.
          2    1    1    2  501    0  0.63997529010E+02  0.23182680323E+02 -0.35295745521E+03  0.35946082620E+03  0.00000000000E+00 0. -1.
          1    1    1    2  502    0  0.48431933812E+02 -0.51494245869E+01  0.12340278473E+02  0.50243917633E+02  0.00000000000E+00 0. -1.
         22    1    3    3    0    0 -0.12707048171E+02  0.32299962730E+02 -0.24967646106E+02  0.42756754059E+02  0.00000000000E+00 0. -1.
         22    1    3    3    0    0 -0.99722414651E+02 -0.50333218466E+02 -0.38021412475E+03  0.39628370333E+03  0.00000000000E+00 0. -1.
</event>
<event>
 7    1  0.2895750E-005  0.2331388E+03  0.7818608E-02  0.1349505E+00
          2   -1    0    0  502    0  0.00000000000E+00  0.00000000000E+00  0.22216740447E+04  0.22216740447E+04  0.00000000000E+00 0. -1.
          1   -1    0    0  501    0 -0.00000000000E+00 -0.00000000000E+00 -0.26626082899E+03  0.26626082899E+03  0.00000000000E+00 0. -1.
         25    2    1    2    0    0  0.15658383815E+03  0.16217851254E+03 -0.99992049378E+02  0.27648522321E+03  0.12500120165E+03 0.  0.
          2    1    1    2  501    0  0.20601134368E+02 -0.10203188572E+02 -0.69786726714E+02  0.73475839701E+02  0.00000000000E+00 0. -1.
          1    1    1    2  502    0 -0.17718497252E+03 -0.15197532397E+03  0.21251919918E+04  0.21379738107E+04  0.00000000000E+00 0. -1.
         22    1    3    3    0    0  0.91362897796E+02  0.16787340977E+03 -0.62735916045E+02  0.20115778872E+03  0.00000000000E+00 0.  1.
         22    1    3    3    0    0  0.65220940358E+02 -0.56948972287E+01 -0.37256133333E+02  0.75327434489E+02  0.00000000000E+00 0.  1.
</event>
<event>
 7    1  0.2895750E-005  0.7402100E+03  0.7818608E-02  0.1165908E+00
          2   -1    0    0  502    0  0.00000000000E+00  0.00000000000E+00  0.11466509519E+04  0.11466509519E+04  0.00000000000E+00 0. -1.
          1   -1    0    0  501    0 -0.00000000000E+00 -0.00000000000E+00 -0.11502453590E+04  0.11502453590E+04  0.00000000000E+00 0. -1.
         25    2    1    2    0    0  0.73035929466E+03  0.62776819088E+01 -0.72756383773E+03  0.10384820840E+04  0.12502716591E+03 0.  0.
          2    1    1    2  501    0  0.10641559150E+02 -0.43451565790E+02 -0.12391918423E+03  0.13174689966E+03  0.00000000000E+00 0. -1.
          1    1    1    2  502    0 -0.74100085381E+03  0.37173883881E+02  0.84788861485E+03  0.11266673272E+04  0.00000000000E+00 0. -1.
         22    1    3    3    0    0  0.59578957789E+03 -0.32752223598E+02 -0.63016359453E+03  0.86783874375E+03  0.00000000000E+00 0.  1.
         22    1    3    3    0    0  0.13456971676E+03  0.39029905507E+02 -0.97400243191E+02  0.17064334024E+03  0.00000000000E+00 0.  1.
</event>
<event>
 7    1  0.2895750E-005  0.5519696E+02  0.7818608E-02  0.1542582E+00
          2   -1    0    0  502    0  0.00000000000E+00  0.00000000000E+00  0.93889040482E+03  0.93889040482E+03  0.00000000000E+00 0. -1.
          1   -1    0    0  501    0 -0.00000000000E+00 -0.00000000000E+00 -0.32171038160E+02  0.32171038160E+02  0.00000000000E+00 0. -1.
         25    2    1    2    0    0 -0.29207949654E+02  0.30533766145E+02  0.24039176409E+03  0.27423700448E+03  0.12502927332E+03 0.  0.
          2    1    1    2  501    0  0.80351472593E+01  0.21628940900E+02 -0.46099223089E+01  0.23529259649E+02  0.00000000000E+00 0. -1.
          1    1    1    2  502    0  0.21172802395E+02 -0.52162707045E+02  0.67093752488E+03  0.67329517885E+03  0.00000000000E+00 0. -1.
         22    1    3    3    0    0  0.11537098858E+02 -0.37733212683E+02  0.30743141847E+02  0.50020403437E+02  0.00000000000E+00 0. -1.
         22    1    3    3    0    0 -0.40745048512E+02  0.68266978828E+02  0.20964862224E+03  0.22421660104E+03  0.00000000000E+00 0. -1.
</event>
<event>
 7    1  0.2895750E-005  0.7618402E+03  0.7818608E-02  0.1125163E+00
          2   -1    0    0  502    0  0.00000000000E+00  0.00000000000E+00  0.18493194258E+04  0.18493194258E+04  0.00000000000E+00 0. -1.
          1   -1    0    0  501    0 -0.00000000000E+00 -0.00000000000E+00 -0.76363915541E+03  0.76363915541E+03  0.00000000000E+00 0. -1.
         25    2    1    2    0    0 -0.19701254625E+03 -0.74395329595E+03  0.15012247506E+04  0.16916209761E+04  0.12500130022E+03 0.  0.
          2    1    1    2  501    0 -0.33908299593E+02  0.62057518474E+02 -0.12773726656E+03  0.14600588224E+03  0.00000000000E+00 0. -1.
          1    1    1    2  502    0  0.23092084584E+03  0.68189577748E+03 -0.28780721359E+03  0.77533172293E+03  0.00000000000E+00 0. -1.
         22    1    3    3    0    0 -0.58953603346E+02 -0.40654189527E+03  0.70606148799E+03  0.81686881736E+03  0.00000000000E+00 0.  1.
         22    1    3    3    0    0 -0.13805894290E+03 -0.33741140068E+03  0.79516326258E+03  0.87475215872E+03  0.00000000000E+00 0.  1.
</event>
<event>
 7    1  0.2895750E-005  0.4424749E+02  0.7818608E-02  0.1488591E+00
          2   -1    0    0  502    0  0.00000000000E+00  0.00000000000E+00  0.11711212061E+04  0.11711212061E+04  0.00000000000E+00 0. -1.
          1   -1    0    0  501    0 -0.00000000000E+00 -0.00000000000E+00 -0.18671123350E+03  0.18671123350E+03  0.00000000000E+00 0. -1.
         25    2    1    2    0    0  0.76518880474E+01  0.37773881984E+02  0.95823359008E+03  0.96712063320E+03  0.12500115382E+03 0.  0.
          2    1    1    2  501    0  0.40461365830E+02 -0.87254637796E+01 -0.17603476638E+03  0.18083554633E+03  0.00000000000E+00 0. -1.
          1    1    1    2  502    0 -0.48113253878E+02 -0.29048418205E+02  0.20221114892E+03  0.20987626009E+03  0.00000000000E+00 0. -1.
         22    1    3    3    0    0 -0.10178906239E+02  0.75874616199E+02  0.79027175430E+03  0.79397104050E+03  0.00000000000E+00 0.  1.
         22    1    3    3    0    0  0.17830794286E+02 -0.38100734215E+02  0.16796183578E+03  0.17314959269E+03  0.00000000000E+00 0.  1.
</event>
<event>
 7    1  0.2895750E-005  0.4590924E+03  0.7818608E-02  0.1112093E+00
          2   -1    0    0  502    0  0.00000000000E+00  0.00000000000E+00  0.13973454904E+04  0.13973454904E+04  0.00000000000E+00 0. -1.
          1   -1    0    0  501    0 -0.00000000000E+00 -0.00000000000E+00 -0.62343671331E+03  0.62343671331E+03  0.00000000000E+00 0. -1.
         25    2    1    2    0    0 -0.52695343044E+03  0.19982795853E+03  0.34736989194E+03  0.67372274776E+03  0.12500147258E+03 0.  0.
          2    1    1    2  501    0  0.13287100786E+03 -0.38170276830E+02 -0.39672961247E+03  0.42012624314E+03  0.00000000000E+00 0. -1.
          1    1    1    2  502    0  0.39408242259E+03 -0.16165768170E+03  0.82326849758E+03  0.92693321278E+03  0.00000000000E+00 0. -1.
         22    1    3    3    0    0 -0.27932942162E+03  0.39101559011E+02  0.17021926170E+03  0.32943657167E+03  0.00000000000E+00 0. -1.
         22    1    3    3    0    0 -0.24762400882E+03  0.16072639952E+03  0.17715063024E+03  0.34428617608E+03  0.00000000000E+00 0. -1.
</event>
<event>
 7    1  0.2895750E-005  0.1180112E+03  0.7818608E-02  0.1313103E+00
          2   -1    0    0  502    0  0.00000000000E+00  0.00000000000E+00  0.13366795943E+04  0.13366795943E+04  0.00000000000E+00 0. -1.
          1   -1    0    0  501    0 -0.00000000000E+00 -0.00000000000E+00 -0.66587509906E+03  0.66587509906E+03  0.00000000000E+00 0. -1.
         25    2    1    2    0    0  0.19348455713E+02 -0.17396714445E+03  0.82447004079E+02  0.23034998928E+03  0.12499871595E+03 0.  0.
          2    1    1    2  501    0 -0.29288906162E+02  0.11224046005E+03 -0.58540055085E+03  0.59678267890E+03  0.00000000000E+00 0. -1.
          1    1    1    2  502    0  0.99404504493E+01  0.61726684403E+02  0.11737580420E+04  0.11754220252E+04  0.00000000000E+00 0. -1.
         22    1    3    3    0    0  0.69290717529E+02 -0.89811053769E+02  0.22668156293E+02  0.11567659324E+03  0.00000000000E+00 0.  1.
         22    1    3    3    0    0 -0.49942261816E+02 -0.84156090686E+02  0.59778847786E+02  0.11467339603E+03  0.00000000000E+00 0.  1.
</event>
<event>
 7    1  0.2895750E-005  0.2004122E+03  0.7818608E-02  0.1249921E+00
          2   -1    0    0  502    0  0.00000000000E+00  0.00000000000E+00  0.83352478862E+03  0.83352478862E+03  0.00000000000E+00 0. -1.
          1   -1    0    0  501    0 -0.00000000000E+00 -0.00000000000E+00 -0.18332771044E+04  0.18332771044E+04  0.00000000000E+00 0. -1.
         25    2    1    2    0    0  0.22424021717E+03  0.88584929490E+02 -0.52128071684E+02  0.27653845204E+03  0.12500085947E+03 0.  0.
          2    1    1    2  501    0 -0.16232619683E+03 -0.11442763576E+03 -0.16614568688E+04  0.16732849145E+04  0.00000000000E+00 0. -1.
          1    1    1    2  502    0 -0.61914020344E+02  0.25842706267E+02  0.71383262473E+03  0.71697852653E+03  0.00000000000E+00 0. -1.
         22    1    3    3    0    0  0.28776576674E+02 -0.31006142426E+02 -0.11273576804E+02  0.43778599420E+02  0.00000000000E+00 0.  1.
         22    1    3    3    0    0  0.19546364050E+03  0.11959107192E+03 -0.40854494880E+02  0.23275985262E+03  0.00000000000E+00 0.  1.
</event>
<event>
 7    1  0.2895750E-005  0.2885399E+03  0.7818608E-02  0.1205080E+00
          2   -1    0    0  502    0  0.00000000000E+00  0.00000000000E+00  0.15146699843E+04  0.15146699843E+04  0.00000000000E+00 0. -1.
          1   -1    0    0  501    0 -0.00000000000E+00 -0.00000000000E+00 -0.35480573395E+03  0.35480573395E+03  0.00000000000E+00 0. -1.
         25    2    1    2    0    0  0.26274634120E+03 -0.15932616357E+03  0.63687623517E+03  0.71809210526E+03  0.12499786596E+03 0.  0.
          2    1    1    2  501    0 -0.27431982602E+03  0.86043398368E+02 -0.24627084563E+03  0.37855536287E+03  0.00000000000E+00 0. -1.
          1    1    1    2  502    0  0.11573484821E+02  0.73282765206E+02  0.76925886084E+03  0.77282825014E+03  0.00000000000E+00 0. -1.
         22    1    3    3    0    0  0.19552187400E+03 -0.16485621921E+03  0.42792934105E+03  0.49852772957E+03  0.00000000000E+00 0.  1.
         22    1    3    3    0    0  0.67224467201E+02  0.55300556363E+01  0.20894689412E+03  0.21956437568E+03  0.00000000000E+00 0.  1.
</event>
<event>
 7    1  0.2895750E-005  0.2033731E+03  0.7818608E-02  0.1190211E+00
          2   -1    0    0  502    0  0.00000000000E+00  0.00000000000E+00  0.54104758048E+03  0.54104758048E+03  0.00000000000E+00 0. -1.
          1   -1    0    0  501    0 -0.00000000000E+00 -0.00000000000E+00 -0.24900329747E+04  0.24900329747E+04  0.00000000000E+00 0. -1.
         25    2    1    2    0    0 -0.16102281002E+03  0.54122869680E+02  0.38883691261E+02  0.21446140613E+03  0.12499649157E+03 0.  0.
          2    1    1    2  501    0  0.19521367683E+03  0.64848467859E+02 -0.23884789077E+04  0.23973204200E+04  0.00000000000E+00 0. -1.
          1    1    1    2  502    0 -0.34190866806E+02 -0.11897133754E+03  0.40060982224E+03  0.41929872908E+03  0.00000000000E+00 0. -1.
         22    1    3    3    0    0  0.14444361890E+02  0.29930853573E+02  0.57429831280E+00  0.33238914010E+02  0.00000000000E+00 0.  1.
         22    1    3    3    0    0 -0.17546717191E+03  0.24192016107E+02  0.38309392948E+02  0.18122249212E+03  0.00000000000E+00 0.  1.
</event>
<event>
 7    1  0.2895750E-005  0.6246026E+02  0.7818608E-02  0.1485049E+00
          2   -1    0    0  502    0  0.00000000000E+00  0.00000000000E+00  0.13087284959E+03  0.13087284959E+03  0.00000000000E+00 0. -1.
          1   -1    0    0  501    0 -0.00000000000E+00 -0.00000000000E+00 -0.13258241874E+03  0.13258241874E+03  0.00000000000E+00 0. -1.
         25    2    1    2    0    0  0.32618037123E+02 -0.37408349579E+02  0.14137117507E+02  0.13524065744E+03  0.12500742526E+03 0.  0.
          2    1    1    2  501    0 -0.60646466358E+02  0.26550445382E+02 -0.49818535292E+02  0.82854127781E+02  0.00000000000E+00 0. -1.
          1    1    1    2  502    0  0.28028429236E+02  0.10857904197E+02  0.33971848630E+02  0.45360483114E+02  0.00000000000E+00 0. -1.
         22    1    3    3    0    0  0.15149341875E+02 -0.29875596124E+02  0.69255885127E+02  0.76931342298E+02  0.00000000000E+00 0. -1.
         22    1    3    3    0    0  0.17468695247E+02 -0.75327534544E+01 -0.55118767620E+02  0.58309315141E+02  0.00000000000E+00 0. -1.
</event>
<event>
 7    1  0.2895750E-005  0.1392001E+03  0.7818608E-02  0.1262202E+00
          2   -1    0    0  502    0  0.00000000000E+00  0.00000000000E+00  0.53676082781E+03  0.53676082781E+03  0.00000000000E+00 0. -1.
          1   -1    0    0  501    0 -0.00000000000E+00 -0.00000000000E+00 -0.30031589484E+03  0.30031589484E+03  0.00000000000E+00 0. -1.
         25    2    1    2    0    0 -0.12706638390E+03 -0.47528253975E+02 -0.88082959744E+02  0.20442249920E+03  0.12500059816E+03 0.  0.
          2    1    1    2  501    0  0.87630470567E+02  0.12344099484E+03 -0.11169089618E+03  0.18812664583E+03  0.00000000000E+00 0. -1.
          1    1    1    2  502    0  0.39435913331E+02 -0.75912740868E+02  0.43621878890E+03  0.44452757763E+03  0.00000000000E+00 0. -1.
         22    1    3    3    0    0 -0.85722665577E+02  0.45388494475E+01 -0.10519011575E+03  0.13577163548E+03  0.00000000000E+00 0.  1.
         22    1    3    3    0    0 -0.41343718321E+02 -0.52067103423E+02  0.17107156008E+02  0.68650863724E+02  0.00000000000E+00 0.  1.
</event>
<event>
 7    1  0.2895750E-005  0.5420757E+03  0.7818608E-02  0.1066759E+00
          2   -1    0    0  502    0  0.00000000000E+00  0.00000000000E+00  0.21463932276E+04  0.21463932276E+04  0.00000000000E+00 0. -1.
          1   -1    0    0  501    0 -0.00000000000E+00 -0.00000000000E+00 -0.62937435525E+03  0.62937435525E+03  0.00000000000E+00 0. -1.
         25    2    1    2    0    0  0.21493879226E+03 -0.42775785742E+03 -0.40183333459E+01  0.49478991940E+03  0.12500179335E+03 0.  0.
          2    1    1    2  501    0  0.20468635071E+03  0.60227828375E+02 -0.30467171377E+03  0.37195261345E+03  0.00000000000E+00 0. -1.
          1    1    1    2  502    0 -0.41962514297E+03  0.36753002904E+03  0.18257089195E+04  0.19090250500E+04  0.00000000000E+00 0. -1.
         22    1    3    3    0    0  0.15714166982E+03 -0.38930774088E+03 -0.29454303348E+02  0.42085814414E+03  0.00000000000E+00 0. -1.
         22    1    3    3    0    0  0.57797122432E+02 -0.38450116536E+02  0.25435970002E+02  0.73931775259E+02  0.00000000000E+00 0. -1.
</event>
<event>
 7    1  0.2895750E-005  0.6356688E+02  0.7818608E-02  0.1410756E+00
          2   -1    0    0  502    0  0.00000000000E+00  0.00000000000E+00  0.11161745894E+03  0.11161745894E+03  0.00000000000E+00 0. -1.
          1   -1    0    0  501    0 -0.00000000000E+00 -0.00000000000E+00 -0.94176763109E+03  0.94176763109E+03  0.00000000000E+00 0. -1.
         25    2    1    2    0    0 -0.49814401223E+02  0.79819749994E+02 -0.41362464627E+02  0.16182450955E+03  0.12499460530E+03 0.  0.
          2    1    1    2  501    0  0.56138438783E+02 -0.29054835777E+02 -0.82592771096E+03  0.82834310012E+03  0.00000000000E+00 0. -1.
          1    1    1    2  502    0 -0.63240375605E+01 -0.50764914217E+02  0.37140003433E+02  0.63217480348E+02  0.00000000000E+00 0. -1.
         22    1    3    3    0    0  0.20272174905E+02  0.35102308554E+02  0.31453766980E+02  0.51307627099E+02  0.00000000000E+00 0. -1.
         22    1    3    3    0    0 -0.70086576127E+02  0.44717441439E+02 -0.72816231608E+02  0.11051688246E+03  0.00000000000E+00 0. -1.
</event>
<event>
 7    1  0.2895750E-005  0.1480296E+03  0.7818608E-02  0.1257937E+00
          2   -1    0    0  502    0  0.00000000000E+00  0.00000000000E+00  0.12155318103E+04  0.12155318103E+04  0.00000000000E+00 0. -1.
          1   -1    0    0  501    0 -0.00000000000E+00 -0.00000000000E+00 -0.19699554999E+03  0.19699554999E+03  0.00000000000E+00 0. -1.
         25    2    1    2    0    0 -0.10342715049E+02  0.11165448672E+03 -0.16641770949E+01  0.16793314424E+03  0.12500030116E+03 0.  0.
          2    1    1    2  501    0 -0.83601865555E+02  0.68895340610E+01 -0.90641709836E+02  0.12350164843E+03  0.00000000000E+00 0. -1.
          1    1    1    2  502    0  0.93944580604E+02 -0.11854402078E+03  0.11108421473E+04  0.11210925676E+04  0.00000000000E+00 0. -1.
         22    1    3    3    0    0  0.18609635674E+02  0.45786981800E+02  0.56750929925E+02  0.75255792399E+02  0.00000000000E+00 0. -1.
         22    1    3    3    0    0 -0.28952350723E+02  0.65867504919E+02 -0.58415107020E+02  0.92677351844E+02  0.00000000000E+00 0. -1.
</event>
<event>
 7    1  0.2895750E-005  0.3991076E+03  0.7818608E-02  0.1202639E+00
          2   -1    0    0  502    0  0.00000000000E+00  0.00000000000E+00  0.89348506760E+03  0.89348506760E+03  0.00000000000E+00 0. -1.
          1   -1    0    0  501    0 -0.00000000000E+00 -0.00000000000E+00 -0.20744298313E+04  0.20744298313E+04  0.00000000000E+00 0. -1.
         25    2    1    2    0    0  0.41190575151E+03  0.83885163368E+01 -0.49644321237E+03  0.65713015305E+03  0.12500983805E+03 0.  0.
          2    1    1    2  501    0 -0.16079456205E+02 -0.52668831047E+02 -0.14483149203E+04  0.14493614673E+04  0.00000000000E+00 0. -1.
          1    1    1    2  502    0 -0.39582629531E+03  0.44280314710E+02  0.76381336890E+03  0.86142327856E+03  0.00000000000E+00 0. -1.
         22    1    3    3    0    0  0.16193122684E+03  0.11268107007E+02 -0.29242099861E+03  0.33445288591E+03  0.00000000000E+00 0.  1.
         22    1    3    3    0    0  0.24997452467E+03 -0.28795906705E+01 -0.20402221376E+03  0.32267726715E+03  0.00000000000E+00 0.  1.
</event>
<event>
 7    1  0.2895750E-005  0.2682779E+03  0.7818608E-02  0.1274769E+00
          2   -1    0    0  502    0  0.00000000000E+00  0.00000000000E+00  0.65862100940E+03  0.65862100940E+03  0.00000000000E+00 0. -1.
          1   -1    0    0  501    0 -0.00000000000E+00 -0.00000000000E+00 -0.12213484101E+04  0.12213484101E+04  0.00000000000E+00 0. -1.
         25    2    1    2    0    0  0.32364800511E+02  0.23901373862E+03  0.24434822554E+02  0.27275542545E+03  0.12499365584E+03 0.  0.
          2    1    1    2  501    0 -0.99324068201E+01 -0.27127745117E+03 -0.10796027611E+04  0.11132080803E+04  0.00000000000E+00 0. -1.
          1    1    1    2  502    0 -0.22432393691E+02  0.32263712554E+02  0.49244053790E+03  0.49400591373E+03  0.00000000000E+00 0. -1.
         22    1    3    3    0    0  0.51305276528E+02  0.11312143033E+03 -0.39436533098E+02  0.13032240614E+03  0.00000000000E+00 0.  1.
         22    1    3    3    0    0 -0.18940476017E+02  0.12589230829E+03  0.63871355652E+02  0.14243301931E+03  0.00000000000E+00 0.  1.
</event>
<event>
 7    1  0.2895750E-005  0.2551670E+03  0.7818608E-02  0.1129728E+00
          2   -1    0    0  502    0  0.00000000000E+00  0.00000000000E+00  0.59207339875E+03  0.59207339875E+03  0.00000000000E+00 0. -1.
          1   -1    0    0  501    0 -0.00000000000E+00 -0.00000000000E+00 -0.10090816012E+04  0.10090816012E+04  0.00000000000E+00 0. -1.
         25    2    1    2    0    0 -0.36031534926E+02  0.16350631070E+03  0.10799376351E+03  0.23520186095E+03  0.12499870915E+03 0.  0.
          2    1    1    2  501    0  0.25511197779E+03  0.52994273241E+01 -0.87982182327E+03  0.91607676854E+03  0.00000000000E+00 0. -1.
          1    1    1    2  502    0 -0.21908044286E+03 -0.16880573802E+03  0.35481985726E+03  0.44987637051E+03  0.00000000000E+00 0. -1.
         22    1    3    3    0    0 -0.22420718765E+02  0.66264110928E+02 -0.21046298476E+02  0.73051815217E+02  0.00000000000E+00 0. -1.
         22    1    3    3    0    0 -0.13610816161E+02  0.97242199773E+02  0.12904006199E+03  0.16215004573E+03  0.00000000000E+00 0. -1.
</event>
<event>
 7    1  0.2895750E-005  0.1662291E+03  0.7818608E-02  0.1385545E+00
          2   -1    0    0  502    0  0.00000000000E+00  0.00000000000E+00  0.97276465083E+03  0.97276465083E+03  0.00000000000E+00 0. -1.
          1   -1    0    0  501    0 -0.00000000000E+00 -0.00000000000E+00 -0.65249287526E+02  0.65249287526E+02  0.00000000000E+00 0. -1.
         25    2    1    2    0    0 -0.14229766361E+03 -0.76552360172E+02  0.25872240665E+03  0.32964612368E+03  0.12498157560E+03 0.  0.
          2    1    1    2  501    0  0.13838236792E+03  0.10012776248E+03  0.21816006698E+03  0.27707230716E+03  0.00000000000E+00 0. -1.
          1    1    1    2  502    0  0.39152956836E+01 -0.23575402308E+02  0.43063288968E+03  0.43129550752E+03  0.00000000000E+00 0. -1.
         22    1    3    3    0    0  0.84271421344E+00 -0.52509738055E+02  0.10968531320E+03  0.12160941859E+03  0.00000000000E+00 0.  1.
         22    1    3    3    0    0 -0.14314037782E+03 -0.24042622117E+02  0.14903709345E+03  0.20803670509E+03  0.00000000000E+00 0.  1.
</event>
<event>
 7    1  0.2895750E-005  0.2794819E+03  0.7818608E-02  0.1229748E+00
          2   -1    0    0  502    0  0.00000000000E+00  0.00000000000E+00  0.54996101830E+03  0.54996101830E+03  0.00000000000E+00 0. -1.
          1   -1    0    0  501    0 -0.00000000000E+00 -0.00000000000E+00 -0.23331277266E+04  0.23331277266E+04  0.00000000000E+00 0. -1.
         25    2    1    2    0    0  0.24769025464E+03  0.22384320838E+03 -0.15451996055E+04  0.15857892265E+04  0.12501762313E+03 0.  0.
          2    1    1    2  501    0 -0.29577458037E+02 -0.51110414608E+02 -0.72982123225E+03  0.73220634493E+03  0.00000000000E+00 0. -1.
          1    1    1    2  502    0 -0.21811279660E+03 -0.17273279377E+03  0.49185412940E+03  0.56509317346E+03  0.00000000000E+00 0. -1.
         22    1    3    3    0    0  0.24447884261E+03  0.20267808204E+03 -0.12462598256E+04  0.12860839251E+04  0.00000000000E+00 0. -1.
         22    1    3    3    0    0  0.32114120231E+01  0.21165126337E+02 -0.29893977987E+03  0.29970530147E+03  0.00000000000E+00 0. -1.
</event>
<event>
 7    1  0.2895750E-005  0.1993269E+03  0.7818608E-02  0.1156229E+00
          2   -1    0    0  502    0  0.00000000000E+00  0.00000000000E+00  0.10083250436E+04  0.10083250436E+04  0.00000000000E+00 0. -1.
          1   -1    0    0  501    0 -0.00000000000E+00 -0.00000000000E+00 -0.22804899713E+03  0.22804899713E+03  0.00000000000E+00 0. -1.
         25    2    1    2    0    0  0.12208633926E+03  0.74876884757E+02  0.59514127585E+02  0.19919711366E+03  0.12500374635E+03 0.  0.
          2    1    1    2  501    0  0.50505073120E+02 -0.19282234567E+03 -0.76093910521E+02  0.21335768704E+03  0.00000000000E+00 0. -1.
          1    1    1    2  502    0 -0.17259141238E+03  0.11794546092E+03  0.79685582944E+03  0.82381924006E+03  0.00000000000E+00 0. -1.
         22    1    3    3    0    0  0.70201706228E+02 -0.26699458463E+02  0.14053686522E+02  0.76411038106E+02  0.00000000000E+00 0. -1.
         22    1    3    3    0    0  0.51884633036E+02  0.10157634322E+03  0.45460441063E+02  0.12278607555E+03  0.00000000000E+00 0. -1.
</event>
<event>
 7    1  0.2895750E-005  0.3041068E+03  0.7818608E-02  0.1099309E+00
          2   -1    0    0  502    0  0.00000000000E+00  0.00000000000E+00  0.56627201574E+03  0.56627201574E+03  0.00000000000E+00 0. -1.
          1   -1    0    0  501    0 -0.00000000000E+00 -0.00000000000E+00 -0.20885391245E+04  0.20885391245E+04  0.00000000000E+00 0. -1.
         25    2    1    2    0    0 -0.19705780829E+02  0.39297833950E+03 -0.10854298893E+03  0.42688072975E+03  0.12500113548E+03 0.  0.
          2    1    1    2  501    0  0.19503094045E+03 -0.14980252873E+03 -0.17558808630E+04  0.17730187450E+04  0.00000000000E+00 0. -1.
          1    1    1    2  502    0 -0.17532515962E+03 -0.24317581077E+03  0.34215674310E+03  0.45491166548E+03  0.00000000000E+00 0. -1.
         22    1    3    3    0    0 -0.36641579294E+02  0.35551401608E+02 -0.34089857443E+02  0.61389134787E+02  0.00000000000E+00 0. -1.
         22    1    3    3    0    0  0.16935798464E+02  0.35742693789E+03 -0.74453131487E+02  0.36549159496E+03  0.00000000000E+00 0. -1.
</event>
<event>
 7    1  0.2895750E-005  0.7142611E+02  0.7818608E-02  0.1382735E+00
          2   -1    0    0  502    0  0.00000000000E+00  0.00000000000E+00  0.32866548672E+04  0.32866548672E+04  0.00000000000E+00 0. -1.
          1   -1    0    0  501    0 -0.00000000000E+00 -0.00000000000E+00 -0.22077686928E+03  0.22077686928E+03  0.00000000000E+00 0. -1.
         25    2    1    2    0    0 -0.47191049958E+02  0.88661952222E+02  0.19795328525E+03  0.25475142614E+03  0.12499939604E+03 0.  0.
          2    1    1    2  501    0  0.62468530562E+02 -0.33852156599E+02 -0.18554332227E+03  0.19868218404E+03  0.00000000000E+00 0. -1.
          1    1    1    2  502    0 -0.15277480604E+02 -0.54809795623E+02  0.30534680349E+04  0.30539981263E+04  0.00000000000E+00 0. -1.
         22    1    3    3    0    0 -0.71379584991E+01  0.25190460160E+02  0.17401513040E+03  0.17597379164E+03  0.00000000000E+00 0.  1.
         22    1    3    3    0    0 -0.40053091459E+02  0.63471492061E+02  0.23938154850E+02  0.78777634501E+02  0.00000000000E+00 0.  1.
</event>
<event>
 7    1  0.2895750E-005  0.1028262E+03  0.7818608E-02  0.1323403E+00
          2   -1    0    0  502    0  0.00000000000E+00  0.00000000000E+00  0.74687549597E+03  0.74687549597E+03  0.00000000000E+00 0. -1.
          1   -1    0    0  501    0 -0.00000000000E+00 -0.00000000000E+00 -0.58806655768E+02  0.58806655768E+02  0.00000000000E+00 0. -1.
         25    2    1    2    0    0  0.90768324525E+02 -0.14286821542E+02  0.20904221840E+03  0.26031903795E+03  0.12499740173E+03 0.  0.
          2    1    1    2  501    0 -0.10163761181E+03 -0.50234614104E+02  0.74687747102E+02  0.13576442890E+03  0.00000000000E+00 0. -1.
          1    1    1    2  502    0  0.10869287283E+02  0.64521435646E+02  0.40433887470E+03  0.40959868488E+03  0.00000000000E+00 0. -1.
         22    1    3    3    0    0  0.36748273291E+02  0.53324709593E+02  0.11868218753E+03  0.13520141227E+03  0.00000000000E+00 0. -1.
         22    1    3    3    0    0  0.54020051235E+02 -0.67611531135E+02  0.90360030874E+02  0.12511762569E+03  0.00000000000E+00 0. -1.
</event>
<event>
 7    1  0.2895750E-005  0.4978324E+03  0.7818608E-02  0.1272058E+00
          2   -1    0    0  502    0  0.00000000000E+00  0.00000000000E+00  0.73091732412E+03  0.73091732412E+03  0.00000000000E+00 0. -1.
          1   -1    0    0  501    0 -0.00000000000E+00 -0.00000000000E+00 -0.43683297129E+03  0.43683297129E+03  0.00000000000E+00 0. -1.
         25    2    1    2    0    0  0.19793316222E+03  0.45882002458E+03  0.45467055606E+01  0.51511015412E+03  0.12499778674E+03 0.  0.
          2    1    1    2  501    0 -0.21568024521E+03 -0.44627127323E+03  0.15933793078E+03  0.52063864020E+03  0.00000000000E+00 0. -1.
          1    1    1    2  502    0  0.17747082995E+02 -0.12548751345E+02  0.13019971649E+03  0.13200150109E+03  0.00000000000E+00 0. -1.
         22    1    3    3    0    0  0.16205138393E+03  0.34931460159E+03 -0.48751631109E+02  0.38814696115E+03  0.00000000000E+00 0.  1.
         22    1    3    3    0    0  0.35881778285E+02  0.10950542299E+03  0.53298336669E+02  0.12696319297E+03  0.00000000000E+00 0.  1.
</event>
<event>
 7    1  0.2895750E-005  0.1401549E+03  0.7818608E-02  0.1367716E+00
          2   -1    0    0  502    0  0.00000000000E+00  0.00000000000E+00  0.12958804539E+04  0.12958804539E+04  0.00000000000E+00 0. -1.
          1   -1    0    0  501    0 -0.00000000000E+00 -0.00000000000E+00 -0.17739479065E+03  0.17739479065E+03  0.00000000000E+00 0. -1.
         25    2    1    2    0    0 -0.14281839185E+03  0.71085600109E+02  0.21356855882E+02  0.20379230241E+03  0.12499972653E+03 0.  0.
          2    1    1    2  501    0  0.30659082179E+02  0.11667842221E+02 -0.78782690240E+02  0.85339499317E+02  0.00000000000E+00 0. -1.
          1    1    1    2  502    0  0.11215930967E+03 -0.82753442331E+02  0.11759114976E+04  0.11841434428E+04  0.00000000000E+00 0. -1.
         22    1    3    3    0    0 -0.47309796812E+01  0.34302200178E+02  0.47232806398E+02  0.58565869805E+02  0.00000000000E+00 0. -1.
         22    1    3    3    0    0 -0.13808741217E+03  0.36783399932E+02 -0.25875950517E+02  0.14522643260E+03  0.00000000000E+00 0. -1.
</event>
<event>
 7    1  0.2895750E-005  0.1271884E+03  0.7818608E-02  0.1320690E+00
          2   -1    0    0  502    0  0.00000000000E+00  0.00000000000E+00  0.15990802703E+03  0.15990802703E+03  0.00000000000E+00 0. -1.
          1   -1    0    0  501    0 -0.00000000000E+00 -0.00000000000E+00 -0.23130686670E+03  0.23130686670E+03  0.00000000000E+00 0. -1.
         25    2    1    2    0    0 -0.10097208290E+03  0.12400035306E+03  0.23529861987E+01  0.20298146773E+03  0.12499796243E+03 0.  0.
          2    1    1    2  501    0  0.25282806906E+02 -0.47932080422E+02 -0.58673005544E+02  0.79870058459E+02  0.00000000000E+00 0. -1.
          1    1    1    2  502    0  0.75689275994E+02 -0.76068272640E+02 -0.15078820318E+02  0.10836336754E+03  0.00000000000E+00 0. -1.
         22    1    3    3    0    0 -0.72097271299E+01  0.92993873717E+02 -0.31710040634E+02  0.98515823050E+02  0.00000000000E+00 0.  1.
         22    1    3    3    0    0 -0.93762355770E+02  0.31006479344E+02  0.34063026833E+02  0.10446564468E+03  0.00000000000E+00 0.  1.
</event>
<event>
 7    1  0.2895750E-005  0.7076892E+02  0.7818608E-02  0.1409374E+00
          2   -1    0    0  502    0  0.00000000000E+00  0.00000000000E+00  0.17684693662E+04  0.17684693662E+04  0.00000000000E+00 0. -1.
          1   -1    0    0  501    0 -0.00000000000E+00 -0.00000000000E+00 -0.67465685228E+03  0.67465685228E+03  0.00000000000E+00 0. -1.
         25    2    1    2    0    0 -0.63108784705E+02 -0.17132023340E+01  0.31695889785E+03  0.34651726593E+03  0.12500247555E+03 0.  0.
          2    1    1    2  501    0  0.53029976607E+02  0.47055880265E+02 -0.65759635362E+03  0.66140713526E+03  0.00000000000E+00 0. -1.
          1    1    1    2  502    0  0.10078808098E+02 -0.45342677931E+02  0.14344499697E+04  0.14352018173E+04  0.00000000000E+00 0. -1.
         22    1    3    3    0    0 -0.32392122307E+02 -0.14760709951E+02  0.89486432227E+01  0.36704309846E+02  0.00000000000E+00 0.  1.
         22    1    3    3    0    0 -0.30716662398E+02  0.13047507617E+02  0.30801025463E+03  0.30981295609E+03  0.00000000000E+00 0.  1.
</event>
<event>
 7    1  0.2895750E-005  0.2503777E+03  0.7818608E-02  0.1319197E+00
          2   -1    0    0  502    0  0.00000000000E+00  0.00000000000E+00  0.18912759876E+04  0.18912759876E+04  0.00000000000E+00 0. -1.
          1   -1    0    0  501    0 -0.00000000000E+00 -0.00000000000E+00 -0.42764232072E+02  0.42764232072E+02  0.00000000000E+00 0. -1.
         25    2    1    2    0    0  0.23312905483E+03  0.30965997546E+02  0.91290260644E+03  0.95095839812E+03  0.12499062723E+03 0.  0.
          2    1    1    2  501    0 -0.26101666312E+03 -0.30201774379E+02  0.73527376283E+03  0.78081326315E+03  0.00000000000E+00 0. -1.
          1    1    1    2  502    0  0.27887608289E+02 -0.76422316708E+00  0.20033538631E+03  0.20226855845E+03  0.00000000000E+00 0. -1.
         22    1    3    3    0    0  0.24130065639E+03  0.10510937476E+02  0.86748282666E+03  0.90047928412E+03  0.00000000000E+00 0. -1.
         22    1    3    3    0    0 -0.81716015625E+01  0.20455060070E+02  0.45419779776E+02  0.50479113993E+02  0.00000000000E+00 0. -1.
</event>
<event>
 7    1  0.2895750E-005  0.4757042E+03  0.7818608E-02  0.1126616E+00
          2   -1    0    0  502    0  0.00000000000E+00  0.00000000000E+00  0.15796100906E+04  0.15796100906E+04  0.00000000000E+00 0. -1.
          1   -1    0    0  501    0 -0.00000000000E+00 -0.00000000000E+00 -0.16387612749E+04  0.16387612749E+04  0.00000000000E+00 0. -1.
         25    2    1    2    0    0  0.28013933383E+03 -0.30646983333E+03 -0.10452965954E+04  0.11316674559E+04  0.12499781311E+03 0.  0.
          2    1    1    2  501    0 -0.36729869334E+02 -0.10499738461E+03 -0.50691287970E+03  0.51897418210E+03  0.00000000000E+00 0. -1.
          1    1    1    2  502    0 -0.24340946450E+03  0.41146721793E+03  0.14930582908E+04  0.15677297276E+04  0.00000000000E+00 0. -1.
         22    1    3    3    0    0  0.22718619781E+03 -0.25354737694E+03 -0.95785025223E+03  0.10165514972E+04  0.00000000000E+00 0. -1.
         22    1    3    3    0    0  0.52953136015E+02 -0.52922456390E+02 -0.87446343143E+02  0.11511595864E+03  0.00000000000E+00 0. -1.
</event>
<event>
 7    1  0.2895750E-005  0.1191384E+04  0.7818608E-02  0.1093116E+00
          2   -1    0    0  502    0  0.00000000000E+00  0.00000000000E+00  0.35658184015E+04  0.35658184015E+04  0.00000000000E+00 0. -1.
          1   -1    0    0  501    0 -0.00000000000E+00 -0.00000000000E+00 -0.25762112165E+04  0.25762112165E+04  0.00000000000E+00 0. -1.
         25    2    1    2    0    0 -0.98349181562E+03 -0.60598937588E+03  0.13514859800E+04  0.17823071479E+04  0.12500056194E+03 0.  0.
          2    1    1    2  501    0  0.98679325969E+03  0.67397257912E+03 -0.22089137675E+04  0.25114338548E+04  0.00000000000E+00 0. -1.
          1    1    1    2  502    0 -0.33014440734E+01 -0.67983203242E+02  0.18470349725E+04  0.18482886152E+04  0.00000000000E+00 0. -1.
         22    1    3    3    0    0 -0.26593261428E+03 -0.19253499339E+03  0.30842495780E+03  0.45046180039E+03  0.00000000000E+00 0.  1.
         22    1    3    3    0    0 -0.71755920134E+03 -0.41345438249E+03  0.10430610222E+04  0.13318453475E+04  0.00000000000E+00 0.  1.
</event>
<event>
 7    1  0.2895750E-005  0.7518899E+02  0.7818608E-02  0.1390702E+00
          2   -1    0    0  502    0  0.00000000000E+00  0.00000000000E+00  0.38194900299E+04  0.38194900299E+04  0.00000000000E+00 0. -1.
          1   -1    0    0  501    0 -0.00000000000E+00 -0.00000000000E+00 -0.88199568233E+02  0.88199568233E+02  0.00000000000E+00 0. -1.
         25    2    1    2    0    0 -0.85508269638E+02  0.24840905541E+02  0.76473197137E+03  0.77997709689E+03  0.12498219421E+03 0.  0.
          2    1    1    2  501    0  0.38013156903E+02  0.33524278346E+02 -0.72094626051E+02  0.88127818774E+02  0.00000000000E+00 0. -1.
          1    1    1    2  502    0  0.47495112735E+02 -0.58365183887E+02  0.30386531164E+04  0.30395846825E+04  0.00000000000E+00 0. -1.
         22    1    3    3    0    0 -0.10576020565E+03 -0.14549795172E+02  0.59844034712E+03  0.60788795572E+03  0.00000000000E+00 0. -1.
         22    1    3    3    0    0  0.20251936011E+02  0.39390700713E+02  0.16629162425E+03  0.17208914117E+03  0.00000000000E+00 0. -1.
</event>
<event>
 7    1  0.2895750E-005  0.3129562E+03  0.7818608E-02  0.1186718E+00
          2   -1    0    0  502    0  0.00000000000E+00  0.00000000000E+00  0.28711180099E+04  0.28711180099E+04  0.00000000000E+00 0. -1.
          1   -1    0    0  501    0 -0.00000000000E+00 -0.00000000000E+00 -0.22820630115E+03  0.22820630115E+03  0.00000000000E+00 0. -1.
         25    2    1    2    0    0  0.20723144546E+03  0.14314644649E+03  0.36057652586E+03  0.45724901385E+03  0.12500181014E+03 0.  0.
          2    1    1    2  501    0  0.83304356700E+02  0.72130263601E+01 -0.15861279586E+03  0.17930326992E+03  0.00000000000E+00 0. -1.
          1    1    1    2  502    0 -0.29053580215E+03 -0.15035947285E+03  0.24409479787E+04  0.24627720273E+04  0.00000000000E+00 0. -1.
         22    1    3    3    0    0  0.13699165635E+03  0.20327481499E+02  0.15726732674E+03  0.20955412778E+03  0.00000000000E+00 0. -1.
         22    1    3    3    0    0  0.70239789107E+02  0.12281896499E+03  0.20330919913E+03  0.24769488607E+03  0.00000000000E+00 0. -1.
</event>
<event>
 7    1  0.2895750E-005  0.3626584E+03  0.7818608E-02  0.1087448E+00
          2   -1    0    0  502    0  0.00000000000E+00  0.00000000000E+00  0.36608297155E+03  0.36608297155E+03  0.00000000000E+00 0. -1.
          1   -1    0    0  501    0 -0.00000000000E+00 -0.00000000000E+00 -0.91402033924E+03  0.91402033924E+03  0.00000000000E+00 0. -1.
         25    2    1    2    0    0 -0.41965636172E+03  0.26940047238E+03 -0.24910687533E+02  0.51471690887E+03  0.12499950991E+03 0.  0.
          2    1    1    2  501    0  0.22254401463E+03 -0.92446017607E+02 -0.41381214317E+03  0.47886594622E+03  0.00000000000E+00 0. -1.
          1    1    1    2  502    0  0.19711234708E+03 -0.17695445477E+03 -0.10921453699E+03  0.28652045569E+03  0.00000000000E+00 0. -1.
         22    1    3    3    0    0 -0.41303536186E+03  0.25805943978E+03 -0.53045669431E+00  0.48702481044E+03  0.00000000000E+00 0.  1.
         22    1    3    3    0    0 -0.66209998590E+01  0.11341032600E+02 -0.24380230839E+02  0.27692098428E+02  0.00000000000E+00 0.  1.
</event>
<event>
 7    1  0.2895750E-005  0.6983691E+02  0.7818608E-02  0.1367543E+00
          2   -1    0    0  502    0  0.00000000000E+00  0.00000000000E+00  0.70528398826E+03  0.70528398826E+03  0.00000000000E+00 0. -1.
          1   -1    0    0  501    0 -0.00000000000E+00 -0.00000000000E+00 -0.11912529713E+04  0.11912529713E+04  0.00000000000E+00 0. -1.
         25    2    1    2    0    0  0.96404049137E+01 -0.18211286668E+02  0.38658761530E+03  0.40681622884E+03  0.12499948549E+03 0.  0.
          2    1    1    2  501    0  0.47098293187E+02  0.51787933779E+02 -0.11765649680E+04  0.11786455630E+04  0.00000000000E+00 0. -1.
          1    1    1    2  502    0 -0.56738698101E+02 -0.33576647110E+02  0.30400836970E+03  0.31107516767E+03  0.00000000000E+00 0. -1.
         22    1    3    3    0    0  0.66195077972E+02  0.17043463127E+01  0.22102553887E+03  0.23073140657E+03  0.00000000000E+00 0. -1.
         22    1    3    3    0    0 -0.56554673058E+02 -0.19915632981E+02  0.16556207643E+03  0.17608482227E+03  0.00000000000E+00 0. -1.
</event>
<event>
 7    1  0.2895750E-005  0.2558869E+03  0.7818608E-02  0.1118304E+00
          2   -1    0    0  502    0  0.00000000000E+00  0.00000000000E+00  0.15077108072E+04  0.15077108072E+04  0.00000000000E+00 0. -1.
          1   -1    0    0  501    0 -0.00000000000E+00 -0.00000000000E+00 -0.38518268561E+03  0.38518268561E+03  0.00000000000E+00 0. -1.
         25    2    1    2    0    0 -0.49988536489E+02 -0.30617342820E+03  0.62081092559E+03  0.70517471723E+03  0.12499661823E+03 0.  0.
          2    1    1    2  501    0 -0.16478200966E+03  0.15950485614E+03 -0.28112700933E+03  0.36280477562E+03  0.00000000000E+00 0. -1.
          1    1    1    2  502    0  0.21477054615E+03  0.14666857206E+03  0.78284420534E+03  0.82491399998E+03  0.00000000000E+00 0. -1.
         22    1    3    3    0    0 -0.95001323480E+01 -0.16501201466E+03  0.45283307268E+03  0.48205498566E+03  0.00000000000E+00 0. -1.
         22    1    3    3    0    0 -0.40488404141E+02 -0.14116141354E+03  0.16797785292E+03  0.22311973156E+03  0.00000000000E+00 0. -1.
</event>
<event>
 7    1  0.2895750E-005  0.1321740E+03  0.7818608E-02  0.1285377E+00
          2   -1    0    0  502    0  0.00000000000E+00  0.00000000000E+00  0.21856280634E+04  0.21856280634E+04  0.00000000000E+00 0. -1.
          1   -1    0    0  501    0 -0.00000000000E+00 -0.00000000000E+00 -0.26312319933E+04  0.26312319933E+04  0.00000000000E+00 0. -1.
         25    2    1    2    0    0 -0.35639665921E+02  0.96499772816E+02 -0.47251235948E+02  0.16864081764E+03  0.12499861653E+03 0.  0.
          2    1    1    2  501    0 -0.70301693281E+02 -0.16015495237E+02 -0.25206873807E+04  0.25217184013E+04  0.00000000000E+00 0. -1.
          1    1    1    2  502    0  0.10594135920E+03 -0.80484277579E+02  0.21223346868E+04  0.21265008378E+04  0.00000000000E+00 0. -1.
         22    1    3    3    0    0 -0.39480000748E+02  0.12302409662E+03 -0.20584140698E+02  0.13083312141E+03  0.00000000000E+00 0. -1.
         22    1    3    3    0    0  0.38403348267E+01 -0.26524323808E+02 -0.26667095250E+02  0.37807696229E+02  0.00000000000E+00 0. -1.
</event>
<event>
 7    1  0.2895750E-005  0.4673213E+03  0.7818608E-02  0.1060939E+00
          2   -1    0    0  502    0  0.00000000000E+00  0.00000000000E+00  0.11998098605E+04  0.11998098605E+04  0.00000000000E+00 0. -1.
          1   -1    0    0  501    0 -0.00000000000E+00 -0.00000000000E+00 -0.11754140999E+04  0.11754140999E+04  0.00000000000E+00 0. -1.
         25    2    1    2    0    0  0.19709123515E+03 -0.44785380165E+03 -0.31883303060E+03  0.59724061826E+03  0.12499548820E+03 0.  0.
          2    1    1    2  501    0 -0.26761163332E+03 -0.19624159820E+02 -0.63617261307E+03  0.69044673042E+03  0.00000000000E+00 0. -1.
          1    1    1    2  502    0  0.70520398170E+02  0.46747796147E+03  0.97940140429E+03  0.10875366117E+04  0.00000000000E+00 0. -1.
         22    1    3    3    0    0  0.61505615922E+02 -0.17956758048E+03 -0.55891004502E+02  0.19786677623E+03  0.00000000000E+00 0.  1.
         22    1    3    3    0    0  0.13558561923E+03 -0.26828622117E+03 -0.26294202610E+03  0.39937384203E+03  0.00000000000E+00 0.  1.
</event>
<event>
 7    1  0.2895750E-005  0.4116194E+03  0.7818608E-02  0.1078789E+00
          2   -1    0    0  502    0  0.00000000000E+00  0.00000000000E+00  0.19161145281E+03  0.19161145281E+03  0.00000000000E+00 0. -1.
          1   -1    0    0  501    0 -0.00000000000E+00 -0.00000000000E+00 -0.18232598893E+04  0.18232598893E+04  0.00000000000E+00 0. -1.
         25    2    1    2    0    0 -0.39744667554E+03  0.38933141580E+03 -0.88337521443E+03  0.10514320230E+04  0.12495886677E+03 0.  0.
          2    1    1    2  501    0  0.28625068529E+03 -0.17842992148E+03 -0.58228831925E+03  0.67293118403E+03  0.00000000000E+00 0. -1.
          1    1    1    2  502    0  0.11119599025E+03 -0.21090149432E+03 -0.16598490279E+03  0.29050813501E+03  0.00000000000E+00 0. -1.
         22    1    3    3    0    0 -0.15998458128E+03  0.80099522624E+02 -0.24421184653E+03  0.30273821324E+03  0.00000000000E+00 0. -1.
         22    1    3    3    0    0 -0.23746209426E+03  0.30923189317E+03 -0.63916336790E+03  0.74869380980E+03  0.00000000000E+00 0. -1.
</event>
<event>
 7    1  0.2895750E-005  0.1875009E+04  0.7818608E-02  0.1076292E+00
          2   -1    0    0  502    0  0.00000000000E+00  0.00000000000E+00  0.33270243778E+04  0.33270243778E+04  0.00000000000E+00 0. -1.
          1   -1    0    0  501    0 -0.00000000000E+00 -0.00000000000E+00 -0.21314115571E+04  0.21314115571E+04  0.00000000000E+00 0. -1.
         25    2    1    2    0    0  0.18417810072E+04  0.17490930511E+03  0.45238981137E+03  0.19086732322E+04  0.12500568880E+03 0.  0.
          2    1    1    2  501    0  0.42328594919E+02 -0.33753289958E+02 -0.98661337076E+03  0.98809763581E+03  0.00000000000E+00 0. -1.
          1    1    1    2  502    0 -0.18841096021E+04 -0.14115601515E+03  0.17298363800E+04  0.25616650669E+04  0.00000000000E+00 0. -1.
         22    1    3    3    0    0  0.63831055513E+03  0.11133421860E+03  0.12565912411E+03  0.66001961220E+03  0.00000000000E+00 0.  1.
         22    1    3    3    0    0  0.12034704521E+04  0.63575086513E+02  0.32673068726E+03  0.12486536200E+04  0.00000000000E+00 0.  1.
</event>
<event>
 7    1  0.2895750E-005  0.9125037E+02  0.7818608E-02  0.1420066E+00
          2   -1    0    0  502    0  0.00000000000E+00  0.00000000000E+00  0.26048361208E+04  0.26048361208E+04  0.00000000000E+00 0. -1.
          1   -1    0    0  501    0 -0.00000000000E+00 -0.00000000000E+00 -0.49533902493E+02  0.49533902493E+02  0.00000000000E+00 0. -1.
         25    2    1    2    0    0 -0.26627889923E+02  0.11891204988E+03  0.68063566201E+03  0.70266577232E+03  0.12500065224E+03 0.  0.
          2    1    1    2  501    0  0.22991005852E+02 -0.85953149616E+02  0.13207416930E+02  0.89949797893E+02  0.00000000000E+00 0. -1.
          1    1    1    2  502    0  0.36368840706E+01 -0.32958900264E+02  0.18614591394E+04  0.18617544531E+04  0.00000000000E+00 0. -1.
         22    1    3    3    0    0 -0.44114667997E+01  0.25137219605E+02  0.14017268317E+02  0.29117428799E+02  0.00000000000E+00 0.  1.
         22    1    3    3    0    0 -0.22216423123E+02  0.93774830275E+02  0.66661839370E+03  0.67354834352E+03  0.00000000000E+00 0.  1.
</event>
<event>
 7    1  0.2895750E-005  0.2105583E+03  0.7818608E-02  0.1183233E+00
          2   -1    0    0  502    0  0.00000000000E+00  0.00000000000E+00  0.20238399190E+04  0.20238399190E+04  0.00000000000E+00 0. -1.
          1   -1    0    0  501    0 -0.00000000000E+00 -0.00000000000E+00 -0.10714333457E+04  0.10714333457E+04  0.00000000000E+00 0. -1.
         25    2    1    2    0    0  0.13571876913E+03  0.12046782331E+03  0.65074665513E+03  0.68704377081E+03  0.12500341234E+03 0.  0.
          2    1    1    2  501    0  0.10011030009E+03 -0.81674703427E+02 -0.10387120883E+04  0.10467165957E+04  0.00000000000E+00 0. -1.
          1    1    1    2  502    0 -0.23582906922E+03 -0.38793119882E+02  0.13403720065E+04  0.13615128982E+04  0.00000000000E+00 0. -1.
         22    1    3    3    0    0  0.25156190025E+02 -0.24584705094E+02  0.70155058446E+02  0.78479130007E+02  0.00000000000E+00 0. -1.
         22    1    3    3    0    0  0.11056257910E+03  0.14505252840E+03  0.58059159668E+03  0.60856464080E+03  0.00000000000E+00 0. -1.
</event>
<event>
 7    1  0.2895750E-005  0.4828444E+03  0.7818608E-02  0.1175930E+00
          2   -1    0    0  502    0  0.00000000000E+00  0.00000000000E+00  0.20829798024E+04  0.20829798024E+04  0.00000000000E+00 0. -1.
          1   -1    0    0  501    0 -0.00000000000E+00 -0.00000000000E+00 -0.88867976895E+03  0.88867976895E+03  0.00000000000E+00 0. -1.
         25    2    1    2    0    0  0.48854674529E+03 -0.19920751100E+03  0.58467994772E+02  0.54534818575E+03  0.12499833007E+03 0.  0.
          2    1    1    2  501    0 -0.44259883864E+03  0.15883448911E+03 -0.55894024956E+03  0.73043571208E+03  0.00000000000E+00 0. -1.
          1    1    1    2  502    0 -0.45947906647E+02  0.40373021886E+02  0.16947722883E+04  0.16958756736E+04  0.00000000000E+00 0. -1.
         22    1    3    3    0    0  0.11410557778E+03 -0.21751830067E+01 -0.17516270601E+02  0.11546269544E+03  0.00000000000E+00 0. -1.
         22    1    3    3    0    0  0.37444116751E+03 -0.19703232799E+03  0.75984265372E+02  0.42988549032E+03  0.00000000000E+00 0. -1.
</event>
<event>
 7    1  0.2895750E-005  0.7861244E+03  0.7818608E-02  0.1101257E+00
          2   -1    0    0  502    0  0.00000000000E+00  0.00000000000E+00  0.16027241913E+04  0.16027241913E+04  0.00000000000E+00 0. -1.
          1   -1    0    0  501    0 -0.00000000000E+00 -0.00000000000E+00 -0.73379526024E+03  0.73379526024E+03  0.00000000000E+00 0. -1.
         25    2    1    2    0    0  0.80162872704E+03 -0.20556985046E+03  0.41052238262E+03  0.93221320753E+03  0.12500103296E+03 0.  0.
          2    1    1    2  501    0 -0.75770839024E+03  0.12386595762E+03 -0.15556422450E+03  0.78336773488E+03  0.00000000000E+00 0. -1.
          1    1    1    2  502    0 -0.43920336791E+02  0.81703892840E+02  0.61397077291E+03  0.62093850910E+03  0.00000000000E+00 0. -1.
         22    1    3    3    0    0  0.35450699028E+03 -0.61108902132E+02  0.11742813283E+03  0.37841626611E+03  0.00000000000E+00 0.  1.
         22    1    3    3    0    0  0.44712173676E+03 -0.14446094832E+03  0.29309424979E+03  0.55379694142E+03  0.00000000000E+00 0.  1.
</event>
<event>
 7    1  0.2895750E-005  0.2723808E+03  0.7818608E-02  0.1156390E+00
          2   -1    0    0  502    0  0.00000000000E+00  0.00000000000E+00  0.22226364748E+03  0.22226364748E+03  0.00000000000E+00 0. -1.
          1   -1    0    0  501    0 -0.00000000000E+00 -0.00000000000E+00 -0.74961061149E+03  0.74961061149E+03  0.00000000000E+00 0. -1.
         25    2    1    2    0    0  0.29359255120E+03 -0.90933640679E+02  0.15891054175E+02  0.33217890846E+03  0.12499915396E+03 0.  0.
          2    1    1    2  501    0 -0.13529145056E+03  0.11547673069E+02 -0.12119520920E+03  0.18200385732E+03  0.00000000000E+00 0. -1.
          1    1    1    2  502    0 -0.15830110064E+03  0.79385967611E+02 -0.42204280899E+03  0.45769149319E+03  0.00000000000E+00 0. -1.
         22    1    3    3    0    0  0.90912150748E+00  0.16269958451E+02 -0.10467234949E+02  0.19367525846E+02  0.00000000000E+00 0. -1.
         22    1    3    3    0    0  0.29268342970E+03 -0.10720359913E+03  0.26358289124E+02  0.31281138261E+03  0.00000000000E+00 0. -1.
</event>
<event>
 7    1  0.2895750E-005  0.7798961E+02  0.7818608E-02  0.1446903E+00
          2   -1    0    0  502    0  0.00000000000E+00  0.00000000000E+00  0.45925726870E+03  0.45925726870E+03  0.00000000000E+00 0. -1.
          1   -1    0    0  501    0 -0.00000000000E+00 -0.00000000000E+00 -0.46049785909E+03  0.46049785909E+03  0.00000000000E+00 0. -1.
         25    2    1    2    0    0 -0.15738542464E+02 -0.49749269932E+02  0.88064387595E+02  0.16156179013E+03  0.12499673631E+03 0.  0.
          2    1    1    2  501    0 -0.22453106069E+02 -0.22358734812E+02 -0.41816376603E+03  0.41936259993E+03  0.00000000000E+00 0. -1.
          1    1    1    2  502    0  0.38191648533E+02  0.72108004744E+02  0.32885878805E+03  0.33883073775E+03  0.00000000000E+00 0. -1.
         22    1    3    3    0    0  0.47302905667E+02  0.10737056445E+01  0.85663217947E+01  0.48084296786E+02  0.00000000000E+00 0.  1.
         22    1    3    3    0    0 -0.63041448131E+02 -0.50822975577E+02  0.79498065800E+02  0.11347749334E+03  0.00000000000E+00 0.  1.
</event>
<event>
 7    1  0.2895750E-005  0.2240692E+03  0.7818608E-02  0.1181271E+00
          2   -1    0    0  502    0  0.00000000000E+00  0.00000000000E+00  0.20162912062E+04  0.20162912062E+04  0.00000000000E+00 0. -1.
          1   -1    0    0  501    0 -0.00000000000E+00 -0.00000000000E+00 -0.19725277425E+03  0.19725277425E+03  0.00000000000E+00 0. -1.
         25    2    1    2    0    0  0.11017787922E+03 -0.46344494989E+02  0.89366637362E+03  0.91024785548E+03  0.12499837512E+03 0.  0.
          2    1    1    2  501    0 -0.23191965189E+03  0.22231441206E+02 -0.11201499796E+03  0.25851174380E+03  0.00000000000E+00 0. -1.
          1    1    1    2  502    0  0.12174177267E+03  0.24113053783E+02  0.10373870563E+04  0.10447843812E+04  0.00000000000E+00 0. -1.
         22    1    3    3    0    0  0.12398986327E+03 -0.57191139620E+02  0.57081331920E+03  0.58691750530E+03  0.00000000000E+00 0.  1.
         22    1    3    3    0    0 -0.13811984048E+02  0.10846644631E+02  0.32285305441E+03  0.32333035018E+03  0.00000000000E+00 0.  1.
</event>
<event>
 7    1  0.2895750E-005  0.5836270E+02  0.7818608E-02  0.1422243E+00
          2   -1    0    0  502    0  0.00000000000E+00  0.00000000000E+00  0.21875380607E+04  0.21875380607E+04  0.00000000000E+00 0. -1.
          1   -1    0    0  501    0 -0.00000000000E+00 -0.00000000000E+00 -0.57970915544E+02  0.57970915544E+02  0.00000000000E+00 0. -1.
         25    2    1    2    0    0 -0.15221786160E+01 -0.17275472479E+02  0.93346870405E+03  0.94196028416E+03  0.12499838609E+03 0.  0.
          2    1    1    2  501    0  0.14979398210E+02 -0.48734739759E+02 -0.40502174769E+02  0.65114386975E+02  0.00000000000E+00 0. -1.
          1    1    1    2  502    0 -0.13457219594E+02  0.66010212238E+02  0.12366006158E+04  0.12384343051E+04  0.00000000000E+00 0. -1.
         22    1    3    3    0    0  0.60582778545E+02 -0.17914515970E+02  0.52715762374E+03  0.53092971588E+03  0.00000000000E+00 0. -1.
         22    1    3    3    0    0 -0.62104957161E+02  0.63904349054E+00  0.40631108031E+03  0.41103056828E+03  0.00000000000E+00 0. -1.
</event>
<event>
 7    1  0.2895750E-005  0.6171533E+03  0.7818608E-02  0.1077960E+00
          2   -1    0    0  502    0  0.00000000000E+00  0.00000000000E+00  0.44190200822E+03  0.44190200822E+03  0.00000000000E+00 0. -1.
          1   -1    0    0  501    0 -0.00000000000E+00 -0.00000000000E+00 -0.17734313963E+04  0.17734313963E+04  0.00000000000E+00 0. -1.
         25    2    1    2    0    0  0.73501252349E+03  0.74749166281E+02 -0.81877174282E+03  0.11098839373E+04  0.12499735992E+03 0.  0.
          2    1    1    2  501    0 -0.16071230961E+03  0.55872381501E+01 -0.50020830212E+03  0.52542174412E+03  0.00000000000E+00 0. -1.
          1    1    1    2  502    0 -0.57430021389E+03 -0.80336404431E+02 -0.12549343187E+02  0.58002772310E+03  0.00000000000E+00 0. -1.
         22    1    3    3    0    0  0.39367681280E+03  0.72930780943E+02 -0.51984115920E+03  0.65615178316E+03  0.00000000000E+00 0. -1.
         22    1    3    3    0    0  0.34133571069E+03  0.18183853377E+01 -0.29893058362E+03  0.45373215418E+03  0.00000000000E+00 0. -1.
</event>
<event>
 7    1  0.2895750E-005  0.4432742E+03  0.7818608E-02  0.1095537E+00
          2   -1    0    0  502    0  0.00000000000E+00  0.00000000000E+00  0.17335010698E+04  0.17335010698E+04  0.00000000000E+00 0. -1.
          1   -1    0    0  501    0 -0.00000000000E+00 -0.00000000000E+00 -0.19642344206E+03  0.19642344206E+03  0.00000000000E+00 0. -1.
         25    2    1    2    0    0  0.28051738224E+01  0.56315066407E+03  0.89964197859E+03  0.10687028910E+04  0.12499456018E+03 0.  0.
          2    1    1    2  501    0 -0.34050946386E+02 -0.38871035436E+03  0.35346856674E+03  0.52649333729E+03  0.00000000000E+00 0. -1.
          1    1    1    2  502    0  0.31245772563E+02 -0.17444030971E+03  0.28396708243E+03  0.33472828363E+03  0.00000000000E+00 0. -1.
         22    1    3    3    0    0 -0.35319990523E+02  0.34109749227E+03  0.44996917516E+03  0.56574487144E+03  0.00000000000E+00 0. -1.
         22    1    3    3    0    0  0.38125164346E+02  0.22205317180E+03  0.44967280343E+03  0.50295801953E+03  0.00000000000E+00 0. -1.
</event>
<event>
 7    1  0.2895750E-005  0.1924760E+03  0.7818608E-02  0.1223785E+00
          2   -1    0    0  502    0  0.00000000000E+00  0.00000000000E+00  0.68932517171E+03  0.68932517171E+03  0.00000000000E+00 0. -1.
          1   -1    0    0  501    0 -0.00000000000E+00 -0.00000000000E+00 -0.11173036840E+04  0.11173036840E+04  0.00000000000E+00 0. -1.
         25    2    1    2    0    0 -0.20334082628E+03 -0.79121048782E+01 -0.39025156024E+03  0.45752749925E+03  0.12500015706E+03 0.  0.
          2    1    1    2  501    0  0.17039436244E+03  0.92974039342E+02 -0.67652593099E+03  0.70382224038E+03  0.00000000000E+00 0. -1.
          1    1    1    2  502    0  0.32946463843E+02 -0.85061934464E+02  0.63879897894E+03  0.64527911609E+03  0.00000000000E+00 0. -1.
         22    1    3    3    0    0 -0.38097845714E+02 -0.53237862605E+02 -0.82807673474E+02  0.10555958814E+03  0.00000000000E+00 0. -1.
         22    1    3    3    0    0 -0.16524298057E+03  0.45325757727E+02 -0.30744388677E+03  0.35196791111E+03  0.00000000000E+00 0. -1.
</event>
<event>
 7    1  0.2895750E-005  0.4574127E+03  0.7818608E-02  0.1198061E+00
          2   -1    0    0  502    0  0.00000000000E+00  0.00000000000E+00  0.89330832761E+03  0.89330832761E+03  0.00000000000E+00 0. -1.
          1   -1    0    0  501    0 -0.00000000000E+00 -0.00000000000E+00 -0.86217524783E+03  0.86217524783E+03  0.00000000000E+00 0. -1.
         25    2    1    2    0    0 -0.46046191364E+03 -0.31756541036E+02  0.63394399653E+03  0.79406793751E+03  0.12500098736E+03 0.  0.
          2    1    1    2  501    0  0.15801479305E+02  0.47960708227E+02 -0.50283821132E+03  0.50536737434E+03  0.00000000000E+00 0. -1.
          1    1    1    2  502    0  0.44466043433E+03 -0.16204167191E+02 -0.99972705420E+02  0.45604826359E+03  0.00000000000E+00 0. -1.
         22    1    3    3    0    0 -0.21760140648E+03 -0.62797094180E+02  0.23799284450E+03  0.32853377478E+03  0.00000000000E+00 0.  1.
         22    1    3    3    0    0 -0.24286050716E+03  0.31040553144E+02  0.39595115203E+03  0.46553416273E+03  0.00000000000E+00 0.  1.
</event>
<event>
 7    1  0.2895750E-005  0.2051698E+03  0.7818608E-02  0.1309649E+00
          2   -1    0    0  502    0  0.00000000000E+00  0.00000000000E+00  0.77792651034E+03  0.77792651034E+03  0.00000000000E+00 0. -1.
          1   -1    0    0  501    0 -0.00000000000E+00 -0.00000000000E+00 -0.17669669405E+04  0.17669669405E+04  0.00000000000E+00 0. -1.
         25    2    1    2    0    0  0.18887562174E+03 -0.14535325273E+02  0.55833536577E+02  0.23373618540E+03  0.12501977601E+03 0.  0.
          2    1    1    2  501    0 -0.20510683818E+03 -0.18830548145E+02 -0.16711439795E+04  0.16837890619E+04  0.00000000000E+00 0. -1.
          1    1    1    2  502    0  0.16231216448E+02  0.33365873418E+02  0.62627001279E+03  0.62736820355E+03  0.00000000000E+00 0. -1.
         22    1    3    3    0    0  0.18873656462E+02 -0.48237924066E+02  0.48123230018E+00  0.51801002027E+02  0.00000000000E+00 0.  1.
         22    1    3    3    0    0  0.17000196527E+03  0.33702598793E+02  0.55352304276E+02  0.18193518338E+03  0.00000000000E+00 0.  1.
</event>
<event>
 7    1  0.2895750E-005  0.5035007E+03  0.7818608E-02  0.1258714E+00
          2   -1    0    0  502    0  0.00000000000E+00  0.00000000000E+00  0.19140121612E+04  0.19140121612E+04  0.00000000000E+00 0. -1.
          1   -1    0    0  501    0 -0.00000000000E+00 -0.00000000000E+00 -0.26382178403E+03  0.26382178403E+03  0.00000000000E+00 0. -1.
         25    2    1    2    0    0 -0.17689258833E+03 -0.44976519747E+03  0.15595284573E+04  0.16374778531E+04  0.12499995782E+03 0.  0.
          2    1    1    2  501    0  0.18135486711E+03  0.47382924215E+03  0.92880479588E+02  0.51578146732E+03  0.00000000000E+00 0. -1.
          1    1    1    2  502    0 -0.44622787846E+01 -0.24064044685E+02 -0.22185597300E+01  0.24574624836E+02  0.00000000000E+00 0. -1.
         22    1    3    3    0    0 -0.88393976382E+02 -0.99827507096E+02  0.52968264334E+03  0.54620758773E+03  0.00000000000E+00 0. -1.
         22    1    3    3    0    0 -0.88498611945E+02 -0.34993769037E+03  0.10298458140E+04  0.10912702653E+04  0.00000000000E+00 0. -1.
</event>
<event>
 7    1  0.3073349E-005  0.1979136E+03  0.7818608E-02  0.1194014E+00
          2   -1    0    0  502    0  0.00000000000E+00  0.00000000000E+00  0.85040328863E+03  0.85040328863E+03  0.00000000000E+00 0. -1.
          1   -1    0    0  501    0 -0.00000000000E+00 -0.00000000000E+00 -0.13510429760E+04  0.13510429760E+04  0.00000000000E+00 0. -1.
         25    2    1    2    0    0 -0.12680527585E+03 -0.16984137572E+03 -0.74375625732E+03  0.78340609137E+03  0.12500425118E+03 0.  0.
          2    1    1    2  501    0  0.92482369112E+01  0.20241447919E+03 -0.56527634414E+03  0.60049520940E+03  0.00000000000E+00 0. -1.
          1    1    1    2  502    0  0.11755703894E+03 -0.32573103471E+02  0.80839291406E+03  0.81754496389E+03  0.00000000000E+00 0. -1.
         22    1    3    3    0    0 -0.11259833887E+03 -0.72346719154E+02 -0.29468054853E+03  0.32364959349E+03  0.00000000000E+00 0. -1.
         22    1    3    3    0    0 -0.14206936978E+02 -0.97494656562E+02 -0.44907570879E+03  0.45975649788E+03  0.00000000000E+00 0. -1.
</event>
<event>
 7    1  0.2895750E-005  0.3927423E+03  0.7818608E-02  0.1246922E+00
          2   -1    0    0  502    0  0.00000000000E+00  0.00000000000E+00  0.26370395369E+04  0.26370395369E+04  0.00000000000E+00 0. -1.
          1   -1    0    0  501    0 -0.00000000000E+00 -0.00000000000E+00 -0.20619920472E+03  0.20619920472E+03  0.00000000000E+00 0. -1.
         25    2    1    2    0    0 -0.33985321029E+03  0.24046530189E+03  0.20984432536E+03  0.48268155368E+03  0.12499230142E+03 0.  0.
          2    1    1    2  501    0  0.35161845236E+02  0.28830619829E+01 -0.47288587125E+02  0.58998965067E+02  0.00000000000E+00 0. -1.
          1    1    1    2  502    0  0.30469136506E+03 -0.24334836387E+03  0.22682845940E+04  0.23015582229E+04  0.00000000000E+00 0. -1.
         22    1    3    3    0    0 -0.18654667545E+03  0.10738032735E+03  0.42078540095E+02  0.21931894664E+03  0.00000000000E+00 0.  1.
         22    1    3    3    0    0 -0.15330653485E+03  0.13308497455E+03  0.16776578527E+03  0.26336260704E+03  0.00000000000E+00 0.  1.
</event>
<event>
 7    1  0.2895750E-005  0.5078247E+02  0.7818608E-02  0.1553199E+00
          2   -1    0    0  502    0  0.00000000000E+00  0.00000000000E+00  0.34316181416E+02  0.34316181416E+02  0.00000000000E+00 0. -1.
          1   -1    0    0  501    0 -0.00000000000E+00 -0.00000000000E+00 -0.13328772107E+04  0.13328772107E+04  0.00000000000E+00 0. -1.
         25    2    1    2    0    0  0.10136307111E+02 -0.28315683692E+02 -0.14371690816E+03  0.19283057934E+03  0.12499823987E+03 0.  0.
          2    1    1    2  501    0 -0.28844633050E+02  0.42406727434E+02 -0.11491045081E+04  0.11502484575E+04  0.00000000000E+00 0. -1.
          1    1    1    2  502    0  0.18708325939E+02 -0.14091043741E+02 -0.57396130014E+01  0.24114355280E+02  0.00000000000E+00 0. -1.
         22    1    3    3    0    0  0.13267562534E+02  0.49108882731E+02 -0.62369289642E+02  0.80483780162E+02  0.00000000000E+00 0.  1.
         22    1    3    3    0    0 -0.31312554232E+01 -0.77424566424E+02 -0.81347618515E+02  0.11234679917E+03  0.00000000000E+00 0.  1.
</event>
<event>
 7    1  0.2895750E-005  0.1493750E+03  0.7818608E-02  0.1398025E+00
          2   -1    0    0  502    0  0.00000000000E+00  0.00000000000E+00  0.28307979852E+03  0.28307979852E+03  0.00000000000E+00 0. -1.
          1   -1    0    0  501    0 -0.00000000000E+00 -0.00000000000E+00 -0.85495524977E+03  0.85495524977E+03  0.00000000000E+00 0. -1.
         25    2    1    2    0    0  0.15505295951E+03 -0.52923432279E+02 -0.21256824356E+03  0.29606160743E+03  0.12499962914E+03 0.  0.
          2    1    1    2  501    0 -0.14286452239E+03  0.32175123466E+02 -0.59108204562E+03  0.60895278551E+03  0.00000000000E+00 0. -1.
          1    1    1    2  502    0 -0.12188437114E+02  0.20748308814E+02  0.23177483794E+03  0.23302065535E+03  0.00000000000E+00 0. -1.
         22    1    3    3    0    0  0.10324119173E+03 -0.79616677248E+00 -0.19476813899E+03  0.22044048067E+03  0.00000000000E+00 0.  1.
         22    1    3    3    0    0  0.51811767773E+02 -0.52127265507E+02 -0.17800104571E+02  0.75621126755E+02  0.00000000000E+00 0.  1.
</event>
<event>
 7    1  0.2895750E-005  0.7558463E+02  0.7818608E-02  0.1400697E+00
          2   -1    0    0  502    0  0.00000000000E+00  0.00000000000E+00  0.76327744262E+03  0.76327744262E+03  0.00000000000E+00 0. -1.
          1   -1    0    0  501    0 -0.00000000000E+00 -0.00000000000E+00 -0.52621372587E+03  0.52621372587E+03  0.00000000000E+00 0. -1.
         25    2    1    2    0    0 -0.14114315214E+02  0.72813043966E+02  0.15394133777E+03  0.21171185023E+03  0.12499207490E+03 0.  0.
          2    1    1    2  501    0  0.46456541263E+02 -0.30883867337E+01 -0.49368396969E+03  0.49587459129E+03  0.00000000000E+00 0. -1.
          1    1    1    2  502    0 -0.32342226049E+02 -0.69724657233E+02  0.57680634867E+03  0.58190472698E+03  0.00000000000E+00 0. -1.
         22    1    3    3    0    0 -0.44201692350E+02  0.11049395295E+02  0.27518779616E+01  0.45644841716E+02  0.00000000000E+00 0. -1.
         22    1    3    3    0    0  0.30087377135E+02  0.61763648671E+02  0.15118945980E+03  0.16606700851E+03  0.00000000000E+00 0. -1.
</event>
<event>
 7    1  0.2895750E-005  0.9395846E+02  0.7818608E-02  0.1427093E+00
          2   -1    0    0  502    0  0.00000000000E+00  0.00000000000E+00  0.95901250690E+03  0.95901250690E+03  0.00000000000E+00 0. -1.
          1   -1    0    0  501    0 -0.00000000000E+00 -0.00000000000E+00 -0.21892952282E+02  0.21892952282E+02  0.00000000000E+00 0. -1.
         25    2    1    2    0    0  0.76447405847E+02 -0.38922343723E+02  0.45927284381E+03  0.48364810126E+03  0.12499914433E+03 0.  0.
          2    1    1    2  501    0 -0.53297830042E+01 -0.30048596670E+02  0.54393957933E+02  0.62370084242E+02  0.00000000000E+00 0. -1.
          1    1    1    2  502    0 -0.71117622842E+02  0.68970940393E+02  0.42345275287E+03  0.43488727368E+03  0.00000000000E+00 0. -1.
         22    1    3    3    0    0  0.27421089897E+02 -0.50643902157E+02  0.40690870269E+03  0.41096400490E+03  0.00000000000E+00 0. -1.
         22    1    3    3    0    0  0.49026315950E+02  0.11721558435E+02  0.52364141119E+02  0.72684096355E+02  0.00000000000E+00 0. -1.
</event>
<event>
 7    1  0.2895750E-005  0.6821178E+03  0.7818608E-02  0.1116470E+00
          2   -1    0    0  502    0  0.00000000000E+00  0.00000000000E+00  0.31058655282E+04  0.31058655282E+04  0.00000000000E+00 0. -1.
          1   -1    0    0  501    0 -0.00000000000E+00 -0.00000000000E+00 -0.18905058358E+04  0.18905058358E+04  0.00000000000E+00 0. -1.
         25    2    1    2    0    0  0.38671481107E+03 -0.61748357521E+03  0.11799340303E+04  0.13923737285E+04  0.12500389362E+03 0.  0.
          2    1    1    2  501    0 -0.41895837048E+03  0.53556207977E+03 -0.17183604897E+04  0.18480031467E+04  0.00000000000E+00 0. -1.
          1    1    1    2  502    0  0.32243559409E+02  0.81921495439E+02  0.17537861518E+04  0.17559944888E+04  0.00000000000E+00 0. -1.
         22    1    3    3    0    0  0.23809679342E+03 -0.37323200456E+03  0.59847231730E+03  0.74442012791E+03  0.00000000000E+00 0. -1.
         22    1    3    3    0    0  0.14861801766E+03 -0.24425157064E+03  0.58146171296E+03  0.64795360064E+03  0.00000000000E+00 0. -1.
</event>
<event>
 7    1  0.2895750E-005  0.1249025E+03  0.7818608E-02  0.1328081E+00
          2   -1    0    0  502    0  0.00000000000E+00  0.00000000000E+00  0.15074620464E+03  0.15074620464E+03  0.00000000000E+00 0. -1.
          1   -1    0    0  501    0 -0.00000000000E+00 -0.00000000000E+00 -0.36712336610E+03  0.36712336610E+03  0.00000000000E+00 0. -1.
         25    2    1    2    0    0  0.15098447621E+03  0.49228503470E+02 -0.11287981829E+02  0.20241553272E+03  0.12499948697E+03 0.  0.
          2    1    1    2  501    0 -0.47834571117E+02 -0.19562790333E+02 -0.20154394430E+03  0.20806443820E+03  0.00000000000E+00 0. -1.
          1    1    1    2  502    0 -0.10314990509E+03 -0.29665713137E+02 -0.35452353284E+01  0.10738959982E+03  0.00000000000E+00 0. -1.
         22    1    3    3    0    0  0.16250504405E+02 -0.35799562153E+02 -0.17364488968E+02  0.42979216150E+02  0.00000000000E+00 0. -1.
         22    1    3    3    0    0  0.13473397180E+03  0.85028065623E+02  0.60765071385E+01  0.15943631657E+03  0.00000000000E+00 0. -1.
</event>
<event>
 7    1  0.2895750E-005  0.1453888E+03  0.7818608E-02  0.1219440E+00
          2   -1    0    0  502    0  0.00000000000E+00  0.00000000000E+00  0.62553136457E+03  0.62553136457E+03  0.00000000000E+00 0. -1.
          1   -1    0    0  501    0 -0.00000000000E+00 -0.00000000000E+00 -0.95617664689E+03  0.95617664689E+03  0.00000000000E+00 0. -1.
         25    2    1    2    0    0  0.73730478531E+02 -0.99462172932E+02 -0.13342656279E+03  0.22080995202E+03  0.12500191975E+03 0.  0.
          2    1    1    2  501    0 -0.11891548218E+03 -0.42801950249E+02 -0.76420875416E+03  0.77458887081E+03  0.00000000000E+00 0. -1.
          1    1    1    2  502    0  0.45185003647E+02  0.14226412318E+03  0.56699003463E+03  0.58630918863E+03  0.00000000000E+00 0. -1.
         22    1    3    3    0    0 -0.31302250690E+02 -0.33953148065E+02 -0.63878221289E+02  0.78823057013E+02  0.00000000000E+00 0.  1.
         22    1    3    3    0    0  0.10503272922E+03 -0.65509024867E+02 -0.69548341505E+02  0.14198689500E+03  0.00000000000E+00 0.  1.
</event>
<event>
 7    1  0.2895750E-005  0.8951697E+02  0.7818608E-02  0.1405890E+00
          2   -1    0    0  502    0  0.00000000000E+00  0.00000000000E+00  0.14053985547E+03  0.14053985547E+03  0.00000000000E+00 0. -1.
          1   -1    0    0  501    0 -0.00000000000E+00 -0.00000000000E+00 -0.14569598042E+04  0.14569598042E+04  0.00000000000E+00 0. -1.
         25    2    1    2    0    0 -0.16782568650E+02 -0.62395542964E+02 -0.63249486410E+03  0.64795792203E+03  0.12499942884E+03 0.  0.
          2    1    1    2  501    0  0.42231188507E+02  0.90259670438E+02 -0.81093989210E+03  0.81703965020E+03  0.00000000000E+00 0. -1.
          1    1    1    2  502    0 -0.25448619856E+02 -0.27864127474E+02  0.12701480749E+03  0.13250208744E+03  0.00000000000E+00 0. -1.
         22    1    3    3    0    0 -0.52795086890E+02 -0.82770070555E+02 -0.40485665016E+03  0.41658986181E+03  0.00000000000E+00 0.  1.
         22    1    3    3    0    0  0.36012518239E+02  0.20374527590E+02 -0.22763821394E+03  0.23136806022E+03  0.00000000000E+00 0.  1.
</event>
<event>
 7    1  0.2895750E-005  0.1273156E+03  0.7818608E-02  0.1304061E+00
          2   -1    0    0  502    0  0.00000000000E+00  0.00000000000E+00  0.19066064409E+04  0.19066064409E+04  0.00000000000E+00 0. -1.
          1   -1    0    0  501    0 -0.00000000000E+00 -0.00000000000E+00 -0.65389676913E+02  0.65389676913E+02  0.00000000000E+00 0. -1.
         25    2    1    2    0    0  0.48712202200E+02  0.13209019916E+03  0.17938787082E+04  0.18037313396E+04  0.12500090422E+03 0.  0.
          2    1    1    2  501    0 -0.18191492875E+02 -0.60232641946E+02 -0.19096000121E+02  0.65753773956E+02  0.00000000000E+00 0. -1.
          1    1    1    2  502    0 -0.30520709324E+02 -0.71857557211E+02  0.66434055893E+02  0.10251100433E+03  0.00000000000E+00 0. -1.
         22    1    3    3    0    0 -0.27219035978E+02  0.36573521226E+02  0.19739753797E+03  0.20259389519E+03  0.00000000000E+00 0.  1.
         22    1    3    3    0    0  0.75931238178E+02  0.95516677931E+02  0.15964811703E+04  0.16011374444E+04  0.00000000000E+00 0.  1.
</event>
<event>
 7    1  0.2895750E-005  0.9850585E+02  0.7818608E-02  0.1330164E+00
          2   -1    0    0  502    0  0.00000000000E+00  0.00000000000E+00  0.16805240897E+04  0.16805240897E+04  0.00000000000E+00 0. -1.
          1   -1    0    0  501    0 -0.00000000000E+00 -0.00000000000E+00 -0.59172677050E+02  0.59172677050E+02  0.00000000000E+00 0. -1.
         25    2    1    2    0    0  0.64325520260E+02  0.22795218684E+02  0.66660996212E+02  0.15724769134E+03  0.12500301382E+03 0.  0.
          2    1    1    2  501    0  0.29865568462E+02 -0.56985707959E+02  0.72722433256E+02  0.97097247077E+02  0.00000000000E+00 0. -1.
          1    1    1    2  502    0 -0.94191088722E+02  0.34190489275E+02  0.14819679832E+04  0.14853518283E+04  0.00000000000E+00 0. -1.
         22    1    3    3    0    0  0.62396182970E+02  0.62554520643E+02  0.75791943794E+02  0.11640777657E+03  0.00000000000E+00 0. -1.
         22    1    3    3    0    0  0.19293372893E+01 -0.39759301959E+02 -0.91309475822E+01  0.40839914770E+02  0.00000000000E+00 0. -1.
</event>
<event>
 7    1  0.2895750E-005  0.1299390E+03  0.7818608E-02  0.1374393E+00
          2   -1    0    0  502    0  0.00000000000E+00  0.00000000000E+00  0.64898242216E+03  0.64898242216E+03  0.00000000000E+00 0. -1.
          1   -1    0    0  501    0 -0.00000000000E+00 -0.00000000000E+00 -0.34377039395E+03  0.34377039395E+03  0.00000000000E+00 0. -1.
         25    2    1    2    0    0 -0.89553028940E+02  0.41785834033E+02  0.16554789753E+03  0.22977431408E+03  0.12499731243E+03 0.  0.
          2    1    1    2  501    0  0.12127823892E+03 -0.52493884413E+02 -0.29697834165E+03  0.32505407942E+03  0.00000000000E+00 0. -1.
          1    1    1    2  502    0 -0.31725209976E+02  0.10708050381E+02  0.43664247233E+03  0.43792442262E+03  0.00000000000E+00 0. -1.
         22    1    3    3    0    0  0.80273992240E+01  0.57931334261E+02  0.79368990465E+02  0.98589630667E+02  0.00000000000E+00 0.  1.
         22    1    3    3    0    0 -0.97580428164E+02 -0.16145500228E+02  0.86178907067E+02  0.13118468341E+03  0.00000000000E+00 0.  1.
</event>
<event>
 7    1  0.2895750E-005  0.6031575E+03  0.7818608E-02  0.1101872E+00
          2   -1    0    0  502    0  0.00000000000E+00  0.00000000000E+00  0.21567757707E+04  0.21567757707E+04  0.00000000000E+00 0. -1.
          1   -1    0    0  501    0 -0.00000000000E+00 -0.00000000000E+00 -0.24052041338E+03  0.24052041338E+03  0.00000000000E+00 0. -1.
         25    2    1    2    0    0  0.12289992295E+02 -0.59584877471E+03  0.11786234941E+04  0.13266367028E+04  0.12499917654E+03 0.  0.
          2    1    1    2  501    0 -0.11883089189E+03 -0.16283677152E+02  0.20297941082E+02  0.12164680605E+03  0.00000000000E+00 0. -1.
          1    1    1    2  502    0  0.10654089959E+03  0.61213245187E+03  0.71733392216E+03  0.94901267525E+03  0.00000000000E+00 0. -1.
         22    1    3    3    0    0 -0.11627996686E+02 -0.47538384293E+03  0.10251621253E+04  0.11300807014E+04  0.00000000000E+00 0.  1.
         22    1    3    3    0    0  0.23917988981E+02 -0.12046493178E+03  0.15346136871E+03  0.19655600137E+03  0.00000000000E+00 0.  1.
</event>
<event>
 7    1  0.2895750E-005  0.5613017E+02  0.7818608E-02  0.1464085E+00
          2   -1    0    0  502    0  0.00000000000E+00  0.00000000000E+00  0.17796844930E+03  0.17796844930E+03  0.00000000000E+00 0. -1.
          1   -1    0    0  501    0 -0.00000000000E+00 -0.00000000000E+00 -0.24667885464E+03  0.24667885464E+03  0.00000000000E+00 0. -1.
         25    2    1    2    0    0 -0.18733215838E+02 -0.33228003169E+02  0.10311474553E+03  0.16647206735E+03  0.12500105956E+03 0.  0.
          2    1    1    2  501    0 -0.25841608691E+02 -0.28982835618E+02 -0.17724813037E+03  0.18145162777E+03  0.00000000000E+00 0. -1.
          1    1    1    2  502    0  0.44574824529E+02  0.62210838787E+02  0.54229794964E+01  0.76723608824E+02  0.00000000000E+00 0. -1.
         22    1    3    3    0    0 -0.25277360842E+02 -0.77330298263E+02  0.86873955273E+02  0.11902102380E+03  0.00000000000E+00 0.  1.
         22    1    3    3    0    0  0.65441450040E+01  0.44102295094E+02  0.16240790261E+02  0.47451043557E+02  0.00000000000E+00 0.  1.
</event>
<event>
 7    1  0.2895750E-005  0.2391434E+03  0.7818608E-02  0.1258214E+00
          2   -1    0    0  502    0  0.00000000000E+00  0.00000000000E+00  0.24797810814E+04  0.24797810814E+04  0.00000000000E+00 0. -1.
          1   -1    0    0  501    0 -0.00000000000E+00 -0.00000000000E+00 -0.16429520817E+04  0.16429520817E+04  0.00000000000E+00 0. -1.
         25    2    1    2    0    0 -0.23176411576E+03 -0.15714538365E+03 -0.34309467221E+03  0.46016293447E+03  0.12500678063E+03 0.  0.
          2    1    1    2  501    0  0.20077426801E+03  0.11565819956E+03 -0.12302302567E+04  0.12518600602E+04  0.00000000000E+00 0. -1.
          1    1    1    2  502    0  0.30989847746E+02  0.41487184085E+02  0.24101539286E+04  0.24107101685E+04  0.00000000000E+00 0. -1.
         22    1    3    3    0    0 -0.20217928319E+03 -0.17606333024E+03 -0.27806521079E+03  0.38625771223E+03  0.00000000000E+00 0.  1.
         22    1    3    3    0    0 -0.29584832567E+02  0.18917946590E+02 -0.65029461421E+02  0.73905222238E+02  0.00000000000E+00 0.  1.
</event>
<event>
 7    1  0.2895750E-005  0.2004916E+03  0.7818608E-02  0.1235854E+00
          2   -1    0    0  502    0  0.00000000000E+00  0.00000000000E+00  0.29739058633E+03  0.29739058633E+03  0.00000000000E+00 0. -1.
          1   -1    0    0  501    0 -0.00000000000E+00 -0.00000000000E+00 -0.80252506879E+03  0.80252506879E+03  0.00000000000E+00 0. -1.
         25    2    1    2    0    0  0.30801600756E+02  0.25744240030E+03 -0.29156600741E+03  0.40970887554E+03  0.12500119176E+03 0.  0.
          2    1    1    2  501    0 -0.22802265382E+02 -0.18054673583E+03 -0.42648547165E+03  0.46368839176E+03  0.00000000000E+00 0. -1.
          1    1    1    2  502    0 -0.79993353733E+01 -0.76895664472E+02  0.21291699659E+03  0.22651838782E+03  0.00000000000E+00 0. -1.
         22    1    3    3    0    0 -0.43853528270E+02  0.68411118039E+02 -0.11289787284E+03  0.13910119592E+03  0.00000000000E+00 0. -1.
         22    1    3    3    0    0  0.74655129026E+02  0.18903128226E+03 -0.17866813457E+03  0.27060767963E+03  0.00000000000E+00 0. -1.
</event>
<event>
 7    1  0.2895750E-005  0.2199580E+03  0.7818608E-02  0.1230824E+00
          2   -1    0    0  502    0  0.00000000000E+00  0.00000000000E+00  0.73158436677E+03  0.73158436677E+03  0.00000000000E+00 0. -1.
          1   -1    0    0  501    0 -0.00000000000E+00 -0.00000000000E+00 -0.42235536572E+03  0.42235536572E+03  0.00000000000E+00 0. -1.
         25    2    1    2    0    0  0.15470481836E+03 -0.23258277360E+03  0.50083059216E+03  0.58692862750E+03  0.12500241732E+03 0.  0.
          2    1    1    2  501    0 -0.89367165092E+02  0.19741058806E+03 -0.33879692508E+03  0.40217009700E+03  0.00000000000E+00 0. -1.
          1    1    1    2  502    0 -0.65337653269E+02  0.35172185540E+02  0.14719533398E+03  0.16484100799E+03  0.00000000000E+00 0. -1.
         22    1    3    3    0    0  0.44018368525E+02 -0.17599353733E+03  0.28430922426E+03  0.33725817551E+03  0.00000000000E+00 0. -1.
         22    1    3    3    0    0  0.11068644984E+03 -0.56589236267E+02  0.21652136790E+03  0.24967045198E+03  0.00000000000E+00 0. -1.
</event>
<event>
 7    1  0.2895750E-005  0.5301817E+02  0.7818608E-02  0.1458069E+00
          2   -1    0    0  502    0  0.00000000000E+00  0.00000000000E+00  0.48368982221E+03  0.48368982221E+03  0.00000000000E+00 0. -1.
          1   -1    0    0  501    0 -0.00000000000E+00 -0.00000000000E+00 -0.17741440107E+03  0.17741440107E+03  0.00000000000E+00 0. -1.
         25    2    1    2    0    0  0.44174924687E+02 -0.27811311728E+02 -0.95138320937E+02  0.16553182746E+03  0.12499837103E+03 0.  0.
          2    1    1    2  501    0 -0.35156279178E+02 -0.24660113111E+02 -0.35322066865E+02  0.55603359178E+02  0.00000000000E+00 0. -1.
          1    1    1    2  502    0 -0.90186455086E+01  0.52471424838E+02  0.43673580894E+03  0.43996903664E+03  0.00000000000E+00 0. -1.
         22    1    3    3    0    0  0.54423995795E+02  0.39574265075E+02 -0.48197555551E+02  0.82771360600E+02  0.00000000000E+00 0. -1.
         22    1    3    3    0    0 -0.10249071108E+02 -0.67385576802E+02 -0.46940765386E+02  0.82760466858E+02  0.00000000000E+00 0. -1.
</event>
<event>
 7    1  0.2895750E-005  0.4955821E+03  0.7818608E-02  0.1173551E+00
          2   -1    0    0  502    0  0.00000000000E+00  0.00000000000E+00  0.69336487921E+03  0.69336487921E+03  0.00000000000E+00 0. -1.
          1   -1    0    0  501    0 -0.00000000000E+00 -0.00000000000E+00 -0.46881293642E+03  0.46881293642E+03  0.00000000000E+00 0. -1.
         25    2    1    2    0    0  0.28651846400E+03 -0.37478150513E+03  0.29953460491E+03  0.57262544924E+03  0.12499967512E+03 0.  0.
          2    1    1    2  501    0 -0.34754782925E+03  0.36991551144E+03 -0.10953207090E+03  0.51925355442E+03  0.00000000000E+00 0. -1.
          1    1    1    2  502    0  0.61029365251E+02  0.48659936885E+01  0.34549408776E+02  0.70298811969E+02  0.00000000000E+00 0. -1.
         22    1    3    3    0    0  0.19092223194E+01 -0.16083332052E+01  0.32617857459E+02  0.32713246412E+02  0.00000000000E+00 0.  1.
         22    1    3    3    0    0  0.28460924168E+03 -0.37317317192E+03  0.26691674745E+03  0.53991220283E+03  0.00000000000E+00 0.  1.
</event>
<event>
 7    1  0.2895750E-005  0.4133228E+03  0.7818608E-02  0.1074188E+00
          2   -1    0    0  502    0  0.00000000000E+00  0.00000000000E+00  0.15823428570E+04  0.15823428570E+04  0.00000000000E+00 0. -1.
          1   -1    0    0  501    0 -0.00000000000E+00 -0.00000000000E+00 -0.77650294895E+03  0.77650294895E+03  0.00000000000E+00 0. -1.
         25    2    1    2    0    0 -0.30221821057E+03  0.35619292202E+03 -0.90326154056E+02  0.49192678005E+03  0.12499559323E+03 0.  0.
          2    1    1    2  501    0  0.24671954975E+03  0.54747899258E+02 -0.41823418355E+03  0.48865908463E+03  0.00000000000E+00 0. -1.
          1    1    1    2  502    0  0.55498660814E+02 -0.41094082128E+03  0.13144002457E+04  0.13782599413E+04  0.00000000000E+00 0. -1.
         22    1    3    3    0    0  0.10675717355E+02  0.28229744342E+02 -0.81057663898E+01  0.31250485683E+02  0.00000000000E+00 0.  1.
         22    1    3    3    0    0 -0.31289392792E+03  0.32796317768E+03 -0.82220387667E+02  0.46067629437E+03  0.00000000000E+00 0.  1.
</event>
<event>
 7    1  0.2895750E-005  0.7485585E+02  0.7818608E-02  0.1468780E+00
          2   -1    0    0  502    0  0.00000000000E+00  0.00000000000E+00  0.69222544713E+03  0.69222544713E+03  0.00000000000E+00 0. -1.
          1   -1    0    0  501    0 -0.00000000000E+00 -0.00000000000E+00 -0.13878557867E+03  0.13878557867E+03  0.00000000000E+00 0. -1.
         25    2    1    2    0    0  0.38046585538E+02 -0.36086970410E+02  0.80095028915E+02  0.15744832802E+03  0.12499980093E+03 0.  0.
          2    1    1    2  501    0 -0.45314791783E+02  0.63281433903E+02 -0.84571840364E+02  0.11493635810E+03  0.00000000000E+00 0. -1.
          1    1    1    2  502    0  0.72682062444E+01 -0.27194463493E+02  0.55791667991E+03  0.55862633968E+03  0.00000000000E+00 0. -1.
         22    1    3    3    0    0  0.16655618612E+02 -0.58761057656E+02 -0.10202047454E+02  0.61922155166E+02  0.00000000000E+00 0. -1.
         22    1    3    3    0    0  0.21390966927E+02  0.22674087246E+02  0.90297076369E+02  0.95526172850E+02  0.00000000000E+00 0. -1.
</event>
<event>
 7    1  0.2895750E-005  0.9000840E+02  0.7818608E-02  0.1327944E+00
          2   -1    0    0  502    0  0.00000000000E+00  0.00000000000E+00  0.69355915636E+03  0.69355915636E+03  0.00000000000E+00 0. -1.
          1   -1    0    0  501    0 -0.00000000000E+00 -0.00000000000E+00 -0.20732592242E+03  0.20732592242E+03  0.00000000000E+00 0. -1.
         25    2    1    2    0    0 -0.11195480580E+03 -0.10221683783E+03  0.31034425091E+03  0.36731789475E+03  0.12500688481E+03 0.  0.
          2    1    1    2  501    0  0.55945591059E+02  0.45006769463E+02 -0.16682754497E+03  0.18162309384E+03  0.00000000000E+00 0. -1.
          1    1    1    2  502    0  0.56009214743E+02  0.57210068366E+02  0.34271652799E+03  0.35194409019E+03  0.00000000000E+00 0. -1.
         22    1    3    3    0    0 -0.22051168687E+02 -0.63501707853E+00 -0.62141032253E+01  0.22918821219E+02  0.00000000000E+00 0.  1.
         22    1    3    3    0    0 -0.89903637116E+02 -0.10158182075E+03  0.31655835414E+03  0.34439907353E+03  0.00000000000E+00 0.  1.
</event>
<event>
 7    1  0.2895750E-005  0.3037276E+03  0.7818608E-02  0.1232504E+00
          2   -1    0    0  502    0  0.00000000000E+00  0.00000000000E+00  0.27931497037E+04  0.27931497037E+04  0.00000000000E+00 0. -1.
          1   -1    0    0  501    0 -0.00000000000E+00 -0.00000000000E+00 -0.40832679825E+03  0.40832679825E+03  0.00000000000E+00 0. -1.
         25    2    1    2    0    0 -0.32470694010E+03  0.26345095569E+02 -0.11473419471E+03  0.36731207487E+03  0.12500225558E+03 0.  0.
          2    1    1    2  501    0  0.28345199905E+03  0.66329132748E+01 -0.46708425690E+02  0.28735119338E+03  0.00000000000E+00 0. -1.
          1    1    1    2  502    0  0.41254941050E+02 -0.32978008844E+02  0.25462655258E+04  0.25468132337E+04  0.00000000000E+00 0. -1.
         22    1    3    3    0    0 -0.24805021110E+03 -0.32755178752E+02 -0.65099459372E+02  0.25853384416E+03  0.00000000000E+00 0.  1.
         22    1    3    3    0    0 -0.76656728998E+02  0.59100274321E+02 -0.49634735334E+02  0.10877823071E+03  0.00000000000E+00 0.  1.
</event>
<event>
 7    1  0.2895750E-005  0.1431346E+03  0.7818608E-02  0.1310695E+00
          2   -1    0    0  502    0  0.00000000000E+00  0.00000000000E+00  0.24858360484E+03  0.24858360484E+03  0.00000000000E+00 0. -1.
          1   -1    0    0  501    0 -0.00000000000E+00 -0.00000000000E+00 -0.44157783859E+03  0.44157783859E+03  0.00000000000E+00 0. -1.
         25    2    1    2    0    0  0.14352551616E+02 -0.32652890618E+02  0.14261943023E+03  0.19296960710E+03  0.12499904152E+03 0.  0.
          2    1    1    2  501    0 -0.10942652941E+03 -0.92267868603E+02 -0.30546632319E+03  0.33733840504E+03  0.00000000000E+00 0. -1.
          1    1    1    2  502    0  0.95073977797E+02  0.12492075922E+03 -0.30147340794E+02  0.15985343129E+03  0.00000000000E+00 0. -1.
         22    1    3    3    0    0  0.49764980082E+02  0.22651955807E+02  0.10205822109E+03  0.11578231660E+03  0.00000000000E+00 0.  1.
         22    1    3    3    0    0 -0.35412428466E+02 -0.55304846425E+02  0.40561209141E+02  0.77187290501E+02  0.00000000000E+00 0.  1.
</event>
<event>
 7    1  0.2895750E-005  0.6276161E+02  0.7818608E-02  0.1400606E+00
          2   -1    0    0  502    0  0.00000000000E+00  0.00000000000E+00  0.77152755002E+01  0.77152755002E+01  0.00000000000E+00 0. -1.
          1   -1    0    0  501    0 -0.00000000000E+00 -0.00000000000E+00 -0.42509214859E+04  0.42509214859E+04  0.00000000000E+00 0. -1.
         25    2    1    2    0    0  0.15039421916E+02  0.44713460069E+02 -0.74749601252E+03  0.75934159002E+03  0.12499553544E+03 0.  0.
          2    1    1    2  501    0  0.61944487378E+02  0.10094575001E+02 -0.11987880345E+04  0.12004298279E+04  0.00000000000E+00 0. -1.
          1    1    1    2  502    0 -0.76983909293E+02 -0.54808035070E+02 -0.22969221633E+04  0.22988653435E+04  0.00000000000E+00 0. -1.
         22    1    3    3    0    0 -0.19599770526E+02 -0.43473319872E+00 -0.61286116916E+03  0.61317465103E+03  0.00000000000E+00 0. -1.
         22    1    3    3    0    0  0.34639192441E+02  0.45148193267E+02 -0.13463484336E+03  0.14616693899E+03  0.00000000000E+00 0. -1.
</event>
<event>
 7    1  0.2895750E-005  0.8080807E+02  0.7818608E-02  0.1390323E+00
          2   -1    0    0  502    0  0.00000000000E+00  0.00000000000E+00  0.38150567810E+03  0.38150567810E+03  0.00000000000E+00 0. -1.
          1   -1    0    0  501    0 -0.00000000000E+00 -0.00000000000E+00 -0.86024203565E+03  0.86024203565E+03  0.00000000000E+00 0. -1.
         25    2    1    2    0    0  0.44645121887E+01 -0.12172424301E+03 -0.73234744137E+03  0.75285756561E+03  0.12500006404E+03 0.  0.
          2    1    1    2  501    0 -0.20320580123E+02  0.42716461412E+02 -0.10826631928E+03  0.11814913433E+03  0.00000000000E+00 0. -1.
          1    1    1    2  502    0  0.15856067934E+02  0.79007781593E+02  0.36187740310E+03  0.37074101381E+03  0.00000000000E+00 0. -1.
         22    1    3    3    0    0  0.14385412091E+02  0.19916363911E+02 -0.21432000164E+03  0.21572358410E+03  0.00000000000E+00 0.  1.
         22    1    3    3    0    0 -0.99208999026E+01 -0.14164060692E+03 -0.51802743973E+03  0.53713398152E+03  0.00000000000E+00 0.  1.
</event>
<event>
 7    1  0.2895750E-005  0.1575106E+03  0.7818608E-02  0.1226496E+00
          2   -1    0    0  502    0  0.00000000000E+00  0.00000000000E+00  0.16922797041E+04  0.16922797041E+04  0.00000000000E+00 0. -1.
          1   -1    0    0  501    0 -0.00000000000E+00 -0.00000000000E+00 -0.11909321482E+03  0.11909321482E+03  0.00000000000E+00 0. -1.
         25    2    1    2    0    0  0.22737025676E+03  0.28326772457E+02  0.71349029662E+03  0.75973202236E+03  0.12499881090E+03 0.  0.
          2    1    1    2  501    0 -0.13124477107E+03 -0.78363162821E+02 -0.29656927208E+02  0.15570969318E+03  0.00000000000E+00 0. -1.
          1    1    1    2  502    0 -0.96125485698E+02  0.50036390365E+02  0.88935311990E+03  0.89593120340E+03  0.00000000000E+00 0. -1.
         22    1    3    3    0    0  0.83229310065E+02 -0.92956318589E+01  0.44380554116E+03  0.45163800237E+03  0.00000000000E+00 0. -1.
         22    1    3    3    0    0  0.14414094670E+03  0.37622404315E+02  0.26968475547E+03  0.30809401999E+03  0.00000000000E+00 0. -1.
</event>
<event>
 7    1  0.2895750E-005  0.2203362E+03  0.7818608E-02  0.1209331E+00
          2   -1    0    0  502    0  0.00000000000E+00  0.00000000000E+00  0.47308751191E+03  0.47308751191E+03  0.00000000000E+00 0. -1.
          1   -1    0    0  501    0 -0.00000000000E+00 -0.00000000000E+00 -0.17856686009E+04  0.17856686009E+04  0.00000000000E+00 0. -1.
         25    2    1    2    0    0  0.14060583431E+03 -0.16242648288E+03  0.19111265151E+03  0.31353160291E+03  0.12500262986E+03 0.  0.
          2    1    1    2  501    0 -0.20099882287E+03  0.91933360997E+02 -0.17072522052E+04  0.17215000325E+04  0.00000000000E+00 0. -1.
          1    1    1    2  502    0  0.60392988558E+02  0.70493121879E+02  0.20355846464E+03  0.22372447749E+03  0.00000000000E+00 0. -1.
         22    1    3    3    0    0  0.12271904304E+03 -0.46789927691E+02  0.94724776371E+02  0.16193222075E+03  0.00000000000E+00 0.  1.
         22    1    3    3    0    0  0.17886791271E+02 -0.11563655518E+03  0.96387875138E+02  0.15159938216E+03  0.00000000000E+00 0.  1.
</event>
<event>
 7    1  0.3712257E-005  0.2526971E+03  0.7818608E-02  0.1299128E+00
          2   -1    0    0  502    0  0.00000000000E+00  0.00000000000E+00  0.23105901380E+04  0.23105901380E+04  0.00000000000E+00 0. -1.
          1   -1    0    0  501    0 -0.00000000000E+00 -0.00000000000E+00 -0.15007307025E+04  0.15007307025E+04  0.00000000000E+00 0. -1.
         25    2    1    2    0    0 -0.19105307555E+03  0.15423405663E+03 -0.34611249390E+03  0.44239046292E+03  0.12500416532E+03 0.  0.
          2    1    1    2  501    0  0.16540513656E+02  0.28753633254E+02 -0.10991629776E+04  0.10996634083E+04  0.00000000000E+00 0. -1.
          1    1    1    2  502    0  0.17451256190E+03 -0.18298768988E+03  0.22551349071E+04  0.22692669694E+04  0.00000000000E+00 0. -1.
         22    1    3    3    0    0 -0.31408602283E+02  0.10139068831E+03 -0.11401193100E+03  0.15577320818E+03  0.00000000000E+00 0.  1.
         22    1    3    3    0    0 -0.15964447327E+03  0.52843368315E+02 -0.23210056289E+03  0.28661725474E+03  0.00000000000E+00 0.  1.
</event>
<event>
 7    1  0.2898461E-005  0.8602133E+02  0.7818608E-02  0.1350867E+00
          2   -1    0    0  502    0  0.00000000000E+00  0.00000000000E+00  0.10772940755E+04  0.10772940755E+04  0.00000000000E+00 0. -1.
          1   -1    0    0  501    0 -0.00000000000E+00 -0.00000000000E+00 -0.88980147823E+03  0.88980147823E+03  0.00000000000E+00 0. -1.
         25    2    1    2    0    0 -0.18412408325E+02 -0.13121654400E+03 -0.38912683772E+03  0.42965244699E+03  0.12499892466E+03 0.  0.
          2    1    1    2  501    0 -0.12951117098E+02  0.78213602350E+02 -0.47623514167E+03  0.48278878321E+03  0.00000000000E+00 0. -1.
          1    1    1    2  502    0  0.31363525423E+02  0.53002941649E+02  0.10528545766E+04  0.10546543235E+04  0.00000000000E+00 0. -1.
         22    1    3    3    0    0 -0.39004923138E+02 -0.91186864496E+02 -0.11502548555E+03  0.15187919743E+03  0.00000000000E+00 0.  1.
         22    1    3    3    0    0  0.20592514813E+02 -0.40029679503E+02 -0.27410135217E+03  0.27777324956E+03  0.00000000000E+00 0.  1.
</event>
<event>
 7    1  0.2895750E-005  0.2109799E+03  0.7818608E-02  0.1169726E+00
          2   -1    0    0  502    0  0.00000000000E+00  0.00000000000E+00  0.18788328437E+03  0.18788328437E+03  0.00000000000E+00 0. -1.
          1   -1    0    0  501    0 -0.00000000000E+00 -0.00000000000E+00 -0.24251303683E+04  0.24251303683E+04  0.00000000000E+00 0. -1.
         25    2    1    2    0    0  0.31461669334E+03  0.12962004141E+03 -0.45029719985E+03  0.57808371785E+03  0.12501279049E+03 0.  0.
          2    1    1    2  501    0 -0.16523307233E+03 -0.11377869900E+03 -0.18579678034E+04  0.18687674866E+04  0.00000000000E+00 0. -1.
          1    1    1    2  502    0 -0.14938362101E+03 -0.15841342402E+02  0.71017919272E+02  0.16616244827E+03  0.00000000000E+00 0. -1.
         22    1    3    3    0    0  0.17523489494E+03  0.11474695480E+02 -0.17701555384E+03  0.24934603133E+03  0.00000000000E+00 0. -1.
         22    1    3    3    0    0  0.13938179840E+03  0.11814534593E+03 -0.27328164602E+03  0.32873768652E+03  0.00000000000E+00 0. -1.
</event>
<event>
 7    1  0.2895750E-005  0.1510047E+03  0.7818608E-02  0.1201970E+00
          2   -1    0    0  502    0  0.00000000000E+00  0.00000000000E+00  0.18562404785E+04  0.18562404785E+04  0.00000000000E+00 0. -1.
          1   -1    0    0  501    0 -0.00000000000E+00 -0.00000000000E+00 -0.62685320527E+03  0.62685320527E+03  0.00000000000E+00 0. -1.
         25    2    1    2    0    0  0.33122853562E+02  0.24832766977E+03  0.83458773119E+03  0.88029878076E+03  0.12500202940E+03 0.  0.
          2    1    1    2  501    0  0.62127030088E+02 -0.13688238472E+03 -0.58912896847E+03  0.60800452022E+03  0.00000000000E+00 0. -1.
          1    1    1    2  502    0 -0.95249883649E+02 -0.11144528505E+03  0.98392851055E+03  0.99479038283E+03  0.00000000000E+00 0. -1.
         22    1    3    3    0    0  0.50721092338E+02  0.13922323400E+03  0.30232620173E+03  0.33668512047E+03  0.00000000000E+00 0.  1.
         22    1    3    3    0    0 -0.17598238776E+02  0.10910443577E+03  0.53226152946E+03  0.54361366030E+03  0.00000000000E+00 0.  1.
</event>
<event>
 7    1  0.2895750E-005  0.6255361E+03  0.7818608E-02  0.1161703E+00
          2   -1    0    0  502    0  0.00000000000E+00  0.00000000000E+00  0.15597203228E+04  0.15597203228E+04  0.00000000000E+00 0. -1.
          1   -1    0    0  501    0 -0.00000000000E+00 -0.00000000000E+00 -0.35363011546E+03  0.35363011546E+03  0.00000000000E+00 0. -1.
         25    2    1    2    0    0 -0.44291498998E+03 -0.48507830194E+03  0.56170923075E+03  0.87328042789E+03  0.12500719368E+03 0.  0.
          2    1    1    2  501    0  0.24711038321E+02  0.49777856760E+02 -0.79833600362E+02  0.97272165521E+02  0.00000000000E+00 0. -1.
          1    1    1    2  502    0  0.41820395166E+03  0.43530044518E+03  0.72421457691E+03  0.94279784481E+03  0.00000000000E+00 0. -1.
         22    1    3    3    0    0 -0.39486847193E+03 -0.47143077991E+03  0.54155432581E+03  0.81942002549E+03  0.00000000000E+00 0. -1.
         22    1    3    3    0    0 -0.48046518047E+02 -0.13647522039E+02  0.20154904936E+02  0.53860402405E+02  0.00000000000E+00 0. -1.
</event>
<event>
 7    1  0.2895750E-005  0.1339221E+03  0.7818608E-02  0.1331091E+00
          2   -1    0    0  502    0  0.00000000000E+00  0.00000000000E+00  0.49642420651E+03  0.49642420651E+03  0.00000000000E+00 0. -1.
          1   -1    0    0  501    0 -0.00000000000E+00 -0.00000000000E+00 -0.10635522179E+03  0.10635522179E+03  0.00000000000E+00 0. -1.
         25    2    1    2    0    0 -0.13818248275E+03  0.22068804876E+02  0.38296839146E+03  0.42646460112E+03  0.12500334579E+03 0.  0.
          2    1    1    2  501    0  0.32767251804E+02  0.33609689783E+02  0.28899106582E+02  0.55122249585E+02  0.00000000000E+00 0. -1.
          1    1    1    2  502    0  0.10541523094E+03 -0.55678494659E+02 -0.21798513324E+02  0.12119257760E+03  0.00000000000E+00 0. -1.
         22    1    3    3    0    0 -0.11355846789E+03 -0.33315256682E+02  0.18668099312E+03  0.22103218125E+03  0.00000000000E+00 0.  1.
         22    1    3    3    0    0 -0.24624014856E+02  0.55384061558E+02  0.19628739835E+03  0.20543241987E+03  0.00000000000E+00 0.  1.
</event>
<event>
 7    1  0.2895750E-005  0.8663552E+03  0.7818608E-02  0.1039437E+00
          2   -1    0    0  502    0  0.00000000000E+00  0.00000000000E+00  0.97949051357E+03  0.97949051357E+03  0.00000000000E+00 0. -1.
          1   -1    0    0  501    0 -0.00000000000E+00 -0.00000000000E+00 -0.21394495455E+04  0.21394495455E+04  0.00000000000E+00 0. -1.
         25    2    1    2    0    0 -0.66541213839E+03 -0.40993041237E+03 -0.89140727879E+03  0.11920769282E+04  0.12499683648E+03 0.  0.
          2    1    1    2  501    0  0.15047221994E+02 -0.19611081762E+03 -0.84484714064E+03  0.86744023582E+03  0.00000000000E+00 0. -1.
          1    1    1    2  502    0  0.65036491639E+03  0.60604122999E+03  0.57629538751E+03  0.10594228951E+04  0.00000000000E+00 0. -1.
         22    1    3    3    0    0 -0.78403813712E+02 -0.60804073177E+02 -0.18226597501E+03  0.20752151447E+03  0.00000000000E+00 0.  1.
         22    1    3    3    0    0 -0.58700832467E+03 -0.34912633919E+03 -0.70914130378E+03  0.98455541372E+03  0.00000000000E+00 0.  1.
</event>
<event>
 7    1  0.2895750E-005  0.3222219E+03  0.7818608E-02  0.1108589E+00
          2   -1    0    0  502    0  0.00000000000E+00  0.00000000000E+00  0.77804281529E+03  0.77804281529E+03  0.00000000000E+00 0. -1.
          1   -1    0    0  501    0 -0.00000000000E+00 -0.00000000000E+00 -0.20144776296E+04  0.20144776296E+04  0.00000000000E+00 0. -1.
         25    2    1    2    0    0 -0.36262707249E+02  0.42375254540E+03 -0.27808198072E+03  0.52329367873E+03  0.12500193011E+03 0.  0.
          2    1    1    2  501    0 -0.12064183218E+03 -0.29034675217E+03 -0.15817469748E+04  0.16126931452E+04  0.00000000000E+00 0. -1.
          1    1    1    2  502    0  0.15690453943E+03 -0.13340579323E+03  0.62339414122E+03  0.65653362098E+03  0.00000000000E+00 0. -1.
         22    1    3    3    0    0  0.24348438271E+02  0.31790471121E+03 -0.17567101398E+03  0.36402823655E+03  0.00000000000E+00 0. -1.
         22    1    3    3    0    0 -0.60611145520E+02  0.10584783419E+03 -0.10241096674E+03  0.15926544218E+03  0.00000000000E+00 0. -1.
</event>
<event>
 7    1  0.2895750E-005  0.2844950E+03  0.7818608E-02  0.1145692E+00
          2   -1    0    0  502    0  0.00000000000E+00  0.00000000000E+00  0.30280869548E+03  0.30280869548E+03  0.00000000000E+00 0. -1.
          1   -1    0    0  501    0 -0.00000000000E+00 -0.00000000000E+00 -0.72457699622E+03  0.72457699622E+03  0.00000000000E+00 0. -1.
         25    2    1    2    0    0  0.55088502434E+01  0.38005254570E+03 -0.37671154801E+03  0.54954982714E+03  0.12499254851E+03 0.  0.
          2    1    1    2  501    0 -0.35953954038E+02 -0.14308547352E+03  0.11771676713E+03  0.18874156089E+03  0.00000000000E+00 0. -1.
          1    1    1    2  502    0  0.30445103794E+02 -0.23696707218E+03 -0.16277351987E+03  0.28909430367E+03  0.00000000000E+00 0. -1.
         22    1    3    3    0    0  0.52053859819E+02  0.80504247907E+02 -0.73582598146E+02  0.12085088747E+03  0.00000000000E+00 0. -1.
         22    1    3    3    0    0 -0.46545009576E+02  0.29954829779E+03 -0.30312894987E+03  0.42869893967E+03  0.00000000000E+00 0. -1.
</event>
<event>
 7    1  0.2895750E-005  0.8065071E+02  0.7818608E-02  0.1412181E+00
          2   -1    0    0  502    0  0.00000000000E+00  0.00000000000E+00  0.92227204963E+03  0.92227204963E+03  0.00000000000E+00 0. -1.
          1   -1    0    0  501    0 -0.00000000000E+00 -0.00000000000E+00 -0.26340309427E+02  0.26340309427E+02  0.00000000000E+00 0. -1.
         25    2    1    2    0    0 -0.73721860996E+02 -0.57586073982E+02  0.27303050844E+03  0.31451892603E+03  0.12500171034E+03 0.  0.
          2    1    1    2  501    0  0.34169313789E+02  0.62655182821E+02  0.28294857340E+03  0.29181005660E+03  0.00000000000E+00 0. -1.
          1    1    1    2  502    0  0.39552547207E+02 -0.50691088395E+01  0.33995265836E+03  0.34228337643E+03  0.00000000000E+00 0. -1.
         22    1    3    3    0    0 -0.82893132088E+02  0.87638424350E+01  0.19251009992E+03  0.20978135011E+03  0.00000000000E+00 0.  1.
         22    1    3    3    0    0  0.91712710923E+01 -0.66349916417E+02  0.80520408519E+02  0.10473757592E+03  0.00000000000E+00 0.  1.
</event>
<event>
 7    1  0.2895750E-005  0.3740884E+03  0.7818608E-02  0.1084040E+00
          2   -1    0    0  502    0  0.00000000000E+00  0.00000000000E+00  0.30969908949E+04  0.30969908949E+04  0.00000000000E+00 0. -1.
          1   -1    0    0  501    0 -0.00000000000E+00 -0.00000000000E+00 -0.15241622842E+03  0.15241622842E+03  0.00000000000E+00 0. -1.
         25    2    1    2    0    0 -0.10918345584E+03  0.56633485490E+03  0.16182934096E+04  0.17225430632E+04  0.12499939977E+03 0.  0.
          2    1    1    2  501    0  0.90922144789E+02 -0.32254569013E+03  0.23691719479E+03  0.41040506311E+03  0.00000000000E+00 0. -1.
          1    1    1    2  502    0  0.18261311055E+02 -0.24378916477E+03  0.10893640621E+04  0.11164589971E+04  0.00000000000E+00 0. -1.
         22    1    3    3    0    0 -0.80122613418E+02  0.13210928173E+03  0.45414613032E+03  0.47970949874E+03  0.00000000000E+00 0. -1.
         22    1    3    3    0    0 -0.29060842426E+02  0.43422557317E+03  0.11641472793E+04  0.12428335644E+04  0.00000000000E+00 0. -1.
</event>
<event>
 7    1  0.2895750E-005  0.3923478E+03  0.7818608E-02  0.1121169E+00
          2   -1    0    0  502    0  0.00000000000E+00  0.00000000000E+00  0.24351739663E+04  0.24351739663E+04  0.00000000000E+00 0. -1.
          1   -1    0    0  501    0 -0.00000000000E+00 -0.00000000000E+00 -0.11171792667E+04  0.11171792667E+04  0.00000000000E+00 0. -1.
         25    2    1    2    0    0 -0.13050513255E+03 -0.34946403144E+03  0.88603933836E+03  0.96945735499E+03  0.12500062055E+03 0.  0.
          2    1    1    2  501    0 -0.14017450026E+03  0.34283315073E+02 -0.10417759358E+04  0.10517230323E+04  0.00000000000E+00 0. -1.
          1    1    1    2  502    0  0.27067963281E+03  0.31518071637E+03  0.14737312971E+04  0.15311728458E+04  0.00000000000E+00 0. -1.
         22    1    3    3    0    0 -0.12395948075E+03 -0.18218796845E+03  0.58297024618E+03  0.62322766036E+03  0.00000000000E+00 0. -1.
         22    1    3    3    0    0 -0.65456518062E+01 -0.16727606299E+03  0.30306909218E+03  0.34622969463E+03  0.00000000000E+00 0. -1.
</event>
<event>
 7    1  0.2895750E-005  0.3944516E+03  0.7818608E-02  0.1114570E+00
          2   -1    0    0  502    0  0.00000000000E+00  0.00000000000E+00  0.73636787098E+03  0.73636787098E+03  0.00000000000E+00 0. -1.
          1   -1    0    0  501    0 -0.00000000000E+00 -0.00000000000E+00 -0.12047757443E+04  0.12047757443E+04  0.00000000000E+00 0. -1.
         25    2    1    2    0    0  0.31931775848E+03  0.38132990791E+03 -0.53759518372E+02  0.51564701208E+03  0.12500170279E+03 0.  0.
          2    1    1    2  501    0 -0.25614951505E+02 -0.15381580159E+03 -0.84367749135E+03  0.85796686182E+03  0.00000000000E+00 0. -1.
          1    1    1    2  502    0 -0.29370280698E+03 -0.22751410632E+03  0.42902913645E+03  0.56752974135E+03  0.00000000000E+00 0. -1.
         22    1    3    3    0    0  0.17268285822E+03  0.12222349352E+03  0.74790920550E+01  0.21169291133E+03  0.00000000000E+00 0. -1.
         22    1    3    3    0    0  0.14663490026E+03  0.25910641439E+03 -0.61238610427E+02  0.30395410074E+03  0.00000000000E+00 0. -1.
</event>
<event>
 7    1  0.2895750E-005  0.2212311E+03  0.7818608E-02  0.1202033E+00
          2   -1    0    0  502    0  0.00000000000E+00  0.00000000000E+00  0.24620626522E+03  0.24620626522E+03  0.00000000000E+00 0. -1.
          1   -1    0    0  501    0 -0.00000000000E+00 -0.00000000000E+00 -0.14735816764E+04  0.14735816764E+04  0.00000000000E+00 0. -1.
         25    2    1    2    0    0 -0.22483888822E+03 -0.16398176580E+03 -0.44494264318E+02  0.30829443869E+03  0.12499270459E+03 0.  0.
          2    1    1    2  501    0  0.12585228115E+03  0.17817746387E+03 -0.12640273389E+04  0.12827124069E+04  0.00000000000E+00 0. -1.
          1    1    1    2  502    0  0.98986607069E+02 -0.14195698069E+02  0.81146192013E+02  0.12878109605E+03  0.00000000000E+00 0. -1.
         22    1    3    3    0    0 -0.13825049871E+03 -0.16742958809E+03 -0.44466642426E+02  0.22163742836E+03  0.00000000000E+00 0. -1.
         22    1    3    3    0    0 -0.86588389509E+02  0.34478222955E+01 -0.27621891722E-01  0.86657010330E+02  0.00000000000E+00 0. -1.
</event>
<event>
 7    1  0.2895750E-005  0.1763498E+03  0.7818608E-02  0.1250769E+00
          2   -1    0    0  502    0  0.00000000000E+00  0.00000000000E+00  0.28164590635E+03  0.28164590635E+03  0.00000000000E+00 0. -1.
          1   -1    0    0  501    0 -0.00000000000E+00 -0.00000000000E+00 -0.28531266763E+04  0.28531266763E+04  0.00000000000E+00 0. -1.
         25    2    1    2    0    0 -0.29690312228E+02  0.22027871106E+03 -0.18079175296E+02  0.25564738360E+03  0.12499801190E+03 0.  0.
          2    1    1    2  501    0  0.49135166319E+02 -0.57458876191E+02 -0.26743184742E+04  0.26753869044E+04  0.00000000000E+00 0. -1.
          1    1    1    2  502    0 -0.19444854091E+02 -0.16281983487E+03  0.12091687948E+03  0.20373829468E+03  0.00000000000E+00 0. -1.
         22    1    3    3    0    0 -0.63184106415E+02  0.20643098057E+03 -0.28931033838E+02  0.21781410827E+03  0.00000000000E+00 0. -1.
         22    1    3    3    0    0  0.33493794186E+02  0.13847730490E+02  0.10851858542E+02  0.37833275335E+02  0.00000000000E+00 0. -1.
</event>
<event>
 7    1  0.2895750E-005  0.1652876E+03  0.7818608E-02  0.1280353E+00
          2   -1    0    0  502    0  0.00000000000E+00  0.00000000000E+00  0.81426111695E+03  0.81426111695E+03  0.00000000000E+00 0. -1.
          1   -1    0    0  501    0 -0.00000000000E+00 -0.00000000000E+00 -0.15492341998E+04  0.15492341998E+04  0.00000000000E+00 0. -1.
         25    2    1    2    0    0 -0.12840904639E+03 -0.82201968705E+02 -0.10027969935E+03  0.22119952450E+03  0.12500865844E+03 0.  0.
          2    1    1    2  501    0 -0.34912054637E+02  0.49370843328E+02 -0.13786198584E+04  0.13799453053E+04  0.00000000000E+00 0. -1.
          1    1    1    2  502    0  0.16332110102E+03  0.32831125377E+02  0.74392647490E+03  0.76235048691E+03  0.00000000000E+00 0. -1.
         22    1    3    3    0    0 -0.56090984249E+02  0.16881169219E+02 -0.76330156021E+02  0.96215721722E+02  0.00000000000E+00 0. -1.
         22    1    3    3    0    0 -0.72318062138E+02 -0.99083137924E+02 -0.23949543329E+02  0.12498380278E+03  0.00000000000E+00 0. -1.
</event>
<event>
 7    1  0.2895750E-005  0.1654087E+03  0.7818608E-02  0.1247572E+00
          2   -1    0    0  502    0  0.00000000000E+00  0.00000000000E+00  0.23656024515E+04  0.23656024515E+04  0.00000000000E+00 0. -1.
          1   -1    0    0  501    0 -0.00000000000E+00 -0.00000000000E+00 -0.71892972295E+03  0.71892972295E+03  0.00000000000E+00 0. -1.
         25    2    1    2    0    0 -0.17402816716E+03  0.72924327541E+02  0.88097198464E+03  0.90958309493E+03  0.12500403331E+03 0.  0.
          2    1    1    2  501    0  0.66974208740E+02  0.49401106152E+02 -0.69765056352E+03  0.70259684222E+03  0.00000000000E+00 0. -1.
          1    1    1    2  502    0  0.10705395841E+03 -0.12232543369E+03  0.14633513074E+04  0.14723522373E+04  0.00000000000E+00 0. -1.
         22    1    3    3    0    0  0.74490538180E+01 -0.16968589482E+02  0.33866031041E+02  0.38604785847E+02  0.00000000000E+00 0.  1.
         22    1    3    3    0    0 -0.18147722097E+03  0.89892917023E+02  0.84710595360E+03  0.87097830908E+03  0.00000000000E+00 0.  1.
</event>
<event>
 7    1  0.2895750E-005  0.7552234E+02  0.7818608E-02  0.1360089E+00
          2   -1    0    0  502    0  0.00000000000E+00  0.00000000000E+00  0.11779720450E+04  0.11779720450E+04  0.00000000000E+00 0. -1.
          1   -1    0    0  501    0 -0.00000000000E+00 -0.00000000000E+00 -0.54781817966E+03  0.54781817966E+03  0.00000000000E+00 0. -1.
         25    2    1    2    0    0 -0.85748403917E+02  0.93723866234E+02  0.20876717289E+03  0.27449249343E+03  0.12500177839E+03 0.  0.
          2    1    1    2  501    0  0.59975781711E+02 -0.24754069618E+02 -0.51145536993E+03  0.51555451097E+03  0.00000000000E+00 0. -1.
          1    1    1    2  502    0  0.25772622206E+02 -0.68969796616E+02  0.93284206240E+03  0.93574322027E+03  0.00000000000E+00 0. -1.
         22    1    3    3    0    0 -0.86567932931E+02  0.51708810697E+02  0.20945551854E+03  0.23246380871E+03  0.00000000000E+00 0. -1.
         22    1    3    3    0    0  0.81952901346E+00  0.42015055537E+02 -0.68834565274E+00  0.42028684720E+02  0.00000000000E+00 0. -1.
</event>
<event>
 7    1  0.2895750E-005  0.1195494E+03  0.7818608E-02  0.1256901E+00
          2   -1    0    0  502    0  0.00000000000E+00  0.00000000000E+00  0.81781408906E+03  0.81781408906E+03  0.00000000000E+00 0. -1.
          1   -1    0    0  501    0 -0.00000000000E+00 -0.00000000000E+00 -0.13311747286E+03  0.13311747286E+03  0.00000000000E+00 0. -1.
         25    2    1    2    0    0  0.80567522608E+02 -0.14542027695E+03  0.38449442702E+03  0.43714933820E+03  0.12500158733E+03 0.  0.
          2    1    1    2  501    0 -0.10967170905E+03  0.44599752987E+02 -0.64124609070E+02  0.13464392753E+03  0.00000000000E+00 0. -1.
          1    1    1    2  502    0  0.29104186439E+02  0.10082052396E+03  0.36432679825E+03  0.37913829619E+03  0.00000000000E+00 0. -1.
         22    1    3    3    0    0  0.58037404186E+02 -0.27079210718E+02  0.24310304311E+03  0.25139752088E+03  0.00000000000E+00 0.  1.
         22    1    3    3    0    0  0.22530118422E+02 -0.11834106623E+03  0.14139138391E+03  0.18575181732E+03  0.00000000000E+00 0.  1.
</event>
<event>
 7    1  0.2895750E-005  0.2605494E+03  0.7818608E-02  0.1290045E+00
          2   -1    0    0  502    0  0.00000000000E+00  0.00000000000E+00  0.77723109959E+03  0.77723109959E+03  0.00000000000E+00 0. -1.
          1   -1    0    0  501    0 -0.00000000000E+00 -0.00000000000E+00 -0.55037614186E+03  0.55037614186E+03  0.00000000000E+00 0. -1.
         25    2    1    2    0    0 -0.27702418859E+03  0.55801377677E+02 -0.24859965669E+03  0.39658831542E+03  0.12499723119E+03 0.  0.
          2    1    1    2  501    0  0.29164948628E+02  0.19361845853E+02 -0.20238022157E+03  0.20538556275E+03  0.00000000000E+00 0. -1.
          1    1    1    2  502    0  0.24785923997E+03 -0.75163223530E+02  0.67783483599E+03  0.72563336327E+03  0.00000000000E+00 0. -1.
         22    1    3    3    0    0 -0.18257653300E+03 -0.21898621020E+02 -0.12268910893E+03  0.22105736236E+03  0.00000000000E+00 0. -1.
         22    1    3    3    0    0 -0.94447655599E+02  0.77699998697E+02 -0.12591054775E+03  0.17553095306E+03  0.00000000000E+00 0. -1.
</event>
<event>
 7    1  0.3349892E-005  0.1056322E+03  0.7818608E-02  0.1309758E+00
          2   -1    0    0  502    0  0.00000000000E+00  0.00000000000E+00  0.25927439743E+04  0.25927439743E+04  0.00000000000E+00 0. -1.
          1   -1    0    0  501    0 -0.00000000000E+00 -0.00000000000E+00 -0.43702423062E+03  0.43702423062E+03  0.00000000000E+00 0. -1.
         25    2    1    2    0    0 -0.60630271191E+02 -0.13414269061E+02 -0.10829866749E+01  0.13957492732E+03  0.12499606024E+03 0.  0.
          2    1    1    2  501    0  0.74725887297E+02  0.84017596299E+02 -0.35754836021E+03  0.37481161216E+03  0.00000000000E+00 0. -1.
          1    1    1    2  502    0 -0.14095616106E+02 -0.70603327238E+02  0.25143510905E+04  0.25153816654E+04  0.00000000000E+00 0. -1.
         22    1    3    3    0    0  0.29462895027E+02  0.27265611543E+02 -0.60606561867E+01  0.40598119533E+02  0.00000000000E+00 0. -1.
         22    1    3    3    0    0 -0.90093166218E+02 -0.40679880603E+02  0.49776695118E+01  0.98976807783E+02  0.00000000000E+00 0. -1.
</event>
<event>
 7    1  0.2895750E-005  0.7366234E+03  0.7818608E-02  0.1031449E+00
          2   -1    0    0  502    0  0.00000000000E+00  0.00000000000E+00  0.12821862423E+04  0.12821862423E+04  0.00000000000E+00 0. -1.
          1   -1    0    0  501    0 -0.00000000000E+00 -0.00000000000E+00 -0.13450829110E+04  0.13450829110E+04  0.00000000000E+00 0. -1.
         25    2    1    2    0    0  0.81937896460E+01 -0.50868903188E+03  0.81082079924E+03  0.96534292444E+03  0.12499969582E+03 0.  0.
          2    1    1    2  501    0  0.12887321120E+02  0.76793662691E+03 -0.10832652262E+04  0.13279142654E+04  0.00000000000E+00 0. -1.
          1    1    1    2  502    0 -0.21081110766E+02 -0.25924759504E+03  0.20954775827E+03  0.33401196350E+03  0.00000000000E+00 0. -1.
         22    1    3    3    0    0  0.24825009656E+02 -0.18705582044E+03  0.20095440212E+03  0.27566072044E+03  0.00000000000E+00 0. -1.
         22    1    3    3    0    0 -0.16631220010E+02 -0.32163321143E+03  0.60986639712E+03  0.68968220400E+03  0.00000000000E+00 0. -1.
</event>
<event>
 7    1  0.2895750E-005  0.2640736E+03  0.7818608E-02  0.1149934E+00
          2   -1    0    0  502    0  0.00000000000E+00  0.00000000000E+00  0.57895240358E+03  0.57895240358E+03  0.00000000000E+00 0. -1.
          1   -1    0    0  501    0 -0.00000000000E+00 -0.00000000000E+00 -0.18277923405E+04  0.18277923405E+04  0.00000000000E+00 0. -1.
         25    2    1    2    0    0  0.21735732339E+03 -0.95519313660E+02 -0.11924515780E+04  0.12222677592E+04  0.12501825463E+03 0.  0.
          2    1    1    2  501    0 -0.76816979983E+02 -0.13014310251E+03 -0.57885849263E+03  0.59826016918E+03  0.00000000000E+00 0. -1.
          1    1    1    2  502    0 -0.14054034341E+03  0.22566241617E+03  0.52247013380E+03  0.58621681561E+03  0.00000000000E+00 0. -1.
         22    1    3    3    0    0  0.21245925711E+03 -0.62437429515E+02 -0.85679017878E+03  0.88494450616E+03  0.00000000000E+00 0.  1.
         22    1    3    3    0    0  0.48980662835E+01 -0.33081884145E+02 -0.33566139927E+03  0.33732325308E+03  0.00000000000E+00 0.  1.
</event>
<event>
 7    1  0.2895750E-005  0.1080432E+03  0.7818608E-02  0.1343670E+00
          2   -1    0    0  502    0  0.00000000000E+00  0.00000000000E+00  0.11742816077E+04  0.11742816077E+04  0.00000000000E+00 0. -1.
          1   -1    0    0  501    0 -0.00000000000E+00 -0.00000000000E+00 -0.33432508592E+02  0.33432508592E+02  0.00000000000E+00 0. -1.
         25    2    1    2    0    0 -0.11751803523E+03 -0.29859161534E+02  0.68124738639E+03  0.70315360820E+03  0.12499974852E+03 0.  0.
          2    1    1    2  501    0  0.82562173250E+02  0.68563290614E+02  0.12004683837E+03  0.16102385126E+03  0.00000000000E+00 0. -1.
          1    1    1    2  502    0  0.34955861982E+02 -0.38704129079E+02  0.33955487434E+03  0.34353665682E+03  0.00000000000E+00 0. -1.
         22    1    3    3    0    0 -0.45464976400E+02  0.48383853268E+02  0.21994866187E+03  0.22975089814E+03  0.00000000000E+00 0. -1.
         22    1    3    3    0    0 -0.72053058831E+02 -0.78243014803E+02  0.46129872452E+03  0.47340271006E+03  0.00000000000E+00 0. -1.
</event>
<event>
 7    1  0.2895750E-005  0.1132055E+03  0.7818608E-02  0.1289939E+00
          2   -1    0    0  502    0  0.00000000000E+00  0.00000000000E+00  0.24474384185E+04  0.24474384185E+04  0.00000000000E+00 0. -1.
          1   -1    0    0  501    0 -0.00000000000E+00 -0.00000000000E+00 -0.14303036589E+02  0.14303036589E+02  0.00000000000E+00 0. -1.
         25    2    1    2    0    0  0.63128005204E+02  0.38462164683E+02  0.75256162774E+03  0.76644585552E+03  0.12500305093E+03 0.  0.
          2    1    1    2  501    0  0.12841079133E+02  0.79621782705E+02  0.51133259599E+03  0.51765388564E+03  0.00000000000E+00 0. -1.
          1    1    1    2  502    0 -0.75969084337E+02 -0.11808394739E+03  0.11692411582E+04  0.11776417139E+04  0.00000000000E+00 0. -1.
         22    1    3    3    0    0 -0.12625916206E+02  0.33517216785E+02  0.53163322551E+03  0.53283834701E+03  0.00000000000E+00 0.  1.
         22    1    3    3    0    0  0.75753921410E+02  0.49449478978E+01  0.22092840223E+03  0.23360750851E+03  0.00000000000E+00 0.  1.
</event>
<event>
 7    1  0.2895750E-005  0.7981263E+03  0.7818608E-02  0.1155993E+00
          2   -1    0    0  502    0  0.00000000000E+00  0.00000000000E+00  0.19418548637E+04  0.19418548637E+04  0.00000000000E+00 0. -1.
          1   -1    0    0  501    0 -0.00000000000E+00 -0.00000000000E+00 -0.63781567645E+03  0.63781567645E+03  0.00000000000E+00 0. -1.
         25    2    1    2    0    0 -0.50750286344E+03  0.60915015965E+03  0.19622760255E+03  0.82628946543E+03  0.12500374109E+03 0.  0.
          2    1    1    2  501    0  0.54873436359E+03 -0.58752999761E+03  0.17927099368E+03  0.82367407938E+03  0.00000000000E+00 0. -1.
          1    1    1    2  502    0 -0.41231500149E+02 -0.21620162038E+02  0.92854059103E+03  0.92970699535E+03  0.00000000000E+00 0. -1.
         22    1    3    3    0    0 -0.14661792406E+03  0.17039034374E+03  0.11469916046E+03  0.25236002517E+03  0.00000000000E+00 0. -1.
         22    1    3    3    0    0 -0.36088493938E+03  0.43875981591E+03  0.81528442088E+02  0.57392944026E+03  0.00000000000E+00 0. -1.
</event>
<event>
 7    1  0.2895750E-005  0.4141812E+02  0.7818608E-02  0.1530756E+00
          2   -1    0    0  502    0  0.00000000000E+00  0.00000000000E+00  0.53174744434E+03  0.53174744434E+03  0.00000000000E+00 0. -1.
          1   -1    0    0  501    0 -0.00000000000E+00 -0.00000000000E+00 -0.58311818205E+03  0.58311818205E+03  0.00000000000E+00 0. -1.
         25    2    1    2    0    0 -0.39736330245E+01  0.82510042159E+01 -0.62705373132E+02  0.14015061936E+03  0.12500545371E+03 0.  0.
          2    1    1    2  501    0 -0.44196398578E+00  0.33218142653E+02 -0.48023341397E+03  0.48138110913E+03  0.00000000000E+00 0. -1.
          1    1    1    2  502    0  0.44155970103E+01 -0.41469146869E+02  0.49156804939E+03  0.49333389791E+03  0.00000000000E+00 0. -1.
         22    1    3    3    0    0 -0.48666424956E+02 -0.35712981908E+02 -0.17465747794E+02  0.62840196855E+02  0.00000000000E+00 0. -1.
         22    1    3    3    0    0  0.44692791931E+02  0.43963986124E+02 -0.45239625338E+02  0.77310422501E+02  0.00000000000E+00 0. -1.
</event>
<event>
 7    1  0.2895750E-005  0.1220854E+03  0.7818608E-02  0.1319331E+00
          2   -1    0    0  502    0  0.00000000000E+00  0.00000000000E+00  0.11002933386E+03  0.11002933386E+03  0.00000000000E+00 0. -1.
          1   -1    0    0  501    0 -0.00000000000E+00 -0.00000000000E+00 -0.21902568997E+04  0.21902568997E+04  0.00000000000E+00 0. -1.
         25    2    1    2    0    0  0.13041051773E+03 -0.28732322333E+01  0.27956557432E+02  0.18281027560E+03  0.12499147636E+03 0.  0.
          2    1    1    2  501    0 -0.51537928081E+02  0.24688623480E+02 -0.17107527843E+04  0.17117069770E+04  0.00000000000E+00 0. -1.
          1    1    1    2  502    0 -0.78872589651E+02 -0.21815391246E+02 -0.39743133897E+03  0.40576898094E+03  0.00000000000E+00 0. -1.
         22    1    3    3    0    0  0.13534889194E+03 -0.81520308619E+01 -0.17557136894E+02  0.13672611752E+03  0.00000000000E+00 0.  1.
         22    1    3    3    0    0 -0.49383742089E+01  0.52787986286E+01  0.45513694326E+02  0.46084158081E+02  0.00000000000E+00 0.  1.
</event>
<event>
 7    1  0.2895750E-005  0.9276087E+02  0.7818608E-02  0.1411966E+00
          2   -1    0    0  502    0  0.00000000000E+00  0.00000000000E+00  0.62149366110E+03  0.62149366110E+03  0.00000000000E+00 0. -1.
          1   -1    0    0  501    0 -0.00000000000E+00 -0.00000000000E+00 -0.95798680761E+03  0.95798680761E+03  0.00000000000E+00 0. -1.
         25    2    1    2    0    0 -0.17391357374E+02 -0.66594445582E+02 -0.20243358307E+02  0.14412893158E+03  0.12500430341E+03 0.  0.
          2    1    1    2  501    0 -0.42449428598E+01  0.93758839215E+02 -0.87274335188E+03  0.87777542556E+03  0.00000000000E+00 0. -1.
          1    1    1    2  502    0  0.21636300234E+02 -0.27164393633E+02  0.55649356368E+03  0.55757611156E+03  0.00000000000E+00 0. -1.
         22    1    3    3    0    0 -0.43306779103E+02 -0.20291916686E+02 -0.60790927518E+02  0.77348405721E+02  0.00000000000E+00 0.  1.
         22    1    3    3    0    0  0.25915421729E+02 -0.46302528897E+02  0.40547569212E+02  0.66780525863E+02  0.00000000000E+00 0.  1.
</event>
<event>
 7    1  0.2895750E-005  0.4222577E+03  0.7818608E-02  0.1088014E+00
          2   -1    0    0  502    0  0.00000000000E+00  0.00000000000E+00  0.15336890776E+04  0.15336890776E+04  0.00000000000E+00 0. -1.
          1   -1    0    0  501    0 -0.00000000000E+00 -0.00000000000E+00 -0.26078597759E+04  0.26078597759E+04  0.00000000000E+00 0. -1.
         25    2    1    2    0    0  0.39520664716E+03 -0.27035576561E+03  0.48542103734E+03  0.69320950000E+03  0.12500117373E+03 0.  0.
          2    1    1    2  501    0 -0.18732855263E+03 -0.84296719437E+02 -0.24547348412E+04  0.24633150558E+04  0.00000000000E+00 0. -1.
          1    1    1    2  502    0 -0.20787809453E+03  0.35465248505E+03  0.89514310563E+03  0.98502429762E+03  0.00000000000E+00 0. -1.
         22    1    3    3    0    0  0.99674732441E+02 -0.13962002536E+03  0.17711867730E+03  0.24657621462E+03  0.00000000000E+00 0.  1.
         22    1    3    3    0    0  0.29553191472E+03 -0.13073574025E+03  0.30830236003E+03  0.44663328537E+03  0.00000000000E+00 0.  1.
</event>
<event>
 7    1  0.2895750E-005  0.2890948E+03  0.7818608E-02  0.1210938E+00
          2   -1    0    0  502    0  0.00000000000E+00  0.00000000000E+00  0.87638019025E+03  0.87638019025E+03  0.00000000000E+00 0. -1.
          1   -1    0    0  501    0 -0.00000000000E+00 -0.00000000000E+00 -0.14334686309E+03  0.14334686309E+03  0.00000000000E+00 0. -1.
         25    2    1    2    0    0  0.78594342641E+02  0.29397181311E+03  0.49767121534E+03  0.59657272156E+03  0.12500350365E+03 0.  0.
          2    1    1    2  501    0  0.41920638666E+02 -0.55489780812E+02  0.10475784352E+03  0.12574045292E+03  0.00000000000E+00 0. -1.
          1    1    1    2  502    0 -0.12051498131E+03 -0.23848203230E+03  0.13060426829E+03  0.29741387887E+03  0.00000000000E+00 0. -1.
         22    1    3    3    0    0  0.88063219358E+02  0.98388277202E+02  0.17668078925E+03  0.22057081626E+03  0.00000000000E+00 0.  1.
         22    1    3    3    0    0 -0.94688767171E+01  0.19558353591E+03  0.32099042609E+03  0.37600190530E+03  0.00000000000E+00 0.  1.
</event>
<event>
 7    1  0.2895750E-005  0.2676322E+03  0.7818608E-02  0.1180734E+00
          2   -1    0    0  502    0  0.00000000000E+00  0.00000000000E+00  0.31218558984E+03  0.31218558984E+03  0.00000000000E+00 0. -1.
          1   -1    0    0  501    0 -0.00000000000E+00 -0.00000000000E+00 -0.13015641640E+04  0.13015641640E+04  0.00000000000E+00 0. -1.
         25    2    1    2    0    0 -0.34034765026E+02  0.29421317189E+03 -0.21964232221E+03  0.38934171736E+03  0.12499786969E+03 0.  0.
          2    1    1    2  501    0  0.97440095994E+02 -0.37851233230E+02 -0.91639045400E+03  0.92233331955E+03  0.00000000000E+00 0. -1.
          1    1    1    2  502    0 -0.63405330967E+02 -0.25636193866E+03  0.14665420210E+03  0.30207471689E+03  0.00000000000E+00 0. -1.
         22    1    3    3    0    0 -0.49519929605E+02  0.19549756083E+03 -0.20635813941E+03  0.28853977441E+03  0.00000000000E+00 0. -1.
         22    1    3    3    0    0  0.15485164579E+02  0.98715611064E+02 -0.13284182805E+02  0.10080194295E+03  0.00000000000E+00 0. -1.
</event>
<event>
 7    1  0.2895750E-005  0.4291306E+03  0.7818608E-02  0.1078692E+00
          2   -1    0    0  502    0  0.00000000000E+00  0.00000000000E+00  0.28786134788E+04  0.28786134788E+04  0.00000000000E+00 0. -1.
          1   -1    0    0  501    0 -0.00000000000E+00 -0.00000000000E+00 -0.23570863995E+03  0.23570863995E+03  0.00000000000E+00 0. -1.
         25    2    1    2    0    0 -0.34950132953E+03 -0.24466437615E+02  0.19763850245E+04  0.20110874010E+04  0.12499993382E+03 0.  0.
          2    1    1    2  501    0  0.39737668287E+03 -0.19946418390E+03  0.52270872480E+02  0.44769010806E+03  0.00000000000E+00 0. -1.
          1    1    1    2  502    0 -0.47875353343E+02  0.22393062152E+03  0.61424894190E+03  0.65554460972E+03  0.00000000000E+00 0. -1.
         22    1    3    3    0    0 -0.82994755968E+02 -0.60501091232E+02  0.50801450771E+03  0.51829263125E+03  0.00000000000E+00 0. -1.
         22    1    3    3    0    0 -0.26650657356E+03  0.36034653617E+02  0.14683705168E+04  0.14927947698E+04  0.00000000000E+00 0. -1.
</event>
<event>
 7    1  0.2895750E-005  0.1257462E+03  0.7818608E-02  0.1290208E+00
          2   -1    0    0  502    0  0.00000000000E+00  0.00000000000E+00  0.10611849593E+04  0.10611849593E+04  0.00000000000E+00 0. -1.
          1   -1    0    0  501    0 -0.00000000000E+00 -0.00000000000E+00 -0.20496170060E+03  0.20496170060E+03  0.00000000000E+00 0. -1.
         25    2    1    2    0    0  0.34200312769E+02 -0.84689696215E+02 -0.20397387276E+02  0.15615119852E+03  0.12500054941E+03 0.  0.
          2    1    1    2  501    0 -0.59846107223E+02 -0.40789009163E+02 -0.10085493925E+03  0.12416528738E+03  0.00000000000E+00 0. -1.
          1    1    1    2  502    0  0.25645794454E+02  0.12547870538E+03  0.97747558521E+03  0.98583017399E+03  0.00000000000E+00 0. -1.
         22    1    3    3    0    0  0.12729708053E+02  0.12563289343E+02 -0.49302748422E+02  0.52446570032E+02  0.00000000000E+00 0.  1.
         22    1    3    3    0    0  0.21470604716E+02 -0.97252985558E+02  0.28905361145E+02  0.10370462849E+03  0.00000000000E+00 0.  1.
</event>
<event>
 7    1  0.2895750E-005  0.3215027E+03  0.7818608E-02  0.1142301E+00
          2   -1    0    0  502    0  0.00000000000E+00  0.00000000000E+00  0.97379512563E+03  0.97379512563E+03  0.00000000000E+00 0. -1.
          1   -1    0    0  501    0 -0.00000000000E+00 -0.00000000000E+00 -0.59476208501E+03  0.59476208501E+03  0.00000000000E+00 0. -1.
         25    2    1    2    0    0  0.29597365554E+03  0.14027680097E+03 -0.10700891994E+03  0.36654753010E+03  0.12501278819E+03 0.  0.
          2    1    1    2  501    0  0.28013327411E+02 -0.13304527584E+03 -0.31218503075E+03  0.34050739399E+03  0.00000000000E+00 0. -1.
          1    1    1    2  502    0 -0.32398698295E+03 -0.72315251281E+01  0.79822699131E+03  0.86150228655E+03  0.00000000000E+00 0. -1.
         22    1    3    3    0    0  0.12089217041E+03  0.20580361720E+02 -0.93169437816E+02  0.15400977987E+03  0.00000000000E+00 0. -1.
         22    1    3    3    0    0  0.17508148513E+03  0.11969643925E+03 -0.13839482127E+02  0.21253775022E+03  0.00000000000E+00 0. -1.
</event>
<event>
 7    1  0.2895750E-005  0.1139134E+03  0.7818608E-02  0.1255463E+00
          2   -1    0    0  502    0  0.00000000000E+00  0.00000000000E+00  0.88620966029E+03  0.88620966029E+03  0.00000000000E+00 0. -1.
          1   -1    0    0  501    0 -0.00000000000E+00 -0.00000000000E+00 -0.56077758668E+03  0.56077758668E+03  0.00000000000E+00 0. -1.
         25    2    1    2    0    0 -0.95656991525E+02  0.11374263019E+02  0.34671574171E+03  0.38094147694E+03  0.12499987768E+03 0.  0.
          2    1    1    2  501    0  0.25091057256E+02  0.10885226387E+03 -0.52841980981E+03  0.54009802065E+03  0.00000000000E+00 0. -1.
          1    1    1    2  502    0  0.70565934269E+02 -0.12022652689E+03  0.50713614171E+03  0.52594774938E+03  0.00000000000E+00 0. -1.
         22    1    3    3    0    0 -0.62383745688E+02  0.67855973166E+02  0.19647763850E+03  0.21702448538E+03  0.00000000000E+00 0.  1.
         22    1    3    3    0    0 -0.33273245837E+02 -0.56481710147E+02  0.15023810320E+03  0.16391699156E+03  0.00000000000E+00 0.  1.
</event>
<event>
 7    1  0.2895750E-005  0.6720428E+02  0.7818608E-02  0.1400509E+00
          2   -1    0    0  502    0  0.00000000000E+00  0.00000000000E+00  0.11214185030E+04  0.11214185030E+04  0.00000000000E+00 0. -1.
          1   -1    0    0  501    0 -0.00000000000E+00 -0.00000000000E+00 -0.23645554467E+03  0.23645554467E+03  0.00000000000E+00 0. -1.
         25    2    1    2    0    0  0.30400466216E+02 -0.91756199158E+02  0.25683231636E+03  0.30155057269E+03  0.12500608279E+03 0.  0.
          2    1    1    2  501    0 -0.50861220311E+02  0.43469162685E+02 -0.20802767190E+03  0.21852218219E+03  0.00000000000E+00 0. -1.
          1    1    1    2  502    0  0.20460754095E+02  0.48287036473E+02  0.83615831388E+03  0.83780129280E+03  0.00000000000E+00 0. -1.
         22    1    3    3    0    0 -0.12025127599E+02 -0.10981303731E+03  0.16168997074E+03  0.19582429241E+03  0.00000000000E+00 0. -1.
         22    1    3    3    0    0  0.42425593815E+02  0.18056838149E+02  0.95142345614E+02  0.10572628029E+03  0.00000000000E+00 0. -1.
</event>
<event>
 7    1  0.2895750E-005  0.9245285E+02  0.7818608E-02  0.1469426E+00
          2   -1    0    0  502    0  0.00000000000E+00  0.00000000000E+00  0.92659912843E+02  0.92659912843E+02  0.00000000000E+00 0. -1.
          1   -1    0    0  501    0 -0.00000000000E+00 -0.00000000000E+00 -0.20566898877E+04  0.20566898877E+04  0.00000000000E+00 0. -1.
         25    2    1    2    0    0 -0.41614170638E+02  0.10382081864E+03 -0.80881939298E+03  0.82602899910E+03  0.12499838120E+03 0.  0.
          2    1    1    2  501    0  0.16657865293E+02 -0.15400248425E+02 -0.12140224329E+04  0.12142343760E+04  0.00000000000E+00 0. -1.
          1    1    1    2  502    0  0.24956305345E+02 -0.88420570217E+02  0.58811851010E+02  0.10908642552E+03  0.00000000000E+00 0. -1.
         22    1    3    3    0    0 -0.81544178618E+02  0.92494516255E+02 -0.53118223598E+03  0.54530657104E+03  0.00000000000E+00 0.  1.
         22    1    3    3    0    0  0.39930007980E+02  0.11326302387E+02 -0.27763715700E+03  0.28072242805E+03  0.00000000000E+00 0.  1.
</event>
<event>
 7    1  0.2895750E-005  0.6887057E+03  0.7818608E-02  0.1178944E+00
          2   -1    0    0  502    0  0.00000000000E+00  0.00000000000E+00  0.15853545511E+04  0.15853545511E+04  0.00000000000E+00 0. -1.
          1   -1    0    0  501    0 -0.00000000000E+00 -0.00000000000E+00 -0.22223974944E+04  0.22223974944E+04  0.00000000000E+00 0. -1.
         25    2    1    2    0    0 -0.58393491663E+03 -0.41124492152E+03 -0.67291622571E+03  0.98921383788E+03  0.12500159157E+03 0.  0.
          2    1    1    2  501    0  0.54384702537E+03  0.40071632770E+03 -0.13089968720E+04  0.14730295222E+04  0.00000000000E+00 0. -1.
          1    1    1    2  502    0  0.40087891260E+02  0.10528593824E+02  0.13448701544E+04  0.13455086855E+04  0.00000000000E+00 0. -1.
         22    1    3    3    0    0 -0.43742767617E+03 -0.33568629980E+03 -0.44849864251E+03  0.71075966126E+03  0.00000000000E+00 0.  1.
         22    1    3    3    0    0 -0.14650724046E+03 -0.75558621723E+02 -0.22441758320E+03  0.27845417662E+03  0.00000000000E+00 0.  1.
</event>
<event>
 7    1  0.2895750E-005  0.4759800E+03  0.7818608E-02  0.1122974E+00
          2   -1    0    0  502    0  0.00000000000E+00  0.00000000000E+00  0.63544720674E+03  0.63544720674E+03  0.00000000000E+00 0. -1.
          1   -1    0    0  501    0 -0.00000000000E+00 -0.00000000000E+00 -0.12618814629E+04  0.12618814629E+04  0.00000000000E+00 0. -1.
         25    2    1    2    0    0  0.44604391497E+03 -0.24090848851E+03 -0.37783979793E+03  0.64450013503E+03  0.12500174893E+03 0.  0.
          2    1    1    2  501    0 -0.44641305937E+03  0.12460313117E+03 -0.67055036973E+03  0.81513701807E+03  0.00000000000E+00 0. -1.
          1    1    1    2  502    0  0.36914440243E+00  0.11630535734E+03  0.42195591150E+03  0.43769151655E+03  0.00000000000E+00 0. -1.
         22    1    3    3    0    0  0.32879212234E+03 -0.22523548795E+03 -0.25068039786E+03  0.47082475149E+03  0.00000000000E+00 0. -1.
         22    1    3    3    0    0  0.11725179263E+03 -0.15673000561E+02 -0.12715940007E+03  0.17367538354E+03  0.00000000000E+00 0. -1.
</event>
<event>
 7    1  0.2895750E-005  0.1196187E+03  0.7818608E-02  0.1415261E+00
          2   -1    0    0  502    0  0.00000000000E+00  0.00000000000E+00  0.26930425635E+03  0.26930425635E+03  0.00000000000E+00 0. -1.
          1   -1    0    0  501    0 -0.00000000000E+00 -0.00000000000E+00 -0.22585495282E+03  0.22585495282E+03  0.00000000000E+00 0. -1.
         25    2    1    2    0    0 -0.70521121772E+02  0.87401663662E+02  0.17289261276E+03  0.24110111250E+03  0.12500244588E+03 0.  0.
          2    1    1    2  501    0 -0.57080134396E+01  0.25622486790E+02 -0.11385466401E+03  0.11684167820E+03  0.00000000000E+00 0. -1.
          1    1    1    2  502    0  0.76229135211E+02 -0.11302415045E+03 -0.15588645212E+02  0.13721641848E+03  0.00000000000E+00 0. -1.
         22    1    3    3    0    0  0.18069110910E+02  0.76670472429E+02  0.83433542699E+02  0.11474323579E+03  0.00000000000E+00 0. -1.
         22    1    3    3    0    0 -0.88590232681E+02  0.10731191233E+02  0.89459070058E+02  0.12635787671E+03  0.00000000000E+00 0. -1.
</event>
<event>
 7    1  0.2895750E-005  0.2312891E+03  0.7818608E-02  0.1209001E+00
          2   -1    0    0  502    0  0.00000000000E+00  0.00000000000E+00  0.66860909587E+03  0.66860909587E+03  0.00000000000E+00 0. -1.
          1   -1    0    0  501    0 -0.00000000000E+00 -0.00000000000E+00 -0.25858810464E+03  0.25858810464E+03  0.00000000000E+00 0. -1.
         25    2    1    2    0    0  0.20696502276E+03 -0.22241449277E+03 -0.86493732412E+02  0.33971921770E+03  0.12500101555E+03 0.  0.
          2    1    1    2  501    0 -0.78170330144E+02  0.42007093675E+02  0.10416292918E+03  0.13683973198E+03  0.00000000000E+00 0. -1.
          1    1    1    2  502    0 -0.12879469261E+03  0.18040739909E+03  0.39235179447E+03  0.45063825083E+03  0.00000000000E+00 0. -1.
         22    1    3    3    0    0  0.91973141637E+02 -0.18538425521E+03 -0.43332928973E+02  0.21143349686E+03  0.00000000000E+00 0.  1.
         22    1    3    3    0    0  0.11499188112E+03 -0.37030237561E+02 -0.43160803439E+02  0.12828572084E+03  0.00000000000E+00 0.  1.
</event>
<event>
 7    1  0.2895750E-005  0.8498606E+03  0.7818608E-02  0.1174583E+00
          2   -1    0    0  502    0  0.00000000000E+00  0.00000000000E+00  0.10333235857E+04  0.10333235857E+04  0.00000000000E+00 0. -1.
          1   -1    0    0  501    0 -0.00000000000E+00 -0.00000000000E+00 -0.10184468224E+04  0.10184468224E+04  0.00000000000E+00 0. -1.
         25    2    1    2    0    0 -0.51646982814E+03  0.68007505292E+03 -0.51422097945E+03  0.10046352078E+04  0.12500209645E+03 0.  0.
          2    1    1    2  501    0  0.48152437601E+03 -0.68495975582E+03  0.55398200188E+03  0.10039579922E+04  0.00000000000E+00 0. -1.
          1    1    1    2  502    0  0.34945452132E+02  0.48847028923E+01 -0.24884259132E+02  0.43177208103E+02  0.00000000000E+00 0. -1.
         22    1    3    3    0    0 -0.17156107221E+03  0.31749463468E+03 -0.18408104717E+03  0.40511958293E+03  0.00000000000E+00 0.  1.
         22    1    3    3    0    0 -0.34490875593E+03  0.36258041825E+03 -0.33013993228E+03  0.59951562490E+03  0.00000000000E+00 0.  1.
</event>
<event>
 7    1  0.2895750E-005  0.7248983E+02  0.7818608E-02  0.1380065E+00
          2   -1    0    0  502    0  0.00000000000E+00  0.00000000000E+00  0.33633631554E+04  0.33633631554E+04  0.00000000000E+00 0. -1.
          1   -1    0    0  501    0 -0.00000000000E+00 -0.00000000000E+00 -0.11039291576E+04  0.11039291576E+04  0.00000000000E+00 0. -1.
         25    2    1    2    0    0 -0.10778182460E+03 -0.13413428017E+02  0.49428762816E+02  0.17281560462E+03  0.12500075536E+03 0.  0.
          2    1    1    2  501    0  0.58413074669E+02  0.42491865657E+02 -0.10407314337E+04  0.10432351427E+04  0.00000000000E+00 0. -1.
          1    1    1    2  502    0  0.49368749932E+02 -0.29078437639E+02  0.32507366687E+04  0.32512415656E+04  0.00000000000E+00 0. -1.
         22    1    3    3    0    0  0.25220150802E+02  0.10728938062E+02 -0.35352147456E+01  0.27634468725E+02  0.00000000000E+00 0.  1.
         22    1    3    3    0    0 -0.13300197540E+03 -0.24142366079E+02  0.52963977561E+02  0.14518113590E+03  0.00000000000E+00 0.  1.
</event>
<event>
 7    1  0.2895750E-005  0.9762945E+02  0.7818608E-02  0.1311557E+00
          2   -1    0    0  502    0  0.00000000000E+00  0.00000000000E+00  0.12570395793E+03  0.12570395793E+03  0.00000000000E+00 0. -1.
          1   -1    0    0  501    0 -0.00000000000E+00 -0.00000000000E+00 -0.67797887759E+03  0.67797887759E+03  0.00000000000E+00 0. -1.
         25    2    1    2    0    0  0.62450573907E+02  0.14835397364E+03 -0.32745321422E+03  0.38569448712E+03  0.12500261685E+03 0.  0.
          2    1    1    2  501    0 -0.26720785088E+02 -0.80553735267E+02 -0.29931282790E+03  0.31111263807E+03  0.00000000000E+00 0. -1.
          1    1    1    2  502    0 -0.35729788819E+02 -0.67800238373E+02  0.74491122453E+02  0.10687571032E+03  0.00000000000E+00 0. -1.
         22    1    3    3    0    0  0.28790589655E+02  0.15246964174E+03 -0.19624994029E+03  0.25017979289E+03  0.00000000000E+00 0. -1.
         22    1    3    3    0    0  0.33659984252E+02 -0.41156681043E+01 -0.13120327393E+03  0.13551469423E+03  0.00000000000E+00 0. -1.
</event>
<event>
 7    1  0.2895750E-005  0.1035179E+03  0.7818608E-02  0.1284033E+00
          2   -1    0    0  502    0  0.00000000000E+00  0.00000000000E+00  0.14902878896E+04  0.14902878896E+04  0.00000000000E+00 0. -1.
          1   -1    0    0  501    0 -0.00000000000E+00 -0.00000000000E+00 -0.24503750758E+03  0.24503750758E+03  0.00000000000E+00 0. -1.
         25    2    1    2    0    0 -0.12926650446E+02  0.10441907952E+02  0.51177971878E+03  0.52708578285E+03  0.12499924075E+03 0.  0.
          2    1    1    2  501    0  0.22255172961E+02 -0.10321272670E+03 -0.22326441763E+03  0.24697198193E+03  0.00000000000E+00 0. -1.
          1    1    1    2  502    0 -0.93285225150E+01  0.92770818749E+02  0.95673508085E+03  0.96126763238E+03  0.00000000000E+00 0. -1.
         22    1    3    3    0    0 -0.67467947626E+02  0.25559246027E+01  0.34151294704E+03  0.34812289454E+03  0.00000000000E+00 0. -1.
         22    1    3    3    0    0  0.54541297179E+02  0.78859833493E+01  0.17026677175E+03  0.17896288831E+03  0.00000000000E+00 0. -1.
</event>
<event>
 7    1  0.2895750E-005  0.5881668E+02  0.7818608E-02  0.1434328E+00
          2   -1    0    0  502    0  0.00000000000E+00  0.00000000000E+00  0.30685245677E+03  0.30685245677E+03  0.00000000000E+00 0. -1.
          1   -1    0    0  501    0 -0.00000000000E+00 -0.00000000000E+00 -0.96186012325E+03  0.96186012325E+03  0.00000000000E+00 0. -1.
         25    2    1    2    0    0 -0.38481594925E+02  0.40116192521E+02  0.21513940632E+03  0.25494597051E+03  0.12498936625E+03 0.  0.
          2    1    1    2  501    0  0.36164571418E+02  0.28672877612E+02 -0.92475558225E+03  0.92590652716E+03  0.00000000000E+00 0. -1.
          1    1    1    2  502    0  0.23170235071E+01 -0.68789070133E+02  0.54608509447E+02  0.87860082356E+02  0.00000000000E+00 0. -1.
         22    1    3    3    0    0 -0.67261247166E+02  0.58357557399E+02  0.19734487859E+03  0.21650561420E+03  0.00000000000E+00 0.  1.
         22    1    3    3    0    0  0.28779652241E+02 -0.18241364878E+02  0.17794527735E+02  0.38440356307E+02  0.00000000000E+00 0.  1.
</event>
<event>
 7    1  0.2895750E-005  0.8203806E+02  0.7818608E-02  0.1479911E+00
          2   -1    0    0  502    0  0.00000000000E+00  0.00000000000E+00  0.19262431040E+02  0.19262431040E+02  0.00000000000E+00 0. -1.
          1   -1    0    0  501    0 -0.00000000000E+00 -0.00000000000E+00 -0.12056310946E+04  0.12056310946E+04  0.00000000000E+00 0. -1.
         25    2    1    2    0    0 -0.43823815603E+02 -0.50628869705E+02 -0.62206701407E+03  0.63802671424E+03  0.12500763504E+03 0.  0.
          2    1    1    2  501    0  0.49885079137E+02  0.73569382965E+02 -0.55385296703E+03  0.56094035718E+03  0.00000000000E+00 0. -1.
          1    1    1    2  502    0 -0.60612635344E+01 -0.22940513260E+02 -0.10448682487E+02  0.25926454250E+02  0.00000000000E+00 0. -1.
         22    1    3    3    0    0 -0.26589559632E+02  0.23501672989E+02 -0.42952686958E+03  0.43099033052E+03  0.00000000000E+00 0.  1.
         22    1    3    3    0    0 -0.17234255971E+02 -0.74130542693E+02 -0.19254014450E+03  0.20703638371E+03  0.00000000000E+00 0.  1.
</event>
<event>
 7    1  0.2895750E-005  0.1571232E+03  0.7818608E-02  0.1359035E+00
          2   -1    0    0  502    0  0.00000000000E+00  0.00000000000E+00  0.88897787475E+03  0.88897787475E+03  0.00000000000E+00 0. -1.
          1   -1    0    0  501    0 -0.00000000000E+00 -0.00000000000E+00 -0.33990241433E+03  0.33990241433E+03  0.00000000000E+00 0. -1.
         25    2    1    2    0    0  0.11611888511E+03 -0.11460863666E+03  0.54442675806E+02  0.21262144201E+03  0.12500055032E+03 0.  0.
          2    1    1    2  501    0 -0.27723220830E+02 -0.14880668039E+02 -0.25168822018E+03  0.25364733673E+03  0.00000000000E+00 0. -1.
          1    1    1    2  502    0 -0.88395664277E+02  0.12948930470E+03  0.74632100480E+03  0.76261151033E+03  0.00000000000E+00 0. -1.
         22    1    3    3    0    0 -0.19564005202E+02  0.92645837577E+01  0.83724031426E+01  0.23209479661E+02  0.00000000000E+00 0. -1.
         22    1    3    3    0    0  0.13568289031E+03 -0.12387322042E+03  0.46070272663E+02  0.18941196235E+03  0.00000000000E+00 0. -1.
</event>
<event>
 7    1  0.2895750E-005  0.8087891E+02  0.7818608E-02  0.1401678E+00
          2   -1    0    0  502    0  0.00000000000E+00  0.00000000000E+00  0.48587925956E+03  0.48587925956E+03  0.00000000000E+00 0. -1.
          1   -1    0    0  501    0 -0.00000000000E+00 -0.00000000000E+00 -0.38457929360E+03  0.38457929360E+03  0.00000000000E+00 0. -1.
         25    2    1    2    0    0 -0.16078628264E+02  0.29827130931E+02 -0.33121341722E+03  0.35563371722E+03  0.12499933220E+03 0.  0.
          2    1    1    2  501    0  0.17931299424E+02 -0.11068481881E+03  0.48123977679E+02  0.12201876020E+03  0.00000000000E+00 0. -1.
          1    1    1    2  502    0 -0.18526711600E+01  0.80857687878E+02  0.38438940550E+03  0.39280607574E+03  0.00000000000E+00 0. -1.
         22    1    3    3    0    0  0.57357184019E+01 -0.21048263134E+02 -0.21213930386E+01  0.21918671378E+02  0.00000000000E+00 0. -1.
         22    1    3    3    0    0 -0.21814346666E+02  0.50875394065E+02 -0.32909202418E+03  0.33371504584E+03  0.00000000000E+00 0. -1.
</event>
<event>
 7    1  0.2895750E-005  0.3261220E+03  0.7818608E-02  0.1235474E+00
          2   -1    0    0  502    0  0.00000000000E+00  0.00000000000E+00  0.57926329825E+03  0.57926329825E+03  0.00000000000E+00 0. -1.
          1   -1    0    0  501    0 -0.00000000000E+00 -0.00000000000E+00 -0.19098266450E+04  0.19098266450E+04  0.00000000000E+00 0. -1.
         25    2    1    2    0    0  0.36914761055E+03  0.31335227654E+01  0.35457661425E+03  0.52690524711E+03  0.12499914685E+03 0.  0.
          2    1    1    2  501    0 -0.32416298040E+03 -0.19038723586E+02 -0.18045821107E+04  0.18335650262E+04  0.00000000000E+00 0. -1.
          1    1    1    2  502    0 -0.44984630149E+02  0.15905200821E+02  0.11944214975E+03  0.12861966995E+03  0.00000000000E+00 0. -1.
         22    1    3    3    0    0  0.10115819474E+03  0.55835219327E+02  0.12375496757E+03  0.16930990543E+03  0.00000000000E+00 0.  1.
         22    1    3    3    0    0  0.26798941582E+03 -0.52701696562E+02  0.23082164669E+03  0.35759534168E+03  0.00000000000E+00 0.  1.
</event>
<event>
 7    1  0.2895750E-005  0.1548611E+03  0.7818608E-02  0.1337012E+00
          2   -1    0    0  502    0  0.00000000000E+00  0.00000000000E+00  0.13001649045E+04  0.13001649045E+04  0.00000000000E+00 0. -1.
          1   -1    0    0  501    0 -0.00000000000E+00 -0.00000000000E+00 -0.12585874892E+04  0.12585874892E+04  0.00000000000E+00 0. -1.
         25    2    1    2    0    0 -0.10254171099E+03  0.86210370737E+02  0.62032316828E+03  0.64681745877E+03  0.12499984541E+03 0.  0.
          2    1    1    2  501    0 -0.28155769675E+02  0.26324256009E+02 -0.12338784446E+04  0.12344803481E+04  0.00000000000E+00 0. -1.
          1    1    1    2  502    0  0.13069748066E+03 -0.11253462675E+03  0.65513269155E+03  0.67745458683E+03  0.00000000000E+00 0. -1.
         22    1    3    3    0    0  0.18533571678E+02  0.34665842770E+02  0.26520774417E+03  0.26810513143E+03  0.00000000000E+00 0. -1.
         22    1    3    3    0    0 -0.12107528267E+03  0.51544527966E+02  0.35511542412E+03  0.37871232734E+03  0.00000000000E+00 0. -1.
</event>
<event>
 7    1  0.2895750E-005  0.2290010E+03  0.7818608E-02  0.1183227E+00
          2   -1    0    0  502    0  0.00000000000E+00  0.00000000000E+00  0.20914974310E+04  0.20914974310E+04  0.00000000000E+00 0. -1.
          1   -1    0    0  501    0 -0.00000000000E+00 -0.00000000000E+00 -0.72041418508E+02  0.72041418508E+02  0.00000000000E+00 0. -1.
         25    2    1    2    0    0 -0.14488635188E+03  0.83961530159E+02  0.90386845357E+03  0.92770984433E+03  0.12500312158E+03 0.  0.
          2    1    1    2  501    0  0.24990758437E+03 -0.28420251552E+02  0.22536556836E+03  0.33771459967E+03  0.00000000000E+00 0. -1.
          1    1    1    2  502    0 -0.10502123249E+03 -0.55541278608E+02  0.89022199051E+03  0.89811440546E+03  0.00000000000E+00 0. -1.
         22    1    3    3    0    0 -0.16669002238E+03  0.68260278143E+02  0.73701584168E+03  0.75870770394E+03  0.00000000000E+00 0. -1.
         22    1    3    3    0    0  0.21803670501E+02  0.15701252016E+02  0.16685261189E+03  0.16900214039E+03  0.00000000000E+00 0. -1.
</event>
<event>
 7    1  0.2895750E-005  0.1938869E+03  0.7818608E-02  0.1253739E+00
          2   -1    0    0  502    0  0.00000000000E+00  0.00000000000E+00  0.40967555989E+04  0.40967555989E+04  0.00000000000E+00 0. -1.
          1   -1    0    0  501    0 -0.00000000000E+00 -0.00000000000E+00 -0.18686820132E+02  0.18686820132E+02  0.00000000000E+00 0. -1.
         25    2    1    2    0    0  0.75392943957E+02  0.18665050903E+03  0.23645618571E+04  0.23764046925E+04  0.12499591129E+03 0.  0.
          2    1    1    2  501    0  0.51519461318E+02 -0.42460446906E+02  0.15538681927E+03  0.16912187336E+03  0.00000000000E+00 0. -1.
          1    1    1    2  502    0 -0.12691240527E+03 -0.14419006213E+03  0.15581201024E+04  0.15699158532E+04  0.00000000000E+00 0. -1.
         22    1    3    3    0    0  0.48413612402E+02  0.19853584511E+03  0.19136928518E+04  0.19245728593E+04  0.00000000000E+00 0.  1.
         22    1    3    3    0    0  0.26979331555E+02 -0.11885336073E+02  0.45086900532E+03  0.45183183321E+03  0.00000000000E+00 0.  1.
</event>
<event>
 7    1  0.2895750E-005  0.7573994E+03  0.7818608E-02  0.1029770E+00
          2   -1    0    0  502    0  0.00000000000E+00  0.00000000000E+00  0.21380434706E+04  0.21380434706E+04  0.00000000000E+00 0. -1.
          1   -1    0    0  501    0 -0.00000000000E+00 -0.00000000000E+00 -0.10495798078E+04  0.10495798078E+04  0.00000000000E+00 0. -1.
         25    2    1    2    0    0 -0.30343504531E+03  0.79812975725E+03  0.51154700654E+03  0.10031869173E+04  0.12497885808E+03 0.  0.
          2    1    1    2  501    0 -0.13883950599E+03 -0.21904560611E+03 -0.68211501770E+03  0.72975220682E+03  0.00000000000E+00 0. -1.
          1    1    1    2  502    0  0.44227455130E+03 -0.57908415115E+03  0.12590316740E+04  0.14546841544E+04  0.00000000000E+00 0. -1.
         22    1    3    3    0    0 -0.27427506697E+03  0.77494331142E+03  0.46820372028E+03  0.94603312413E+03  0.00000000000E+00 0. -1.
         22    1    3    3    0    0 -0.29159978344E+02  0.23186445834E+02  0.43343286255E+02  0.57153793145E+02  0.00000000000E+00 0. -1.
</event>
<event>
 7    1  0.4833468E-005  0.1390671E+03  0.7818608E-02  0.1296274E+00
          2   -1    0    0  502    0  0.00000000000E+00  0.00000000000E+00  0.14893252654E+04  0.14893252654E+04  0.00000000000E+00 0. -1.
          1   -1    0    0  501    0 -0.00000000000E+00 -0.00000000000E+00 -0.80498837618E+03  0.80498837618E+03  0.00000000000E+00 0. -1.
         25    2    1    2    0    0  0.11483160516E+03  0.73251183509E+02 -0.73243991161E+02  0.19884905113E+03  0.12499691782E+03 0.  0.
          2    1    1    2  501    0  0.23712252010E+02 -0.57165996863E+02 -0.66409043753E+03  0.66696801371E+03  0.00000000000E+00 0. -1.
          1    1    1    2  502    0 -0.13854385717E+03 -0.16085186646E+02  0.14216713179E+04  0.14284965767E+04  0.00000000000E+00 0. -1.
         22    1    3    3    0    0  0.50022749647E+02  0.92969322331E+02 -0.97826849243E+01  0.10602486171E+03  0.00000000000E+00 0. -1.
         22    1    3    3    0    0  0.64808855514E+02 -0.19718138822E+02 -0.63461306236E+02  0.92824189416E+02  0.00000000000E+00 0. -1.
</event>
<event>
 7    1  0.2895750E-005  0.1034246E+03  0.7818608E-02  0.1431603E+00
          2   -1    0    0  502    0  0.00000000000E+00  0.00000000000E+00  0.15042127962E+03  0.15042127962E+03  0.00000000000E+00 0. -1.
          1   -1    0    0  501    0 -0.00000000000E+00 -0.00000000000E+00 -0.45214554793E+03  0.45214554793E+03  0.00000000000E+00 0. -1.
         25    2    1    2    0    0 -0.10733191739E+03 -0.48218887858E+02 -0.29997755407E+03  0.34562820662E+03  0.12500849021E+03 0.  0.
          2    1    1    2  501    0  0.80591109803E+02  0.46567350706E+02 -0.11076292596E+03  0.14467850877E+03  0.00000000000E+00 0. -1.
          1    1    1    2  502    0  0.26740807587E+02  0.16515371520E+01  0.10901621172E+03  0.11226011217E+03  0.00000000000E+00 0. -1.
         22    1    3    3    0    0  0.13804640716E+02 -0.42391520969E+02 -0.12515490767E+03  0.13285842114E+03  0.00000000000E+00 0. -1.
         22    1    3    3    0    0 -0.12113655811E+03 -0.58273668883E+01 -0.17482264641E+03  0.21276978548E+03  0.00000000000E+00 0. -1.
</event>
<event>
 7    1  0.2895750E-005  0.2791920E+03  0.7818608E-02  0.1206593E+00
          2   -1    0    0  502    0  0.00000000000E+00  0.00000000000E+00  0.20947367681E+04  0.20947367681E+04  0.00000000000E+00 0. -1.
          1   -1    0    0  501    0 -0.00000000000E+00 -0.00000000000E+00 -0.44165983633E+03  0.44165983633E+03  0.00000000000E+00 0. -1.
         25    2    1    2    0    0 -0.30583785282E+03 -0.15474876598E+03  0.17877567006E+03  0.40628205808E+03  0.12498158955E+03 0.  0.
          2    1    1    2  501    0  0.23831760624E+03  0.12110498005E+03 -0.27247366774E+03  0.38171140571E+03  0.00000000000E+00 0. -1.
          1    1    1    2  502    0  0.67520246578E+02  0.33643785927E+02  0.17467749294E+04  0.17484031406E+04  0.00000000000E+00 0. -1.
         22    1    3    3    0    0 -0.83780324732E+02 -0.10812382228E+03  0.51754736781E+02  0.14624792831E+03  0.00000000000E+00 0. -1.
         22    1    3    3    0    0 -0.22205752809E+03 -0.46624943697E+02  0.12702093328E+03  0.26003412977E+03  0.00000000000E+00 0. -1.
</event>
<event>
 7    1  0.2895750E-005  0.4721750E+02  0.7818608E-02  0.1570623E+00
          2   -1    0    0  502    0  0.00000000000E+00  0.00000000000E+00  0.20306297385E+04  0.20306297385E+04  0.00000000000E+00 0. -1.
          1   -1    0    0  501    0 -0.00000000000E+00 -0.00000000000E+00 -0.29922668711E+02  0.29922668711E+02  0.00000000000E+00 0. -1.
         25    2    1    2    0    0  0.25300223214E+02  0.59003900172E+01  0.30377984948E+03  0.32950923422E+03  0.12497688823E+03 0.  0.
          2    1    1    2  501    0  0.18810735225E+02  0.12457976820E+02 -0.91138096360E+01  0.24333238014E+02  0.00000000000E+00 0. -1.
          1    1    1    2  502    0 -0.44110958439E+02 -0.18358366837E+02  0.17060410299E+04  0.17067099349E+04  0.00000000000E+00 0. -1.
         22    1    3    3    0    0 -0.40594755258E+02 -0.30807450862E+02  0.14570608845E+03  0.15436093222E+03  0.00000000000E+00 0. -1.
         22    1    3    3    0    0  0.65894978471E+02  0.36707840879E+02  0.15807376103E+03  0.17514830200E+03  0.00000000000E+00 0. -1.
</event>
<event>
 7    1  0.2895750E-005  0.7184233E+02  0.7818608E-02  0.1388382E+00
          2   -1    0    0  502    0  0.00000000000E+00  0.00000000000E+00  0.81696586004E+03  0.81696586004E+03  0.00000000000E+00 0. -1.
          1   -1    0    0  501    0 -0.00000000000E+00 -0.00000000000E+00 -0.52121449816E+02  0.52121449816E+02  0.00000000000E+00 0. -1.
         25    2    1    2    0    0  0.10670319047E+03  0.15717740405E+02  0.32285608690E+03  0.36262046990E+03  0.12499973648E+03 0.  0.
          2    1    1    2  501    0 -0.41235644461E+02 -0.34933756322E+02 -0.50244428916E+01  0.54276981596E+02  0.00000000000E+00 0. -1.
          1    1    1    2  502    0 -0.65467546004E+02  0.19216015916E+02  0.44701276621E+03  0.45218985836E+03  0.00000000000E+00 0. -1.
         22    1    3    3    0    0  0.11466741253E+03  0.20700957859E+02  0.15208271046E+03  0.19158887226E+03  0.00000000000E+00 0. -1.
         22    1    3    3    0    0 -0.79642220661E+01 -0.49832174533E+01  0.17077337644E+03  0.17103159764E+03  0.00000000000E+00 0. -1.
</event>
<event>
 7    1  0.2895750E-005  0.1585174E+03  0.7818608E-02  0.1381711E+00
          2   -1    0    0  502    0  0.00000000000E+00  0.00000000000E+00  0.43094910850E+03  0.43094910850E+03  0.00000000000E+00 0. -1.
          1   -1    0    0  501    0 -0.00000000000E+00 -0.00000000000E+00 -0.57453689204E+03  0.57453689204E+03  0.00000000000E+00 0. -1.
         25    2    1    2    0    0 -0.75723091793E+01  0.14306118403E+03 -0.43469705405E+03  0.47445837423E+03  0.12500151136E+03 0.  0.
          2    1    1    2  501    0  0.20709463186E+02  0.15474765823E+02 -0.10290976974E+03  0.10610735578E+03  0.00000000000E+00 0. -1.
          1    1    1    2  502    0 -0.13137154007E+02 -0.15853594986E+03  0.39401904025E+03  0.42492027051E+03  0.00000000000E+00 0. -1.
         22    1    3    3    0    0 -0.13144323709E+02  0.90548365077E+02 -0.99686806203E+02  0.13531163658E+03  0.00000000000E+00 0.  1.
         22    1    3    3    0    0  0.55720145302E+01  0.52512818955E+02 -0.33501024784E+03  0.33914673765E+03  0.00000000000E+00 0.  1.
</event>
<event>
 7    1  0.2895750E-005  0.2043333E+03  0.7818608E-02  0.1215618E+00
          2   -1    0    0  502    0  0.00000000000E+00  0.00000000000E+00  0.27180284712E+04  0.27180284712E+04  0.00000000000E+00 0. -1.
          1   -1    0    0  501    0 -0.00000000000E+00 -0.00000000000E+00 -0.35796679125E+03  0.35796679125E+03  0.00000000000E+00 0. -1.
         25    2    1    2    0    0  0.22466216451E+03  0.10786121114E+03  0.48800598424E+03  0.56203353406E+03  0.12499889488E+03 0.  0.
          2    1    1    2  501    0 -0.13951804152E+03 -0.14679427915E+03 -0.28789078571E+03  0.35198714295E+03  0.00000000000E+00 0. -1.
          1    1    1    2  502    0 -0.85144122990E+02  0.38933068010E+02  0.21599464814E+04  0.21619745854E+04  0.00000000000E+00 0. -1.
         22    1    3    3    0    0  0.21257645876E+03  0.95151222557E+02  0.33487640281E+03  0.40790282069E+03  0.00000000000E+00 0.  1.
         22    1    3    3    0    0  0.12085705757E+02  0.12709988585E+02  0.15312958143E+03  0.15413071337E+03  0.00000000000E+00 0.  1.
</event>
<event>
 7    1  0.2895750E-005  0.2360194E+03  0.7818608E-02  0.1127286E+00
          2   -1    0    0  502    0  0.00000000000E+00  0.00000000000E+00  0.25882026938E+04  0.25882026938E+04  0.00000000000E+00 0. -1.
          1   -1    0    0  501    0 -0.00000000000E+00 -0.00000000000E+00 -0.97056340251E+03  0.97056340251E+03  0.00000000000E+00 0. -1.
         25    2    1    2    0    0  0.15767514351E+03  0.41347262364E+03  0.47194602116E+02  0.46225009508E+03  0.12500703401E+03 0.  0.
          2    1    1    2  501    0 -0.55968508488E+02 -0.21574410294E+03 -0.74131026903E+03  0.77409231159E+03  0.00000000000E+00 0. -1.
          1    1    1    2  502    0 -0.10170663502E+03 -0.19772852069E+03  0.23117549582E+04  0.23224236897E+04  0.00000000000E+00 0. -1.
         22    1    3    3    0    0  0.70627242038E+02  0.32983148947E+03  0.52723497530E+02  0.34140413875E+03  0.00000000000E+00 0. -1.
         22    1    3    3    0    0  0.87047901474E+02  0.83641134164E+02 -0.55288954143E+01  0.12084595632E+03  0.00000000000E+00 0. -1.
</event>
<event>
 7    1  0.2895750E-005  0.3117370E+03  0.7818608E-02  0.1203176E+00
          2   -1    0    0  502    0  0.00000000000E+00  0.00000000000E+00  0.16553339088E+04  0.16553339088E+04  0.00000000000E+00 0. -1.
          1   -1    0    0  501    0 -0.00000000000E+00 -0.00000000000E+00 -0.17352895052E+04  0.17352895052E+04  0.00000000000E+00 0. -1.
         25    2    1    2    0    0  0.33247616466E+03 -0.88328839626E+02  0.73341328156E+03  0.81967115583E+03  0.12499351247E+03 0.  0.
          2    1    1    2  501    0 -0.31049087770E+03  0.21771535485E+02 -0.16764148024E+04  0.17050645661E+04  0.00000000000E+00 0. -1.
          1    1    1    2  502    0 -0.21985286966E+02  0.66557304141E+02  0.86304592449E+03  0.86588769211E+03  0.00000000000E+00 0. -1.
         22    1    3    3    0    0  0.29292743584E+03 -0.46968789449E+02  0.67776323541E+03  0.73984833116E+03  0.00000000000E+00 0.  1.
         22    1    3    3    0    0  0.39548728826E+02 -0.41360050176E+02  0.55650046147E+02  0.79822824671E+02  0.00000000000E+00 0.  1.
</event>
<event>
 7    1  0.2895750E-005  0.1488790E+03  0.7818608E-02  0.1274145E+00
          2   -1    0    0  502    0  0.00000000000E+00  0.00000000000E+00  0.34935758901E+03  0.34935758901E+03  0.00000000000E+00 0. -1.
          1   -1    0    0  501    0 -0.00000000000E+00 -0.00000000000E+00 -0.22109883827E+04  0.22109883827E+04  0.00000000000E+00 0. -1.
         25    2    1    2    0    0 -0.15681181526E+03  0.52403376127E+02 -0.25161313357E+03  0.32599081757E+03  0.12499913967E+03 0.  0.
          2    1    1    2  501    0  0.14763632122E+03  0.18238874794E+02 -0.19152003110E+04  0.19209688626E+04  0.00000000000E+00 0. -1.
          1    1    1    2  502    0  0.91754940363E+01 -0.70642250921E+02  0.30518265089E+03  0.31338629152E+03  0.00000000000E+00 0. -1.
         22    1    3    3    0    0 -0.84698355995E+02  0.31751287543E+02 -0.35399156053E+02  0.97134216516E+02  0.00000000000E+00 0.  1.
         22    1    3    3    0    0 -0.72113459265E+02  0.20652088585E+02 -0.21621397752E+03  0.22885660105E+03  0.00000000000E+00 0.  1.
</event>
<event>
 7    1  0.2895750E-005  0.3252945E+03  0.7818608E-02  0.1087596E+00
          2   -1    0    0  502    0  0.00000000000E+00  0.00000000000E+00  0.25948252501E+04  0.25948252501E+04  0.00000000000E+00 0. -1.
          1   -1    0    0  501    0 -0.00000000000E+00 -0.00000000000E+00 -0.33014237936E+03  0.33014237936E+03  0.00000000000E+00 0. -1.
         25    2    1    2    0    0  0.35733136349E+03 -0.32569938210E+03  0.46085604571E+03  0.67954115366E+03  0.12498837473E+03 0.  0.
          2    1    1    2  501    0 -0.26694255899E+03  0.25251571467E+02 -0.12173230027E+03  0.29447363990E+03  0.00000000000E+00 0. -1.
          1    1    1    2  502    0 -0.90388804497E+02  0.30044781063E+03  0.19255591253E+04  0.19509528359E+04  0.00000000000E+00 0. -1.
         22    1    3    3    0    0  0.53408310430E+02 -0.77200441000E+02  0.15772801522E+03  0.18354967311E+03  0.00000000000E+00 0. -1.
         22    1    3    3    0    0  0.30392305306E+03 -0.24849894110E+03  0.30312803048E+03  0.49599148055E+03  0.00000000000E+00 0. -1.
</event>
<event>
 7    1  0.2895750E-005  0.1822984E+03  0.7818608E-02  0.1346019E+00
          2   -1    0    0  502    0  0.00000000000E+00  0.00000000000E+00  0.49916406673E+04  0.49916406673E+04  0.00000000000E+00 0. -1.
          1   -1    0    0  501    0 -0.00000000000E+00 -0.00000000000E+00 -0.11178109164E+02  0.11178109164E+02  0.00000000000E+00 0. -1.
         25    2    1    2    0    0  0.69597332540E+02  0.18780993254E+03  0.23243081355E+04  0.23362684265E+04  0.12500197014E+03 0.  0.
          2    1    1    2  501    0 -0.52436527552E+02 -0.16284839875E+03  0.14564700626E+04  0.14664836288E+04  0.00000000000E+00 0. -1.
          1    1    1    2  502    0 -0.17160804988E+02 -0.24961533793E+02  0.11996843601E+04  0.12000667212E+04  0.00000000000E+00 0. -1.
         22    1    3    3    0    0  0.16772564759E+02  0.41062703629E+02  0.15123413272E+03  0.15760465557E+03  0.00000000000E+00 0.  1.
         22    1    3    3    0    0  0.52824767781E+02  0.14674722891E+03  0.21730740028E+04  0.21786637709E+04  0.00000000000E+00 0.  1.
</event>
<event>
 7    1  0.2895750E-005  0.1053222E+03  0.7818608E-02  0.1303373E+00
          2   -1    0    0  502    0  0.00000000000E+00  0.00000000000E+00  0.10875903783E+04  0.10875903783E+04  0.00000000000E+00 0. -1.
          1   -1    0    0  501    0 -0.00000000000E+00 -0.00000000000E+00 -0.28149079765E+03  0.28149079765E+03  0.00000000000E+00 0. -1.
         25    2    1    2    0    0 -0.33349530734E+02 -0.40245436574E+02  0.33381796257E+03  0.36026602359E+03  0.12500115698E+03 0.  0.
          2    1    1    2  501    0 -0.61945492731E+02 -0.44957289597E+02 -0.25713352119E+03  0.26828352479E+03  0.00000000000E+00 0. -1.
          1    1    1    2  502    0  0.95295023465E+02  0.85202726171E+02  0.72941513927E+03  0.74053162758E+03  0.00000000000E+00 0. -1.
         22    1    3    3    0    0  0.14453476791E+02 -0.18169263977E+02  0.92582023240E+00  0.23235367179E+02  0.00000000000E+00 0.  1.
         22    1    3    3    0    0 -0.47803007525E+02 -0.22076172597E+02  0.33289214234E+03  0.33703065641E+03  0.00000000000E+00 0.  1.
</event>
<event>
 7    1  0.2895750E-005  0.1290285E+03  0.7818608E-02  0.1300987E+00
          2   -1    0    0  502    0  0.00000000000E+00  0.00000000000E+00  0.65895333569E+03  0.65895333569E+03  0.00000000000E+00 0. -1.
          1   -1    0    0  501    0 -0.00000000000E+00 -0.00000000000E+00 -0.12245755760E+04  0.12245755760E+04  0.00000000000E+00 0. -1.
         25    2    1    2    0    0  0.73790226068E+02 -0.14488853009E+03  0.40448736775E+03  0.45351086395E+03  0.12499755774E+03 0.  0.
          2    1    1    2  501    0 -0.53835777104E+02  0.34351404996E+02 -0.11854364417E+04  0.11871553677E+04  0.00000000000E+00 0. -1.
          1    1    1    2  502    0 -0.19954448963E+02  0.11053712510E+03  0.21532683361E+03  0.24286267999E+03  0.00000000000E+00 0. -1.
         22    1    3    3    0    0 -0.10945705632E+02 -0.99806650617E+02  0.27176090308E+03  0.28971566133E+03  0.00000000000E+00 0.  1.
         22    1    3    3    0    0  0.84735931700E+02 -0.45081879476E+02  0.13272646467E+03  0.16379520262E+03  0.00000000000E+00 0.  1.
</event>
<event>
 7    1  0.2895750E-005  0.1016387E+03  0.7818608E-02  0.1382940E+00
          2   -1    0    0  502    0  0.00000000000E+00  0.00000000000E+00  0.11166379142E+04  0.11166379142E+04  0.00000000000E+00 0. -1.
          1   -1    0    0  501    0 -0.00000000000E+00 -0.00000000000E+00 -0.63923776814E+03  0.63923776814E+03  0.00000000000E+00 0. -1.
         25    2    1    2    0    0 -0.70920936030E+02  0.48369481195E+01 -0.10535938743E+03  0.17824077918E+03  0.12496399325E+03 0.  0.
          2    1    1    2  501    0  0.10560505661E+03  0.14925426595E+02 -0.49134575403E+03  0.50278807299E+03  0.00000000000E+00 0. -1.
          1    1    1    2  502    0 -0.34684120583E+02 -0.19762374715E+02  0.10741052875E+04  0.10748468301E+04  0.00000000000E+00 0. -1.
         22    1    3    3    0    0 -0.74096846989E+02  0.55712860614E+02 -0.64985006739E+02  0.11321358873E+03  0.00000000000E+00 0. -1.
         22    1    3    3    0    0  0.31759109587E+01 -0.50875912494E+02 -0.40374380687E+02  0.65027190454E+02  0.00000000000E+00 0. -1.
</event>
<event>
 7    1  0.2895750E-005  0.2220400E+03  0.7818608E-02  0.1187280E+00
          2   -1    0    0  502    0  0.00000000000E+00  0.00000000000E+00  0.12847131936E+04  0.12847131936E+04  0.00000000000E+00 0. -1.
          1   -1    0    0  501    0 -0.00000000000E+00 -0.00000000000E+00 -0.16790237271E+03  0.16790237271E+03  0.00000000000E+00 0. -1.
         25    2    1    2    0    0 -0.10906999980E+03 -0.28378866137E+03  0.19930853305E+03  0.38442062942E+03  0.12499223896E+03 0.  0.
          2    1    1    2  501    0  0.76144351002E+02  0.17139275043E+03  0.51747282185E+02  0.19455389563E+03  0.00000000000E+00 0. -1.
          1    1    1    2  502    0  0.32925648797E+02  0.11239591094E+03  0.86575500568E+03  0.87364104128E+03  0.00000000000E+00 0. -1.
         22    1    3    3    0    0 -0.13666222447E+03 -0.24104204824E+03  0.15865226575E+03  0.31929355465E+03  0.00000000000E+00 0. -1.
         22    1    3    3    0    0  0.27592224675E+02 -0.42746613130E+02  0.40656267298E+02  0.65127074763E+02  0.00000000000E+00 0. -1.
</event>
<event>
 7    1  0.3915719E-005  0.1411851E+03  0.7818608E-02  0.1355250E+00
          2   -1    0    0  502    0  0.00000000000E+00  0.00000000000E+00  0.85786551068E+03  0.85786551068E+03  0.00000000000E+00 0. -1.
          1   -1    0    0  501    0 -0.00000000000E+00 -0.00000000000E+00 -0.15979277545E+04  0.15979277545E+04  0.00000000000E+00 0. -1.
         25    2    1    2    0    0  0.11754522008E+03  0.66105271783E+02 -0.84333546141E+03  0.86314817627E+03  0.12499315180E+03 0.  0.
          2    1    1    2  501    0  0.19189687536E+02 -0.30639924242E+02 -0.73835756255E+03  0.73924213844E+03  0.00000000000E+00 0. -1.
          1    1    1    2  502    0 -0.13673490761E+03 -0.35465347540E+02  0.84163078013E+03  0.85340295048E+03  0.00000000000E+00 0. -1.
         22    1    3    3    0    0  0.23540338152E+02  0.81984131064E+02 -0.47961249478E+03  0.48713826622E+03  0.00000000000E+00 0.  1.
         22    1    3    3    0    0  0.94004881926E+02 -0.15878859281E+02 -0.36372296663E+03  0.37600991005E+03  0.00000000000E+00 0.  1.
</event>
<event>
 7    1  0.2895750E-005  0.8135477E+02  0.7818608E-02  0.1423451E+00
          2   -1    0    0  502    0  0.00000000000E+00  0.00000000000E+00  0.32624472729E+03  0.32624472729E+03  0.00000000000E+00 0. -1.
          1   -1    0    0  501    0 -0.00000000000E+00 -0.00000000000E+00 -0.14976221367E+04  0.14976221367E+04  0.00000000000E+00 0. -1.
         25    2    1    2    0    0 -0.66720899746E+02 -0.62555186463E+02 -0.35044970026E+03  0.38315070936E+03  0.12499857542E+03 0.  0.
          2    1    1    2  501    0 -0.97474041062E+01  0.34903426303E+02 -0.11251911001E+04  0.11257745213E+04  0.00000000000E+00 0. -1.
          1    1    1    2  502    0  0.76468303852E+02  0.27651760161E+02  0.30426339095E+03  0.31494163333E+03  0.00000000000E+00 0. -1.
         22    1    3    3    0    0 -0.40446157481E+02  0.29809171582E+02 -0.18648512499E+03  0.19313513457E+03  0.00000000000E+00 0.  1.
         22    1    3    3    0    0 -0.26274742265E+02 -0.92364358046E+02 -0.16396457527E+03  0.19001557479E+03  0.00000000000E+00 0.  1.
</event>
<event>
 7    1  0.2895750E-005  0.3119021E+03  0.7818608E-02  0.1190335E+00
          2   -1    0    0  502    0  0.00000000000E+00  0.00000000000E+00  0.39694707159E+03  0.39694707159E+03  0.00000000000E+00 0. -1.
          1   -1    0    0  501    0 -0.00000000000E+00 -0.00000000000E+00 -0.12913857542E+04  0.12913857542E+04  0.00000000000E+00 0. -1.
         25    2    1    2    0    0  0.21048684259E+03  0.19394195531E+03 -0.11096092554E+03  0.33144481864E+03  0.12500059151E+03 0.  0.
          2    1    1    2  501    0  0.72795749373E+02 -0.34608387854E+02 -0.97587212717E+03  0.97919526665E+03  0.00000000000E+00 0. -1.
          1    1    1    2  502    0 -0.28328259196E+03 -0.15933356746E+03  0.19239437006E+03  0.37769274054E+03  0.00000000000E+00 0. -1.
         22    1    3    3    0    0  0.49957483271E+02  0.47460463896E+02 -0.89669277023E+02  0.11308768726E+03  0.00000000000E+00 0. -1.
         22    1    3    3    0    0  0.16052935931E+03  0.14648149142E+03 -0.21291648515E+02  0.21835713138E+03  0.00000000000E+00 0. -1.
</event>
<event>
 7    1  0.2895750E-005  0.2389899E+03  0.7818608E-02  0.1284345E+00
          2   -1    0    0  502    0  0.00000000000E+00  0.00000000000E+00  0.19831922243E+04  0.19831922243E+04  0.00000000000E+00 0. -1.
          1   -1    0    0  501    0 -0.00000000000E+00 -0.00000000000E+00 -0.51646747747E+02  0.51646747747E+02  0.00000000000E+00 0. -1.
         25    2    1    2    0    0  0.61488741304E+02  0.21912757524E+03  0.69091129101E+03  0.73808908127E+03  0.12497727913E+03 0.  0.
          2    1    1    2  501    0  0.39989149519E+02  0.47211965015E+01  0.95661759552E+01  0.41387600776E+02  0.00000000000E+00 0. -1.
          1    1    1    2  502    0 -0.10147789082E+03 -0.22384877174E+03  0.12310680096E+04  0.12553622900E+04  0.00000000000E+00 0. -1.
         22    1    3    3    0    0 -0.31744271314E+02  0.14769394252E+02  0.95903479051E+02  0.10209461818E+03  0.00000000000E+00 0.  1.
         22    1    3    3    0    0  0.93233012618E+02  0.20435818099E+03  0.59500781196E+03  0.63599446309E+03  0.00000000000E+00 0.  1.
</event>
<event>
 7    1  0.2895750E-005  0.3180190E+03  0.7818608E-02  0.1153455E+00
          2   -1    0    0  502    0  0.00000000000E+00  0.00000000000E+00  0.37513987035E+04  0.37513987035E+04  0.00000000000E+00 0. -1.
          1   -1    0    0  501    0 -0.00000000000E+00 -0.00000000000E+00 -0.10723930153E+04  0.10723930153E+04  0.00000000000E+00 0. -1.
         25    2    1    2    0    0  0.19743694941E+03 -0.36805983187E+03  0.26939573770E+03  0.51249375033E+03  0.12500556712E+03 0.  0.
          2    1    1    2  501    0 -0.95998976393E+02  0.72626682893E+02 -0.93973775371E+03  0.94741621492E+03  0.00000000000E+00 0. -1.
          1    1    1    2  502    0 -0.10143797302E+03  0.29543314898E+03  0.33493477043E+04  0.33638817536E+04  0.00000000000E+00 0. -1.
         22    1    3    3    0    0  0.12640935591E+02 -0.57450175925E+02 -0.45212549111E+01  0.58997946680E+02  0.00000000000E+00 0.  1.
         22    1    3    3    0    0  0.18479601382E+03 -0.31060965595E+03  0.27391699261E+03  0.45349580365E+03  0.00000000000E+00 0.  1.
</event>
<event>
 7    1  0.2895750E-005  0.2264960E+03  0.7818608E-02  0.1260021E+00
          2   -1    0    0  502    0  0.00000000000E+00  0.00000000000E+00  0.87476284287E+03  0.87476284287E+03  0.00000000000E+00 0. -1.
          1   -1    0    0  501    0 -0.00000000000E+00 -0.00000000000E+00 -0.11743564522E+04  0.11743564522E+04  0.00000000000E+00 0. -1.
         25    2    1    2    0    0  0.15066775580E+03 -0.17231770860E+03 -0.97290109055E+03  0.10072512297E+04  0.12499736942E+03 0.  0.
          2    1    1    2  501    0 -0.45591683650E+02 -0.28396006794E+02 -0.16498143870E+03  0.17350449543E+03  0.00000000000E+00 0. -1.
          1    1    1    2  502    0 -0.10507607215E+03  0.20071371539E+03  0.83828891989E+03  0.86836356999E+03  0.00000000000E+00 0. -1.
         22    1    3    3    0    0 -0.57373537081E+01 -0.62189371463E+02 -0.15144126456E+03  0.16381358846E+03  0.00000000000E+00 0. -1.
         22    1    3    3    0    0  0.15640510951E+03 -0.11012833714E+03 -0.82145982598E+03  0.84343764122E+03  0.00000000000E+00 0. -1.
</event>
<event>
 7    1  0.2895750E-005  0.1728079E+03  0.7818608E-02  0.1296162E+00
          2   -1    0    0  502    0  0.00000000000E+00  0.00000000000E+00  0.15666968443E+03  0.15666968443E+03  0.00000000000E+00 0. -1.
          1   -1    0    0  501    0 -0.00000000000E+00 -0.00000000000E+00 -0.87014293235E+03  0.87014293235E+03  0.00000000000E+00 0. -1.
         25    2    1    2    0    0 -0.16362969687E+03 -0.18746438597E+02 -0.46517268496E+03  0.50905483604E+03  0.12500037042E+03 0.  0.
          2    1    1    2  501    0 -0.81838940711E+01  0.49180442249E+02 -0.32381453506E+03  0.32763019571E+03  0.00000000000E+00 0. -1.
          1    1    1    2  502    0  0.17181359094E+03 -0.30434003652E+02  0.75513972104E+02  0.19012758504E+03  0.00000000000E+00 0. -1.
         22    1    3    3    0    0 -0.89345595961E+02 -0.18143599619E+02 -0.95650269732E+02  0.13213931975E+03  0.00000000000E+00 0. -1.
         22    1    3    3    0    0 -0.74284100905E+02 -0.60283897855E+00 -0.36952241523E+03  0.37691551629E+03  0.00000000000E+00 0. -1.
</event>
<event>
 7    1  0.2895750E-005  0.2343310E+03  0.7818608E-02  0.1169123E+00
          2   -1    0    0  502    0  0.00000000000E+00  0.00000000000E+00  0.77811670594E+03  0.77811670594E+03  0.00000000000E+00 0. -1.
          1   -1    0    0  501    0 -0.00000000000E+00 -0.00000000000E+00 -0.26449689987E+03  0.26449689987E+03  0.00000000000E+00 0. -1.
         25    2    1    2    0    0  0.83545189972E+02  0.33859902658E+03  0.46966534623E+03  0.59819714553E+03  0.12500075157E+03 0.  0.
          2    1    1    2  501    0 -0.18141463057E+02 -0.21914260772E+03 -0.10406744435E+03  0.24327479971E+03  0.00000000000E+00 0. -1.
          1    1    1    2  502    0 -0.65403726915E+02 -0.11945641887E+03  0.14802190418E+03  0.20114166058E+03  0.00000000000E+00 0. -1.
         22    1    3    3    0    0  0.39873021444E+02  0.29368029088E+03  0.43566149424E+03  0.52691451741E+03  0.00000000000E+00 0. -1.
         22    1    3    3    0    0  0.43672168529E+02  0.44918735705E+02  0.34003851989E+02  0.71282628118E+02  0.00000000000E+00 0. -1.
</event>
<event>
 7    1  0.2895750E-005  0.1040657E+04  0.7818608E-02  0.1123249E+00
          2   -1    0    0  502    0  0.00000000000E+00  0.00000000000E+00  0.25367220458E+04  0.25367220458E+04  0.00000000000E+00 0. -1.
          1   -1    0    0  501    0 -0.00000000000E+00 -0.00000000000E+00 -0.10035289399E+04  0.10035289399E+04  0.00000000000E+00 0. -1.
         25    2    1    2    0    0  0.24307175157E+02  0.10746228412E+04  0.63166283407E+03  0.12530076852E+04  0.12500093418E+03 0.  0.
          2    1    1    2  501    0  0.71888841545E+01 -0.52525052307E+02 -0.52742881436E+03  0.53008651689E+03  0.00000000000E+00 0. -1.
          1    1    1    2  502    0 -0.31496059311E+02 -0.10220977889E+04  0.14289590862E+04  0.17571567835E+04  0.00000000000E+00 0. -1.
         22    1    3    3    0    0 -0.36399836130E+02  0.79423303108E+03  0.47444506913E+03  0.92586671792E+03  0.00000000000E+00 0.  1.
         22    1    3    3    0    0  0.60707011286E+02  0.28038981015E+03  0.15721776494E+03  0.32714096727E+03  0.00000000000E+00 0.  1.
</event>
<event>
 7    1  0.2895750E-005  0.4173472E+03  0.7818608E-02  0.1255411E+00
          2   -1    0    0  502    0  0.00000000000E+00  0.00000000000E+00  0.28972267841E+04  0.28972267841E+04  0.00000000000E+00 0. -1.
          1   -1    0    0  501    0 -0.00000000000E+00 -0.00000000000E+00 -0.68712011179E+03  0.68712011179E+03  0.00000000000E+00 0. -1.
         25    2    1    2    0    0  0.31362754341E+03  0.23714025998E+03 -0.39823600062E+03  0.57342384160E+03  0.12500100415E+03 0.  0.
          2    1    1    2  501    0  0.86633547976E+01  0.29249359803E+02 -0.18447389751E+03  0.18697913687E+03  0.00000000000E+00 0. -1.
          1    1    1    2  502    0 -0.32229089821E+03 -0.26638961978E+03  0.27928165704E+04  0.28239439174E+04  0.00000000000E+00 0. -1.
         22    1    3    3    0    0 -0.21492499301E+01 -0.63668714717E+01 -0.29669948298E+02  0.30421409559E+02  0.00000000000E+00 0. -1.
         22    1    3    3    0    0  0.31577679334E+03  0.24350713145E+03 -0.36856605232E+03  0.54300243204E+03  0.00000000000E+00 0. -1.
</event>
<event>
 7    1  0.2895750E-005  0.1848809E+03  0.7818608E-02  0.1317365E+00
          2   -1    0    0  502    0  0.00000000000E+00  0.00000000000E+00  0.14910267315E+04  0.14910267315E+04  0.00000000000E+00 0. -1.
          1   -1    0    0  501    0 -0.00000000000E+00 -0.00000000000E+00 -0.18362351527E+04  0.18362351527E+04  0.00000000000E+00 0. -1.
         25    2    1    2    0    0  0.18766216424E+03 -0.92794956447E+02  0.28604644766E+03  0.37586555807E+03  0.12499742277E+03 0.  0.
          2    1    1    2  501    0 -0.17577372546E+03  0.56274584784E+02 -0.17862516438E+04  0.17957611663E+04  0.00000000000E+00 0. -1.
          1    1    1    2  502    0 -0.11888438788E+02  0.36520371663E+02  0.11549967749E+04  0.11556351598E+04  0.00000000000E+00 0. -1.
         22    1    3    3    0    0  0.63366510508E+02 -0.70975588181E+02  0.48303930749E+02  0.10670575663E+03  0.00000000000E+00 0. -1.
         22    1    3    3    0    0  0.12429565374E+03 -0.21819368266E+02  0.23774251691E+03  0.26915980144E+03  0.00000000000E+00 0. -1.
</event>
<event>
 7    1  0.2895750E-005  0.1363515E+03  0.7818608E-02  0.1288703E+00
          2   -1    0    0  502    0  0.00000000000E+00  0.00000000000E+00  0.20228975040E+04  0.20228975040E+04  0.00000000000E+00 0. -1.
          1   -1    0    0  501    0 -0.00000000000E+00 -0.00000000000E+00 -0.10177303788E+03  0.10177303788E+03  0.00000000000E+00 0. -1.
         25    2    1    2    0    0 -0.77221162994E+01 -0.18120842082E+03  0.36577987260E+02  0.22331517009E+03  0.12504236556E+03 0.  0.
          2    1    1    2  501    0 -0.40060514144E+02  0.54625262133E+02  0.19559652096E+03  0.20699459671E+03  0.00000000000E+00 0. -1.
          1    1    1    2  502    0  0.47782630443E+02  0.12658315869E+03  0.16889499579E+04  0.16943607750E+04  0.00000000000E+00 0. -1.
         22    1    3    3    0    0 -0.43162541371E+02 -0.95427248155E+02 -0.30168506458E+02  0.10899313488E+03  0.00000000000E+00 0.  1.
         22    1    3    3    0    0  0.35440425071E+02 -0.85781172666E+02  0.66746493718E+02  0.11432203522E+03  0.00000000000E+00 0.  1.
</event>
<event>
 7    1  0.2895750E-005  0.4007698E+03  0.7818608E-02  0.1060295E+00
          2   -1    0    0  502    0  0.00000000000E+00  0.00000000000E+00  0.42979170331E+03  0.42979170331E+03  0.00000000000E+00 0. -1.
          1   -1    0    0  501    0 -0.00000000000E+00 -0.00000000000E+00 -0.13740736330E+04  0.13740736330E+04  0.00000000000E+00 0. -1.
         25    2    1    2    0    0  0.45457517532E+03  0.46383093594E+03 -0.65844731228E+03  0.93324982066E+03  0.12499855020E+03 0.  0.
          2    1    1    2  501    0 -0.14357460855E+03 -0.28118541460E+03 -0.38371123793E+03  0.49690363222E+03  0.00000000000E+00 0. -1.
          1    1    1    2  502    0 -0.31100056677E+03 -0.18264552135E+03  0.97876620481E+02  0.37371188346E+03  0.00000000000E+00 0. -1.
         22    1    3    3    0    0  0.98165894334E+02  0.14681481654E+03 -0.24492645153E+03  0.30196042758E+03  0.00000000000E+00 0.  1.
         22    1    3    3    0    0  0.35640928099E+03  0.31701611941E+03 -0.41352086075E+03  0.63128939308E+03  0.00000000000E+00 0.  1.
</event>
<event>
 7    1  0.2895750E-005  0.3440042E+03  0.7818608E-02  0.1175110E+00
          2   -1    0    0  502    0  0.00000000000E+00  0.00000000000E+00  0.32960615397E+04  0.32960615397E+04  0.00000000000E+00 0. -1.
          1   -1    0    0  501    0 -0.00000000000E+00 -0.00000000000E+00 -0.45544023289E+03  0.45544023289E+03  0.00000000000E+00 0. -1.
         25    2    1    2    0    0 -0.13622464068E+03 -0.40468820631E+03  0.15515414115E+04  0.16140766940E+04  0.12503249820E+03 0.  0.
          2    1    1    2  501    0  0.10573905719E+03  0.32357518210E+03 -0.35454838834E+03  0.49151419752E+03  0.00000000000E+00 0. -1.
          1    1    1    2  502    0  0.30485583492E+02  0.81113024218E+02  0.16436282837E+04  0.16459108810E+04  0.00000000000E+00 0. -1.
         22    1    3    3    0    0 -0.14922641705E+03 -0.27789901336E+03  0.10319546228E+04  0.10790860617E+04  0.00000000000E+00 0. -1.
         22    1    3    3    0    0  0.13001776371E+02 -0.12678919296E+03  0.51958678875E+03  0.53499063233E+03  0.00000000000E+00 0. -1.
</event>
<event>
 7    1  0.2895750E-005  0.4551848E+03  0.7818608E-02  0.1083837E+00
          2   -1    0    0  502    0  0.00000000000E+00  0.00000000000E+00  0.56840457547E+03  0.56840457547E+03  0.00000000000E+00 0. -1.
          1   -1    0    0  501    0 -0.00000000000E+00 -0.00000000000E+00 -0.14260219129E+04  0.14260219129E+04  0.00000000000E+00 0. -1.
         25    2    1    2    0    0 -0.50178380111E+03 -0.22700030552E+03 -0.14250263691E+03  0.58245131045E+03  0.12500562288E+03 0.  0.
          2    1    1    2  501    0  0.76659406962E+02  0.18630662380E+03 -0.91751555115E+03  0.93937298734E+03  0.00000000000E+00 0. -1.
          1    1    1    2  502    0  0.42512439415E+03  0.40693681725E+02  0.20240085061E+03  0.47260219060E+03  0.00000000000E+00 0. -1.
         22    1    3    3    0    0 -0.17758177709E+03 -0.11039589650E+03 -0.11032160080E+03  0.23641784434E+03  0.00000000000E+00 0.  1.
         22    1    3    3    0    0 -0.32420202402E+03 -0.11660440902E+03 -0.32181036106E+02  0.34603346611E+03  0.00000000000E+00 0.  1.
</event>
<event>
 7    1  0.2895750E-005  0.1171241E+03  0.7818608E-02  0.1335406E+00
          2   -1    0    0  502    0  0.00000000000E+00  0.00000000000E+00  0.70332529322E+03  0.70332529322E+03  0.00000000000E+00 0. -1.
          1   -1    0    0  501    0 -0.00000000000E+00 -0.00000000000E+00 -0.21434297189E+03  0.21434297189E+03  0.00000000000E+00 0. -1.
         25    2    1    2    0    0  0.15271370356E+03 -0.60508800244E+02  0.20131197520E+03  0.28832817414E+03  0.12499533783E+03 0.  0.
          2    1    1    2  501    0 -0.10819940613E+03  0.34249739998E+02 -0.15029746675E+03  0.18833344018E+03  0.00000000000E+00 0. -1.
          1    1    1    2  502    0 -0.44514297430E+02  0.26259060246E+02  0.43796781289E+03  0.44100665079E+03  0.00000000000E+00 0. -1.
         22    1    3    3    0    0  0.56173396246E+02  0.22684354420E+02  0.12723750165E+03  0.14092342675E+03  0.00000000000E+00 0.  1.
         22    1    3    3    0    0  0.96540307319E+02 -0.83193154664E+02  0.74074473552E+02  0.14740474739E+03  0.00000000000E+00 0.  1.
</event>
<event>
 7    1  0.2895750E-005  0.1151542E+03  0.7818608E-02  0.1279720E+00
          2   -1    0    0  502    0  0.00000000000E+00  0.00000000000E+00  0.30183265056E+04  0.30183265056E+04  0.00000000000E+00 0. -1.
          1   -1    0    0  501    0 -0.00000000000E+00 -0.00000000000E+00 -0.90297748186E+03  0.90297748186E+03  0.00000000000E+00 0. -1.
         25    2    1    2    0    0 -0.17406096192E+01  0.10107339473E+03  0.22541993228E+04  0.22599243927E+04  0.12499925115E+03 0.  0.
          2    1    1    2  501    0  0.64772405914E+02  0.58555793042E+02 -0.88827414664E+03  0.89255543529E+03  0.00000000000E+00 0. -1.
          1    1    1    2  502    0 -0.63031796295E+02 -0.15962918778E+03  0.74942384754E+03  0.76882415948E+03  0.00000000000E+00 0. -1.
         22    1    3    3    0    0 -0.16329264578E+02 -0.26197113681E+02  0.31919186032E+03  0.32068111473E+03  0.00000000000E+00 0.  1.
         22    1    3    3    0    0  0.14588654958E+02  0.12727050842E+03  0.19350074625E+04  0.19392432780E+04  0.00000000000E+00 0.  1.
</event>
<event>
 7    1  0.2895750E-005  0.7399971E+02  0.7818608E-02  0.1361984E+00
          2   -1    0    0  502    0  0.00000000000E+00  0.00000000000E+00  0.46131926832E+03  0.46131926832E+03  0.00000000000E+00 0. -1.
          1   -1    0    0  501    0 -0.00000000000E+00 -0.00000000000E+00 -0.46219024302E+03  0.46219024302E+03  0.00000000000E+00 0. -1.
         25    2    1    2    0    0 -0.56826134777E+02  0.74302835375E+02 -0.62239491762E+02  0.16807366652E+03  0.12499952842E+03 0.  0.
          2    1    1    2  501    0  0.73481653977E+02 -0.11292466190E+02 -0.34039565088E+03  0.34841967856E+03  0.00000000000E+00 0. -1.
          1    1    1    2  502    0 -0.16655519200E+02 -0.63010369185E+02  0.40176416795E+03  0.40701616625E+03  0.00000000000E+00 0. -1.
         22    1    3    3    0    0  0.56010080280E+01  0.82839425942E+02 -0.64325553716E+02  0.10503103657E+03  0.00000000000E+00 0.  1.
         22    1    3    3    0    0 -0.62427142805E+02 -0.85365905674E+01  0.20860619543E+01  0.63042629957E+02  0.00000000000E+00 0.  1.
</event>
<event>
 7    1  0.2895750E-005  0.1118576E+03  0.7818608E-02  0.1271317E+00
          2   -1    0    0  502    0  0.00000000000E+00  0.00000000000E+00  0.44141973939E+03  0.44141973939E+03  0.00000000000E+00 0. -1.
          1   -1    0    0  501    0 -0.00000000000E+00 -0.00000000000E+00 -0.11356672782E+04  0.11356672782E+04  0.00000000000E+00 0. -1.
         25    2    1    2    0    0  0.77165667757E+02 -0.17408314569E+03  0.13607305026E+03  0.26533109677E+03  0.12500093605E+03 0.  0.
          2    1    1    2  501    0 -0.61785516830E+02  0.75332566781E+02 -0.10583299556E+04  0.10628051282E+04  0.00000000000E+00 0. -1.
          1    1    1    2  502    0 -0.15380150928E+02  0.98750578907E+02  0.22800936656E+03  0.24895079256E+03  0.00000000000E+00 0. -1.
         22    1    3    3    0    0 -0.40438433723E+01 -0.66438081285E+02  0.10912457604E+03  0.12782231577E+03  0.00000000000E+00 0.  1.
         22    1    3    3    0    0  0.81209511130E+02 -0.10764506440E+03  0.26948474223E+02  0.13750878100E+03  0.00000000000E+00 0.  1.
</event>
<event>
 7    1  0.2895750E-005  0.1142138E+03  0.7818608E-02  0.1361868E+00
          2   -1    0    0  502    0  0.00000000000E+00  0.00000000000E+00  0.17067203650E+04  0.17067203650E+04  0.00000000000E+00 0. -1.
          1   -1    0    0  501    0 -0.00000000000E+00 -0.00000000000E+00 -0.10023890098E+03  0.10023890098E+03  0.00000000000E+00 0. -1.
         25    2    1    2    0    0  0.50489320576E+02 -0.14431444755E+03  0.20521844882E+03  0.28481291448E+03  0.12501181246E+03 0.  0.
          2    1    1    2  501    0 -0.22657350039E+02  0.35682206355E+02 -0.50615664341E+02  0.65943315338E+02  0.00000000000E+00 0. -1.
          1    1    1    2  502    0 -0.27831970537E+02  0.10863224120E+03  0.14518786796E+04  0.14562030362E+04  0.00000000000E+00 0. -1.
         22    1    3    3    0    0 -0.30716221817E+02 -0.76988883349E+02  0.48920543820E+02  0.96249644413E+02  0.00000000000E+00 0.  1.
         22    1    3    3    0    0  0.81205542393E+02 -0.67325564203E+02  0.15629790500E+03  0.18856327007E+03  0.00000000000E+00 0.  1.
</event>
<event>
 7    1  0.2895750E-005  0.1143040E+03  0.7818608E-02  0.1374363E+00
          2   -1    0    0  502    0  0.00000000000E+00  0.00000000000E+00  0.27182860080E+03  0.27182860080E+03  0.00000000000E+00 0. -1.
          1   -1    0    0  501    0 -0.00000000000E+00 -0.00000000000E+00 -0.11047841016E+04  0.11047841016E+04  0.00000000000E+00 0. -1.
         25    2    1    2    0    0  0.13005601178E+03 -0.57970664759E+02  0.13034039047E+03  0.22997109637E+03  0.12499169416E+03 0.  0.
          2    1    1    2  501    0 -0.92828294955E+02  0.65948914975E+02 -0.10477933896E+04  0.10539626839E+04  0.00000000000E+00 0. -1.
          1    1    1    2  502    0 -0.37227716822E+02 -0.79782502155E+01  0.84497498353E+02  0.92678922113E+02  0.00000000000E+00 0. -1.
         22    1    3    3    0    0  0.10209872503E+03  0.15338820208E+02  0.10564489836E+03  0.14771686974E+03  0.00000000000E+00 0.  1.
         22    1    3    3    0    0  0.27957286751E+02 -0.73309484967E+02  0.24695492110E+02  0.82254226635E+02  0.00000000000E+00 0.  1.
</event>
<event>
 7    1  0.2895750E-005  0.6388563E+03  0.7818608E-02  0.1030440E+00
          2   -1    0    0  502    0  0.00000000000E+00  0.00000000000E+00  0.10478492116E+04  0.10478492116E+04  0.00000000000E+00 0. -1.
          1   -1    0    0  501    0 -0.00000000000E+00 -0.00000000000E+00 -0.80231585723E+03  0.80231585723E+03  0.00000000000E+00 0. -1.
         25    2    1    2    0    0 -0.53045005210E+03 -0.29472220870E+03 -0.76418427443E+02  0.62426169428E+03  0.12499779522E+03 0.  0.
          2    1    1    2  501    0 -0.14466993237E+03  0.26785016458E+03 -0.20673811163E+03  0.36798606875E+03  0.00000000000E+00 0. -1.
          1    1    1    2  502    0  0.67511998447E+03  0.26872044127E+02  0.52868989347E+03  0.85791730583E+03  0.00000000000E+00 0. -1.
         22    1    3    3    0    0 -0.26681581825E+03 -0.16443110570E+03  0.21927261695E+02  0.31418000286E+03  0.00000000000E+00 0. -1.
         22    1    3    3    0    0 -0.26363423385E+03 -0.13029110300E+03 -0.98345689138E+02  0.31008169142E+03  0.00000000000E+00 0. -1.
</event>
<event>
 7    1  0.2895750E-005  0.7982954E+02  0.7818608E-02  0.1349938E+00
          2   -1    0    0  502    0  0.00000000000E+00  0.00000000000E+00  0.68427417954E+03  0.68427417954E+03  0.00000000000E+00 0. -1.
          1   -1    0    0  501    0 -0.00000000000E+00 -0.00000000000E+00 -0.10234633143E+03  0.10234633143E+03  0.00000000000E+00 0. -1.
         25    2    1    2    0    0 -0.12461039542E+03  0.27969640423E+02  0.28644086444E+01  0.17872808287E+03  0.12500188534E+03 0.  0.
          2    1    1    2  501    0  0.63409186812E+02  0.21303045713E+02  0.87762928535E+02  0.11034888470E+03  0.00000000000E+00 0. -1.
          1    1    1    2  502    0  0.61201208613E+02 -0.49272686136E+02  0.49130051094E+03  0.49754354340E+03  0.00000000000E+00 0. -1.
         22    1    3    3    0    0 -0.33690768536E+02 -0.45298549209E+02  0.21643251036E+02  0.60460373472E+02  0.00000000000E+00 0. -1.
         22    1    3    3    0    0 -0.90919626889E+02  0.73268189632E+02 -0.18778842392E+02  0.11826770940E+03  0.00000000000E+00 0. -1.
</event>
<event>
 7    1  0.2895750E-005  0.8272685E+03  0.7818608E-02  0.1076957E+00
          2   -1    0    0  502    0  0.00000000000E+00  0.00000000000E+00  0.14245173916E+04  0.14245173916E+04  0.00000000000E+00 0. -1.
          1   -1    0    0  501    0 -0.00000000000E+00 -0.00000000000E+00 -0.30017282973E+04  0.30017282973E+04  0.00000000000E+00 0. -1.
         25    2    1    2    0    0 -0.61120122130E+03 -0.69217067002E+03 -0.27227094914E+03  0.97078473738E+03  0.12499746886E+03 0.  0.
          2    1    1    2  501    0  0.50665635617E+03  0.63005606513E+03 -0.23077640710E+04  0.24452906404E+04  0.00000000000E+00 0. -1.
          1    1    1    2  502    0  0.10454486513E+03  0.62114604887E+02  0.10028241144E+04  0.10101703111E+04  0.00000000000E+00 0. -1.
         22    1    3    3    0    0 -0.10885824241E+02  0.24371547895E+01  0.43029426308E+01  0.11956429574E+02  0.00000000000E+00 0.  1.
         22    1    3    3    0    0 -0.60031539706E+03 -0.69460782481E+03 -0.27657389177E+03  0.95882830780E+03  0.00000000000E+00 0.  1.
</event>
<event>
 7    1  0.2895750E-005  0.2735275E+03  0.7818608E-02  0.1250227E+00
          2   -1    0    0  502    0  0.00000000000E+00  0.00000000000E+00  0.69238635536E+03  0.69238635536E+03  0.00000000000E+00 0. -1.
          1   -1    0    0  501    0 -0.00000000000E+00 -0.00000000000E+00 -0.10364446926E+04  0.10364446926E+04  0.00000000000E+00 0. -1.
         25    2    1    2    0    0 -0.86266353543E+01 -0.25238247767E+03  0.58790866246E+03  0.65194589995E+03  0.12500210876E+03 0.  0.
          2    1    1    2  501    0 -0.36346229332E+02  0.27185444444E+03 -0.97427305723E+03  0.10121432099E+04  0.00000000000E+00 0. -1.
          1    1    1    2  502    0  0.44972864687E+02 -0.19471966771E+02  0.42306057507E+02  0.64741938107E+02  0.00000000000E+00 0. -1.
         22    1    3    3    0    0  0.23977157393E+02 -0.19587674931E+03  0.31791474521E+03  0.37418229544E+03  0.00000000000E+00 0.  1.
         22    1    3    3    0    0 -0.32603792747E+02 -0.56505728353E+02  0.26999391725E+03  0.27776360451E+03  0.00000000000E+00 0.  1.
</event>
<event>
 7    1  0.2895750E-005  0.1005571E+03  0.7818608E-02  0.1333263E+00
          2   -1    0    0  502    0  0.00000000000E+00  0.00000000000E+00  0.23746963749E+03  0.23746963749E+03  0.00000000000E+00 0. -1.
          1   -1    0    0  501    0 -0.00000000000E+00 -0.00000000000E+00 -0.34367177134E+03  0.34367177134E+03  0.00000000000E+00 0. -1.
         25    2    1    2    0    0  0.13973276577E+03  0.74074186295E+02 -0.27839605718E+03  0.34371632768E+03  0.12499727340E+03 0.  0.
          2    1    1    2  501    0 -0.57352242285E+02 -0.21740831246E+02  0.40464520131E+02  0.73480070957E+02  0.00000000000E+00 0. -1.
          1    1    1    2  502    0 -0.82380523484E+02 -0.52333355050E+02  0.13172940320E+03  0.16394501020E+03  0.00000000000E+00 0. -1.
         22    1    3    3    0    0  0.34716624854E+01 -0.17008104480E+02 -0.99856630899E+02  0.10135420461E+03  0.00000000000E+00 0. -1.
         22    1    3    3    0    0  0.13626110328E+03  0.91082290775E+02 -0.17853942628E+03  0.24236212307E+03  0.00000000000E+00 0. -1.
</event>
<event>
 7    1  0.2895750E-005  0.3009978E+03  0.7818608E-02  0.1137886E+00
          2   -1    0    0  502    0  0.00000000000E+00  0.00000000000E+00  0.37821473057E+03  0.37821473057E+03  0.00000000000E+00 0. -1.
          1   -1    0    0  501    0 -0.00000000000E+00 -0.00000000000E+00 -0.14057152825E+04  0.14057152825E+04  0.00000000000E+00 0. -1.
         25    2    1    2    0    0 -0.33834749861E+03  0.93155074314E+02  0.17146664518E+03  0.41010039711E+03  0.12499851044E+03 0.  0.
          2    1    1    2  501    0  0.29501415235E+03  0.53752867216E+02 -0.11823275515E+04  0.12197627474E+04  0.00000000000E+00 0. -1.
          1    1    1    2  502    0  0.43333346262E+02 -0.14690794153E+03 -0.16639645578E+02  0.15406686856E+03  0.00000000000E+00 0. -1.
         22    1    3    3    0    0  0.14771231070E+01  0.16571288847E+02  0.29635688266E+02  0.33986225529E+02  0.00000000000E+00 0.  1.
         22    1    3    3    0    0 -0.33982462172E+03  0.76583785468E+02  0.14183095692E+03  0.37611417158E+03  0.00000000000E+00 0.  1.
</event>
<event>
 7    1  0.2895750E-005  0.8164817E+02  0.7818608E-02  0.1402399E+00
          2   -1    0    0  502    0  0.00000000000E+00  0.00000000000E+00  0.18257808321E+04  0.18257808321E+04  0.00000000000E+00 0. -1.
          1   -1    0    0  501    0 -0.00000000000E+00 -0.00000000000E+00 -0.17392861400E+03  0.17392861400E+03  0.00000000000E+00 0. -1.
         25    2    1    2    0    0  0.49161453473E+02  0.23418038485E+01  0.15914907656E+03  0.20827011480E+03  0.12500271836E+03 0.  0.
          2    1    1    2  501    0 -0.76261052941E+02 -0.35114901779E+02 -0.13727111278E+03  0.16091041895E+03  0.00000000000E+00 0. -1.
          1    1    1    2  502    0  0.27099599468E+02  0.32773097930E+02  0.16299742544E+04  0.16305289124E+04  0.00000000000E+00 0. -1.
         22    1    3    3    0    0  0.66639373509E+02  0.49666925040E+02  0.10968779855E+03  0.13761912183E+03  0.00000000000E+00 0.  1.
         22    1    3    3    0    0 -0.17477920036E+02 -0.47325121192E+02  0.49461278015E+02  0.70650992968E+02  0.00000000000E+00 0.  1.
</event>
<event>
 7    1  0.2895750E-005  0.6704168E+03  0.7818608E-02  0.1081884E+00
          2   -1    0    0  502    0  0.00000000000E+00  0.00000000000E+00  0.40867643017E+03  0.40867643017E+03  0.00000000000E+00 0. -1.
          1   -1    0    0  501    0 -0.00000000000E+00 -0.00000000000E+00 -0.24186999188E+04  0.24186999188E+04  0.00000000000E+00 0. -1.
         25    2    1    2    0    0  0.64187014679E+03 -0.17842642467E+03 -0.15238670134E+04  0.16678217159E+04  0.12500130866E+03 0.  0.
          2    1    1    2  501    0 -0.44307420274E+02 -0.13323617146E+03 -0.46449377380E+03  0.48525198688E+03  0.00000000000E+00 0. -1.
          1    1    1    2  502    0 -0.59756272652E+03  0.31166259613E+03 -0.21662701387E+02  0.67430264613E+03  0.00000000000E+00 0. -1.
         22    1    3    3    0    0  0.21719710204E+03 -0.58253392891E+02 -0.66841148051E+03  0.70522474871E+03  0.00000000000E+00 0.  1.
         22    1    3    3    0    0  0.42467304475E+03 -0.12017303178E+03 -0.85545553290E+03  0.96259696721E+03  0.00000000000E+00 0.  1.
</event>
<event>
 7    1  0.2895750E-005  0.3880343E+03  0.7818608E-02  0.1143777E+00
          2   -1    0    0  502    0  0.00000000000E+00  0.00000000000E+00  0.68132400287E+03  0.68132400287E+03  0.00000000000E+00 0. -1.
          1   -1    0    0  501    0 -0.00000000000E+00 -0.00000000000E+00 -0.17231346477E+04  0.17231346477E+04  0.00000000000E+00 0. -1.
         25    2    1    2    0    0  0.23970413696E+02  0.43063380049E+03 -0.70763681271E+03  0.83808987515E+03  0.12499891707E+03 0.  0.
          2    1    1    2  501    0  0.63276695872E+02 -0.36254111289E+03 -0.90916321885E+03  0.98082503908E+03  0.00000000000E+00 0. -1.
          1    1    1    2  502    0 -0.87247109568E+02 -0.68092687597E+02  0.57498938677E+03  0.58554373631E+03  0.00000000000E+00 0. -1.
         22    1    3    3    0    0  0.10791298107E+02  0.58596474333E+02 -0.19930953804E+03  0.20802473620E+03  0.00000000000E+00 0. -1.
         22    1    3    3    0    0  0.13179115589E+02  0.37203732615E+03 -0.50832727468E+03  0.63006513895E+03  0.00000000000E+00 0. -1.
</event>
<event>
 7    1  0.2895750E-005  0.1883468E+03  0.7818608E-02  0.1161682E+00
          2   -1    0    0  502    0  0.00000000000E+00  0.00000000000E+00  0.57413907135E+03  0.57413907135E+03  0.00000000000E+00 0. -1.
          1   -1    0    0  501    0 -0.00000000000E+00 -0.00000000000E+00 -0.26838392360E+03  0.26838392360E+03  0.00000000000E+00 0. -1.
         25    2    1    2    0    0  0.15525748226E+03 -0.11758749225E+03 -0.34026390531E+02  0.23391126319E+03  0.12499991865E+03 0.  0.
          2    1    1    2  501    0 -0.21107982565E+03 -0.62296834209E+02 -0.44481716812E-01  0.22008087224E+03  0.00000000000E+00 0. -1.
          1    1    1    2  502    0  0.55822343390E+02  0.17988432646E+03  0.33982602000E+03  0.38853085951E+03  0.00000000000E+00 0. -1.
         22    1    3    3    0    0  0.10838010674E+03 -0.13769300217E+03 -0.46713909242E+02  0.18134993714E+03  0.00000000000E+00 0. -1.
         22    1    3    3    0    0  0.46877375521E+02  0.20105509923E+02  0.12687518711E+02  0.52561326049E+02  0.00000000000E+00 0. -1.
</event>
<event>
 7    1  0.2895750E-005  0.3120692E+03  0.7818608E-02  0.1151068E+00
          2   -1    0    0  502    0  0.00000000000E+00  0.00000000000E+00  0.39076386487E+03  0.39076386487E+03  0.00000000000E+00 0. -1.
          1   -1    0    0  501    0 -0.00000000000E+00 -0.00000000000E+00 -0.13829457512E+04  0.13829457512E+04  0.00000000000E+00 0. -1.
         25    2    1    2    0    0  0.16922028216E+03 -0.38368238206E+03 -0.70043899369E+03  0.82588586508E+03  0.12500001626E+03 0.  0.
          2    1    1    2  501    0 -0.84936526796E+02  0.93307053095E+02 -0.54127900741E+03  0.55579077322E+03  0.00000000000E+00 0. -1.
          1    1    1    2  502    0 -0.84283755362E+02  0.29037532897E+03  0.24953611476E+03  0.39203297777E+03  0.00000000000E+00 0. -1.
         22    1    3    3    0    0  0.54777324140E+02 -0.98115177847E+02 -0.96564440756E+02  0.14816151519E+03  0.00000000000E+00 0.  1.
         22    1    3    3    0    0  0.11444295802E+03 -0.28556720422E+03 -0.60387455293E+03  0.67772434990E+03  0.00000000000E+00 0.  1.
</event>
<event>
 7    1  0.2895750E-005  0.3181233E+03  0.7818608E-02  0.1178188E+00
          2   -1    0    0  502    0  0.00000000000E+00  0.00000000000E+00  0.33008533883E+03  0.33008533883E+03  0.00000000000E+00 0. -1.
          1   -1    0    0  501    0 -0.00000000000E+00 -0.00000000000E+00 -0.14538947867E+04  0.14538947867E+04  0.00000000000E+00 0. -1.
         25    2    1    2    0    0 -0.10005456488E+03 -0.33420881012E+03 -0.18101925270E+03  0.41243130093E+03  0.12500065372E+03 0.  0.
          2    1    1    2  501    0  0.11865434134E+02  0.31389976142E+03 -0.11250381884E+04  0.11680688225E+04  0.00000000000E+00 0. -1.
          1    1    1    2  502    0  0.88189130742E+02  0.20309048695E+02  0.18224799320E+03  0.20348000213E+03  0.00000000000E+00 0. -1.
         22    1    3    3    0    0 -0.12564410579E+02 -0.24417167375E+03 -0.10893671011E+03  0.26766560759E+03  0.00000000000E+00 0. -1.
         22    1    3    3    0    0 -0.87490154298E+02 -0.90037136365E+02 -0.72082542588E+02  0.14476569335E+03  0.00000000000E+00 0. -1.
</event>
<event>
 7    1  0.2895750E-005  0.1516880E+03  0.7818608E-02  0.1202450E+00
          2   -1    0    0  502    0  0.00000000000E+00  0.00000000000E+00  0.21586177913E+04  0.21586177913E+04  0.00000000000E+00 0. -1.
          1   -1    0    0  501    0 -0.00000000000E+00 -0.00000000000E+00 -0.44345808567E+02  0.44345808567E+02  0.00000000000E+00 0. -1.
         25    2    1    2    0    0 -0.51900010948E+02  0.14112260341E+03  0.42729693635E+03  0.46991044373E+03  0.12499581187E+03 0.  0.
          2    1    1    2  501    0 -0.10659374924E+03 -0.98577030743E+02  0.26959240568E+03  0.30620209595E+03  0.00000000000E+00 0. -1.
          1    1    1    2  502    0  0.15849376018E+03 -0.42545572666E+02  0.14173826407E+04  0.14268510601E+04  0.00000000000E+00 0. -1.
         22    1    3    3    0    0 -0.27942444403E+02  0.10828015091E+03  0.13730036623E+03  0.17707840593E+03  0.00000000000E+00 0.  1.
         22    1    3    3    0    0 -0.23957566545E+02  0.32842452496E+02  0.28999657012E+03  0.29283203780E+03  0.00000000000E+00 0.  1.
</event>
<event>
 7    1  0.2895750E-005  0.2874310E+03  0.7818608E-02  0.1172920E+00
          2   -1    0    0  502    0  0.00000000000E+00  0.00000000000E+00  0.46482431833E+03  0.46482431833E+03  0.00000000000E+00 0. -1.
          1   -1    0    0  501    0 -0.00000000000E+00 -0.00000000000E+00 -0.20947786044E+04  0.20947786044E+04  0.00000000000E+00 0. -1.
         25    2    1    2    0    0  0.20788453949E+03 -0.28158022776E+03 -0.34643556751E+03  0.50808135881E+03  0.12500263319E+03 0.  0.
          2    1    1    2  501    0 -0.10437485648E+03  0.20241695196E+02 -0.16140959172E+04  0.16175937274E+04  0.00000000000E+00 0. -1.
          1    1    1    2  502    0 -0.10350968301E+03  0.26133853257E+03  0.33057719864E+03  0.43392783656E+03  0.00000000000E+00 0. -1.
         22    1    3    3    0    0  0.18069087124E+03 -0.25613694117E+03 -0.23842100122E+03  0.39382724310E+03  0.00000000000E+00 0.  1.
         22    1    3    3    0    0  0.27193668246E+02 -0.25443286590E+02 -0.10801456629E+03  0.11425411571E+03  0.00000000000E+00 0.  1.
</event>
<event>
 7    1  0.2895750E-005  0.6897619E+02  0.7818608E-02  0.1385237E+00
          2   -1    0    0  502    0  0.00000000000E+00  0.00000000000E+00  0.10479091244E+04  0.10479091244E+04  0.00000000000E+00 0. -1.
          1   -1    0    0  501    0 -0.00000000000E+00 -0.00000000000E+00 -0.38571120402E+02  0.38571120402E+02  0.00000000000E+00 0. -1.
         25    2    1    2    0    0 -0.34986356319E+02  0.58076289941E+02  0.60517091755E+03  0.62165457661E+03  0.12500269034E+03 0.  0.
          2    1    1    2  501    0  0.55602268573E+02  0.15555274898E+02  0.45025463431E+01  0.57912449191E+02  0.00000000000E+00 0. -1.
          1    1    1    2  502    0 -0.20615912255E+02 -0.73631564840E+02  0.39966454013E+03  0.40691321903E+03  0.00000000000E+00 0. -1.
         22    1    3    3    0    0 -0.42874003426E+01 -0.32817453741E+02  0.29845508873E+03  0.30028454349E+03  0.00000000000E+00 0. -1.
         22    1    3    3    0    0 -0.30698955976E+02  0.90893743682E+02  0.30671582882E+03  0.32137003312E+03  0.00000000000E+00 0. -1.
</event>
<event>
 7    1  0.2895750E-005  0.2666535E+03  0.7818608E-02  0.1220600E+00
          2   -1    0    0  502    0  0.00000000000E+00  0.00000000000E+00  0.10699888322E+04  0.10699888322E+04  0.00000000000E+00 0. -1.
          1   -1    0    0  501    0 -0.00000000000E+00 -0.00000000000E+00 -0.19667858753E+04  0.19667858753E+04  0.00000000000E+00 0. -1.
         25    2    1    2    0    0  0.62227071061E+02 -0.30684466972E+03  0.73915442163E+02  0.34512959329E+03  0.12500033548E+03 0.  0.
          2    1    1    2  501    0 -0.94900956938E+02  0.24712384291E+03 -0.18202430076E+04  0.18393914733E+04  0.00000000000E+00 0. -1.
          1    1    1    2  502    0  0.32673885877E+02  0.59720826813E+02  0.84953052239E+03  0.85225364091E+03  0.00000000000E+00 0. -1.
         22    1    3    3    0    0 -0.31739932775E+02 -0.80973605405E+02  0.47424913522E+02  0.99061952976E+02  0.00000000000E+00 0.  1.
         22    1    3    3    0    0  0.93967003835E+02 -0.22587106431E+03  0.26490528641E+02  0.24606764032E+03  0.00000000000E+00 0.  1.
</event>
<event>
 7    1  0.2895750E-005  0.1679687E+03  0.7818608E-02  0.1250167E+00
          2   -1    0    0  502    0  0.00000000000E+00  0.00000000000E+00  0.23725705395E+04  0.23725705395E+04  0.00000000000E+00 0. -1.
          1   -1    0    0  501    0 -0.00000000000E+00 -0.00000000000E+00 -0.74301915348E+02  0.74301915348E+02  0.00000000000E+00 0. -1.
         25    2    1    2    0    0 -0.27630007139E+02  0.22974219984E+03  0.14570551488E+04  0.14806012627E+04  0.12500198702E+03 0.  0.
          2    1    1    2  501    0 -0.15892440401E+02 -0.16279175454E+03  0.49998418371E+02  0.17103674122E+03  0.00000000000E+00 0. -1.
          1    1    1    2  502    0  0.43522447541E+02 -0.66950445302E+02  0.79121505706E+03  0.79523445101E+03  0.00000000000E+00 0. -1.
         22    1    3    3    0    0 -0.32267066836E+02  0.58985821436E+01  0.32264475479E+03  0.32430787019E+03  0.00000000000E+00 0.  1.
         22    1    3    3    0    0  0.46370596966E+01  0.22384361769E+03  0.11344103940E+04  0.11562933925E+04  0.00000000000E+00 0.  1.
</event>
<event>
 7    1  0.2895750E-005  0.1459290E+03  0.7818608E-02  0.1337451E+00
          2   -1    0    0  502    0  0.00000000000E+00  0.00000000000E+00  0.30372232838E+04  0.30372232838E+04  0.00000000000E+00 0. -1.
          1   -1    0    0  501    0 -0.00000000000E+00 -0.00000000000E+00 -0.11632838223E+03  0.11632838223E+03  0.00000000000E+00 0. -1.
         25    2    1    2    0    0  0.10756493409E+03 -0.88407061986E+02  0.15033268293E+04  0.15149270349E+04  0.12500536723E+03 0.  0.
          2    1    1    2  501    0 -0.19408752404E+02 -0.35828888662E+02 -0.10283245873E+03  0.11061158846E+03  0.00000000000E+00 0. -1.
          1    1    1    2  502    0 -0.88156181685E+02  0.12423595065E+03  0.15204005310E+04  0.15280130427E+04  0.00000000000E+00 0. -1.
         22    1    3    3    0    0  0.13073520475E+03 -0.83756086448E+02  0.14150187312E+04  0.14235114279E+04  0.00000000000E+00 0.  1.
         22    1    3    3    0    0 -0.23170270665E+02 -0.46509755378E+01  0.88308098138E+02  0.91415607053E+02  0.00000000000E+00 0.  1.
</event>
<event>
 7    1  0.2895750E-005  0.1235868E+03  0.7818608E-02  0.1350820E+00
          2   -1    0    0  502    0  0.00000000000E+00  0.00000000000E+00  0.36597548041E+03  0.36597548041E+03  0.00000000000E+00 0. -1.
          1   -1    0    0  501    0 -0.00000000000E+00 -0.00000000000E+00 -0.85862887852E+03  0.85862887852E+03  0.00000000000E+00 0. -1.
         25    2    1    2    0    0  0.10235868604E+03 -0.12120880493E+03 -0.15673948997E+03  0.25565923400E+03  0.12500200484E+03 0.  0.
          2    1    1    2  501    0 -0.39323432208E+02  0.17109959604E+02 -0.63998763881E+03  0.64142284093E+03  0.00000000000E+00 0. -1.
          1    1    1    2  502    0 -0.63035253834E+02  0.10409884532E+03  0.30407373068E+03  0.32752228399E+03  0.00000000000E+00 0. -1.
         22    1    3    3    0    0  0.25852893225E+02 -0.11677717147E+03 -0.12412849601E+03  0.17237506602E+03  0.00000000000E+00 0. -1.
         22    1    3    3    0    0  0.76505792816E+02 -0.44316334609E+01 -0.32610993969E+02  0.83284167987E+02  0.00000000000E+00 0. -1.
</event>
<event>
 7    1  0.2895750E-005  0.1102356E+03  0.7818608E-02  0.1327862E+00
          2   -1    0    0  502    0  0.00000000000E+00  0.00000000000E+00  0.28494196223E+03  0.28494196223E+03  0.00000000000E+00 0. -1.
          1   -1    0    0  501    0 -0.00000000000E+00 -0.00000000000E+00 -0.76487721813E+03  0.76487721813E+03  0.00000000000E+00 0. -1.
         25    2    1    2    0    0 -0.72275903553E+02  0.10466340204E+03 -0.82288131432E+00  0.17833612577E+03  0.12499945064E+03 0.  0.
          2    1    1    2  501    0  0.97234240532E+02 -0.51567400166E+02 -0.66629351938E+03  0.67532269936E+03  0.00000000000E+00 0. -1.
          1    1    1    2  502    0 -0.24958336979E+02 -0.53096001876E+02  0.18718114480E+03  0.19616035524E+03  0.00000000000E+00 0. -1.
         22    1    3    3    0    0  0.12849553341E+02 -0.14200052371E+02  0.23297487465E+02  0.30158339321E+02  0.00000000000E+00 0. -1.
         22    1    3    3    0    0 -0.85125456894E+02  0.11886345441E+03 -0.24120368779E+02  0.14817778645E+03  0.00000000000E+00 0. -1.
</event>
<event>
 7    1  0.2895750E-005  0.1331495E+03  0.7818608E-02  0.1255680E+00
          2   -1    0    0  502    0  0.00000000000E+00  0.00000000000E+00  0.84012897667E+03  0.84012897667E+03  0.00000000000E+00 0. -1.
          1   -1    0    0  501    0 -0.00000000000E+00 -0.00000000000E+00 -0.59125083602E+03  0.59125083602E+03  0.00000000000E+00 0. -1.
         25    2    1    2    0    0 -0.20579712003E+02 -0.99976514753E+02 -0.25172775881E+03  0.29902088618E+03  0.12501119057E+03 0.  0.
          2    1    1    2  501    0 -0.91706085561E+02  0.26156652415E+02 -0.30297041819E+03  0.31762438649E+03  0.00000000000E+00 0. -1.
          1    1    1    2  502    0  0.11228579756E+03  0.73819862338E+02  0.80357631765E+03  0.81473454002E+03  0.00000000000E+00 0. -1.
         22    1    3    3    0    0  0.42580664879E+02 -0.78968288378E+02 -0.10641013682E+03  0.13918412556E+03  0.00000000000E+00 0.  1.
         22    1    3    3    0    0 -0.63160376882E+02 -0.21008226375E+02 -0.14531762199E+03  0.15983676062E+03  0.00000000000E+00 0.  1.
</event>
<event>
 7    1  0.2895750E-005  0.2607941E+03  0.7818608E-02  0.1114245E+00
          2   -1    0    0  502    0  0.00000000000E+00  0.00000000000E+00  0.22802689640E+04  0.22802689640E+04  0.00000000000E+00 0. -1.
          1   -1    0    0  501    0 -0.00000000000E+00 -0.00000000000E+00 -0.15654850051E+04  0.15654850051E+04  0.00000000000E+00 0. -1.
         25    2    1    2    0    0 -0.11221997986E+03 -0.33645679618E+03  0.10818916029E+04  0.11453867586E+04  0.12499954731E+03 0.  0.
          2    1    1    2  501    0 -0.10129422680E+03  0.21406259847E+03 -0.15114343627E+04  0.15298748803E+04  0.00000000000E+00 0. -1.
          1    1    1    2  502    0  0.21351420666E+03  0.12239419771E+03  0.11443267186E+04  0.11704923302E+04  0.00000000000E+00 0. -1.
         22    1    3    3    0    0 -0.69134019819E+02 -0.26534894089E+03  0.95576248088E+03  0.99431961310E+03  0.00000000000E+00 0. -1.
         22    1    3    3    0    0 -0.43085960044E+02 -0.71107855292E+02  0.12612912203E+03  0.15106714554E+03  0.00000000000E+00 0. -1.
</event>
<event>
 7    1  0.2895750E-005  0.2118488E+03  0.7818608E-02  0.1371873E+00
          2   -1    0    0  502    0  0.00000000000E+00  0.00000000000E+00  0.21406514037E+04  0.21406514037E+04  0.00000000000E+00 0. -1.
          1   -1    0    0  501    0 -0.00000000000E+00 -0.00000000000E+00 -0.28370955627E+02  0.28370955627E+02  0.00000000000E+00 0. -1.
         25    2    1    2    0    0  0.42470411268E+02 -0.19927372902E+03  0.98683125953E+03  0.10153683749E+04  0.12499298779E+03 0.  0.
          2    1    1    2  501    0 -0.12488089044E+02 -0.16844053328E+02  0.29476080836E+02  0.36173385824E+02  0.00000000000E+00 0. -1.
          1    1    1    2  502    0 -0.29982322224E+02  0.21611778235E+03  0.10959731077E+04  0.11174805986E+04  0.00000000000E+00 0. -1.
         22    1    3    3    0    0  0.15589511494E+02 -0.55277265308E+02  0.58242252352E+03  0.58524747316E+03  0.00000000000E+00 0. -1.
         22    1    3    3    0    0  0.26880899774E+02 -0.14399646372E+03  0.40440873600E+03  0.43012090171E+03  0.00000000000E+00 0. -1.
</event>
<event>
 7    1  0.2895750E-005  0.3559500E+03  0.7818608E-02  0.1116148E+00
          2   -1    0    0  502    0  0.00000000000E+00  0.00000000000E+00  0.13983538573E+04  0.13983538573E+04  0.00000000000E+00 0. -1.
          1   -1    0    0  501    0 -0.00000000000E+00 -0.00000000000E+00 -0.34470823680E+03  0.34470823680E+03  0.00000000000E+00 0. -1.
         25    2    1    2    0    0 -0.29879189020E+03  0.38533319909E+03  0.79077034433E+03  0.93739192615E+03  0.12501047061E+03 0.  0.
          2    1    1    2  501    0  0.25818558225E+03 -0.22087800535E+03 -0.14087744121E+03  0.36782243212E+03  0.00000000000E+00 0. -1.
          1    1    1    2  502    0  0.40606307951E+02 -0.16445519374E+03  0.40375271736E+03  0.43784773583E+03  0.00000000000E+00 0. -1.
         22    1    3    3    0    0 -0.21349128153E+03  0.17432644750E+03  0.44467128126E+03  0.52316420555E+03  0.00000000000E+00 0.  1.
         22    1    3    3    0    0 -0.85300608673E+02  0.21100675159E+03  0.34609906307E+03  0.41422772060E+03  0.00000000000E+00 0.  1.
</event>
<event>
 7    1  0.2895750E-005  0.8651671E+02  0.7818608E-02  0.1466328E+00
          2   -1    0    0  502    0  0.00000000000E+00  0.00000000000E+00  0.23332315546E+04  0.23332315546E+04  0.00000000000E+00 0. -1.
          1   -1    0    0  501    0 -0.00000000000E+00 -0.00000000000E+00 -0.34587014061E+03  0.34587014061E+03  0.00000000000E+00 0. -1.
         25    2    1    2    0    0  0.77329248981E+02  0.49284568794E+02  0.35769425148E+03  0.38984430702E+03  0.12499849880E+03 0.  0.
          2    1    1    2  501    0  0.53493015499E+01 -0.24203946029E+02 -0.32837535617E+03  0.32930961202E+03  0.00000000000E+00 0. -1.
          1    1    1    2  502    0 -0.82678550531E+02 -0.25080622765E+02  0.19580425187E+04  0.19599477762E+04  0.00000000000E+00 0. -1.
         22    1    3    3    0    0  0.36146521744E+02  0.74589117990E+02  0.31376685718E+03  0.32453004209E+03  0.00000000000E+00 0.  1.
         22    1    3    3    0    0  0.41182727237E+02 -0.25304549197E+02  0.43927394308E+02  0.65314264930E+02  0.00000000000E+00 0.  1.
</event>
<event>
 7    1  0.2895750E-005  0.3801824E+03  0.7818608E-02  0.1263903E+00
          2   -1    0    0  502    0  0.00000000000E+00  0.00000000000E+00  0.11572438006E+04  0.11572438006E+04  0.00000000000E+00 0. -1.
          1   -1    0    0  501    0 -0.00000000000E+00 -0.00000000000E+00 -0.33422090904E+03  0.33422090904E+03  0.00000000000E+00 0. -1.
         25    2    1    2    0    0  0.36615371131E+03 -0.34987452350E+02  0.27937584505E+02  0.38948445456E+03  0.12499987838E+03 0.  0.
          2    1    1    2  501    0  0.11535556203E+02 -0.28563523302E+02 -0.11263289905E+03  0.11676949032E+03  0.00000000000E+00 0. -1.
          1    1    1    2  502    0 -0.37768926751E+03  0.63550975651E+02  0.90771820614E+03  0.98521076479E+03  0.00000000000E+00 0. -1.
         22    1    3    3    0    0  0.41791127528E+02 -0.40342964135E+02  0.29336941592E+02  0.65074643582E+02  0.00000000000E+00 0.  1.
         22    1    3    3    0    0  0.32436258378E+03  0.53555117857E+01 -0.13993570865E+01  0.32440981098E+03  0.00000000000E+00 0.  1.
</event>
<event>
 7    1  0.2895750E-005  0.1035960E+03  0.7818608E-02  0.1313786E+00
          2   -1    0    0  502    0  0.00000000000E+00  0.00000000000E+00  0.11547871720E+04  0.11547871720E+04  0.00000000000E+00 0. -1.
          1   -1    0    0  501    0 -0.00000000000E+00 -0.00000000000E+00 -0.20119984668E+03  0.20119984668E+03  0.00000000000E+00 0. -1.
         25    2    1    2    0    0  0.10818727725E+03 -0.11464761753E+02  0.88623242658E+03  0.90159224656E+03  0.12499894966E+03 0.  0.
          2    1    1    2  501    0 -0.28930253333E+02 -0.64602071818E+02 -0.17474515593E+03  0.18853714955E+03  0.00000000000E+00 0. -1.
          1    1    1    2  502    0 -0.79257023915E+02  0.76066833571E+02  0.24210005465E+03  0.26585762256E+03  0.00000000000E+00 0. -1.
         22    1    3    3    0    0  0.35466701578E+02  0.52861746193E+02  0.24911182373E+03  0.25711661139E+03  0.00000000000E+00 0. -1.
         22    1    3    3    0    0  0.72720575669E+02 -0.64326507946E+02  0.63712060285E+03  0.64447563517E+03  0.00000000000E+00 0. -1.
</event>
<event>
 7    1  0.2895750E-005  0.1363002E+03  0.7818608E-02  0.1297336E+00
          2   -1    0    0  502    0  0.00000000000E+00  0.00000000000E+00  0.17889491054E+04  0.17889491054E+04  0.00000000000E+00 0. -1.
          1   -1    0    0  501    0 -0.00000000000E+00 -0.00000000000E+00 -0.21293041765E+03  0.21293041765E+03  0.00000000000E+00 0. -1.
         25    2    1    2    0    0  0.85738662241E+02 -0.17431020742E+03  0.21278086471E+02  0.23197519281E+03  0.12499826600E+03 0.  0.
          2    1    1    2  501    0 -0.41156056266E+02  0.47071691685E+02 -0.95509392194E+02  0.11415607353E+03  0.00000000000E+00 0. -1.
          1    1    1    2  502    0 -0.44582605975E+02  0.12723851574E+03  0.16502499935E+04  0.16557482567E+04  0.00000000000E+00 0. -1.
         22    1    3    3    0    0  0.16949353613E+00 -0.89096929996E+02 -0.38700210345E+02  0.97139064971E+02  0.00000000000E+00 0. -1.
         22    1    3    3    0    0  0.85569168705E+02 -0.85213277427E+02  0.59978296816E+02  0.13483612784E+03  0.00000000000E+00 0. -1.
</event>
<event>
 7    1  0.2895750E-005  0.4020754E+03  0.7818608E-02  0.1210497E+00
          2   -1    0    0  502    0  0.00000000000E+00  0.00000000000E+00  0.17887393329E+04  0.17887393329E+04  0.00000000000E+00 0. -1.
          1   -1    0    0  501    0 -0.00000000000E+00 -0.00000000000E+00 -0.33052972421E+03  0.33052972421E+03  0.00000000000E+00 0. -1.
         25    2    1    2    0    0  0.36216173278E+03  0.92040305322E+02  0.32946213653E+03  0.51361796576E+03  0.12500230737E+03 0.  0.
          2    1    1    2  501    0 -0.39311364315E+03 -0.13161198408E+03 -0.57334135827E+02  0.41850597835E+03  0.00000000000E+00 0. -1.
          1    1    1    2  502    0  0.30951910367E+02  0.39571678757E+02  0.11860816080E+04  0.11871451130E+04  0.00000000000E+00 0. -1.
         22    1    3    3    0    0  0.11290404840E+03  0.23157297065E+02  0.32311092321E+02  0.11969791661E+03  0.00000000000E+00 0. -1.
         22    1    3    3    0    0  0.24925768438E+03  0.68883008257E+02  0.29715104421E+03  0.39392004915E+03  0.00000000000E+00 0. -1.
</event>
<event>
 7    1  0.2895750E-005  0.1997028E+03  0.7818608E-02  0.1269220E+00
          2   -1    0    0  502    0  0.00000000000E+00  0.00000000000E+00  0.21255157466E+03  0.21255157466E+03  0.00000000000E+00 0. -1.
          1   -1    0    0  501    0 -0.00000000000E+00 -0.00000000000E+00 -0.31516984305E+04  0.31516984305E+04  0.00000000000E+00 0. -1.
         25    2    1    2    0    0 -0.97679116028E+02  0.13629741252E+03 -0.50711094367E+02  0.21521332720E+03  0.12500786672E+03 0.  0.
          2    1    1    2  501    0 -0.24136440552E+02  0.50187506837E+02 -0.29230821302E+04  0.29236125758E+04  0.00000000000E+00 0. -1.
          1    1    1    2  502    0  0.12181555658E+03 -0.18648491936E+03  0.34646368701E+02  0.22542410217E+03  0.00000000000E+00 0. -1.
         22    1    3    3    0    0  0.19447405842E+02  0.55878953179E+01  0.17659677876E+02  0.26856849978E+02  0.00000000000E+00 0. -1.
         22    1    3    3    0    0 -0.11712652187E+03  0.13070951721E+03 -0.68370772243E+02  0.18835647722E+03  0.00000000000E+00 0. -1.
</event>
<event>
 7    1  0.2895750E-005  0.2042474E+03  0.7818608E-02  0.1239172E+00
          2   -1    0    0  502    0  0.00000000000E+00  0.00000000000E+00  0.47194076265E+03  0.47194076265E+03  0.00000000000E+00 0. -1.
          1   -1    0    0  501    0 -0.00000000000E+00 -0.00000000000E+00 -0.16346235310E+04  0.16346235310E+04  0.00000000000E+00 0. -1.
         25    2    1    2    0    0 -0.10212497028E+03 -0.13592889428E+03  0.67942477135E+02  0.22169246834E+03  0.12500078585E+03 0.  0.
          2    1    1    2  501    0  0.61416093959E+02  0.19696216131E+03 -0.15466974131E+04  0.15603970383E+04  0.00000000000E+00 0. -1.
          1    1    1    2  502    0  0.40708876324E+02 -0.61033267029E+02  0.31607216756E+03  0.32447478701E+03  0.00000000000E+00 0. -1.
         22    1    3    3    0    0 -0.10691016347E+03 -0.15653742871E+03  0.64636893434E+02  0.20027899948E+03  0.00000000000E+00 0.  1.
         22    1    3    3    0    0  0.47851931898E+01  0.20608534426E+02  0.33055837016E+01  0.21413468861E+02  0.00000000000E+00 0.  1.
</event>
<event>
 7    1  0.2895750E-005  0.1032761E+03  0.7818608E-02  0.1469331E+00
          2   -1    0    0  502    0  0.00000000000E+00  0.00000000000E+00  0.40117516046E+02  0.40117516046E+02  0.00000000000E+00 0. -1.
          1   -1    0    0  501    0 -0.00000000000E+00 -0.00000000000E+00 -0.25151327416E+04  0.25151327416E+04  0.00000000000E+00 0. -1.
         25    2    1    2    0    0  0.10561916711E+03  0.60576459420E+02 -0.32309216153E+03  0.36721026325E+03  0.12501966524E+03 0.  0.
          2    1    1    2  501    0 -0.91228273417E+02 -0.46227298266E+02 -0.21626455560E+04  0.21650624384E+04  0.00000000000E+00 0. -1.
          1    1    1    2  502    0 -0.14390893692E+02 -0.14349161154E+02  0.10722492001E+02  0.22977556045E+02  0.00000000000E+00 0. -1.
         22    1    3    3    0    0  0.12089749601E+03  0.80746453906E+02 -0.29801379101E+03  0.33158470108E+03  0.00000000000E+00 0. -1.
         22    1    3    3    0    0 -0.15278328902E+02 -0.20169994486E+02 -0.25078370516E+02  0.35625562161E+02  0.00000000000E+00 0. -1.
</event>
<event>
 7    1  0.2895750E-005  0.3252136E+03  0.7818608E-02  0.1136978E+00
          2   -1    0    0  502    0  0.00000000000E+00  0.00000000000E+00  0.11525657206E+04  0.11525657206E+04  0.00000000000E+00 0. -1.
          1   -1    0    0  501    0 -0.00000000000E+00 -0.00000000000E+00 -0.16664051200E+04  0.16664051200E+04  0.00000000000E+00 0. -1.
         25    2    1    2    0    0 -0.26733569858E+03 -0.15880372718E+03  0.54266099984E+02  0.33949443148E+03  0.12499863957E+03 0.  0.
          2    1    1    2  501    0  0.18214849355E+03  0.27406908880E+03 -0.15004839595E+04  0.15361458433E+04  0.00000000000E+00 0. -1.
          1    1    1    2  502    0  0.85187205031E+02 -0.11526536162E+03  0.93237846009E+03  0.94333056578E+03  0.00000000000E+00 0. -1.
         22    1    3    3    0    0 -0.23340341569E+03 -0.12818507546E+03 -0.29017781743E+01  0.26630243773E+03  0.00000000000E+00 0. -1.
         22    1    3    3    0    0 -0.33932282896E+02 -0.30618651715E+02  0.57167878158E+02  0.73191993746E+02  0.00000000000E+00 0. -1.
</event>
<event>
 7    1  0.2895750E-005  0.1946973E+03  0.7818608E-02  0.1271703E+00
          2   -1    0    0  502    0  0.00000000000E+00  0.00000000000E+00  0.51172607072E+03  0.51172607072E+03  0.00000000000E+00 0. -1.
          1   -1    0    0  501    0 -0.00000000000E+00 -0.00000000000E+00 -0.20756200943E+04  0.20756200943E+04  0.00000000000E+00 0. -1.
         25    2    1    2    0    0 -0.58377124692E+02 -0.24228826591E+03 -0.15352881928E+04  0.15604001571E+04  0.12500929041E+03 0.  0.
          2    1    1    2  501    0  0.19828931216E+02  0.52122941042E+02 -0.50733441049E+03  0.51039023459E+03  0.00000000000E+00 0. -1.
          1    1    1    2  502    0  0.38548193475E+02  0.19016532487E+03  0.47872857971E+03  0.51655577340E+03  0.00000000000E+00 0. -1.
         22    1    3    3    0    0 -0.73531206500E+02 -0.20770289855E+03 -0.14560316031E+04  0.14726083531E+04  0.00000000000E+00 0.  1.
         22    1    3    3    0    0  0.15154081808E+02 -0.34585367355E+02 -0.79256589744E+02  0.87791803993E+02  0.00000000000E+00 0.  1.
</event>
<event>
 7    1  0.2895750E-005  0.2715485E+03  0.7818608E-02  0.1113942E+00
          2   -1    0    0  502    0  0.00000000000E+00  0.00000000000E+00  0.18662297659E+04  0.18662297659E+04  0.00000000000E+00 0. -1.
          1   -1    0    0  501    0 -0.00000000000E+00 -0.00000000000E+00 -0.45071932729E+03  0.45071932729E+03  0.00000000000E+00 0. -1.
         25    2    1    2    0    0  0.37426073924E+03  0.87448421568E+02  0.57873495805E+03  0.70588690635E+03  0.12499538201E+03 0.  0.
          2    1    1    2  501    0 -0.24764918561E+03  0.10254395381E+03 -0.32830179428E+03  0.42382478658E+03  0.00000000000E+00 0. -1.
          1    1    1    2  502    0 -0.12661155362E+03 -0.18999237538E+03  0.11650772748E+04  0.11872374002E+04  0.00000000000E+00 0. -1.
         22    1    3    3    0    0  0.16188233806E+03  0.23742349208E+02  0.14436905151E+03  0.21820177257E+03  0.00000000000E+00 0.  1.
         22    1    3    3    0    0  0.21237840118E+03  0.63706072359E+02  0.43436590655E+03  0.48768513378E+03  0.00000000000E+00 0.  1.
</event>
<event>
 7    1  0.2895750E-005  0.8680236E+03  0.7818608E-02  0.1087085E+00
          2   -1    0    0  502    0  0.00000000000E+00  0.00000000000E+00  0.80235244264E+03  0.80235244264E+03  0.00000000000E+00 0. -1.
          1   -1    0    0  501    0 -0.00000000000E+00 -0.00000000000E+00 -0.16010879971E+04  0.16010879971E+04  0.00000000000E+00 0. -1.
         25    2    1    2    0    0 -0.72326142047E+03 -0.44717191059E+03 -0.92444143756E+03  0.12622546994E+04  0.12500061889E+03 0.  0.
          2    1    1    2  501    0  0.81750268879E+03  0.41038012635E+03 -0.73591321126E+02  0.91768086872E+03  0.00000000000E+00 0. -1.
          1    1    1    2  502    0 -0.94241268316E+02  0.36791784244E+02  0.19929720420E+03  0.22350487163E+03  0.00000000000E+00 0. -1.
         22    1    3    3    0    0 -0.19521152269E+03 -0.14777065029E+03 -0.19313774667E+03  0.31184273740E+03  0.00000000000E+00 0. -1.
         22    1    3    3    0    0 -0.52804989778E+03 -0.29940126031E+03 -0.73130369089E+03  0.95041196201E+03  0.00000000000E+00 0. -1.
</event>
<event>
 7    1  0.2895750E-005  0.9837808E+03  0.7818608E-02  0.1179103E+00
          2   -1    0    0  502    0  0.00000000000E+00  0.00000000000E+00  0.90359808245E+03  0.90359808245E+03  0.00000000000E+00 0. -1.
          1   -1    0    0  501    0 -0.00000000000E+00 -0.00000000000E+00 -0.16593104917E+04  0.16593104917E+04  0.00000000000E+00 0. -1.
         25    2    1    2    0    0 -0.99278528685E+03 -0.10150424822E+03 -0.10848578585E+04  0.14793503673E+04  0.12504078507E+03 0.  0.
          2    1    1    2  501    0  0.20375884190E+02 -0.20584475784E+02 -0.28175357336E+02  0.40407277326E+02  0.00000000000E+00 0. -1.
          1    1    1    2  502    0  0.97240940266E+03  0.12208872400E+03  0.35732080659E+03  0.10431509295E+04  0.00000000000E+00 0. -1.
         22    1    3    3    0    0 -0.23603991094E+03 -0.76751718779E+02 -0.28624597623E+03  0.37886993124E+03  0.00000000000E+00 0. -1.
         22    1    3    3    0    0 -0.75674537591E+03 -0.24752529440E+02 -0.79861188230E+03  0.11004804361E+04  0.00000000000E+00 0. -1.
</event>
<event>
 7    1  0.2895750E-005  0.1715904E+03  0.7818608E-02  0.1237507E+00
          2   -1    0    0  502    0  0.00000000000E+00  0.00000000000E+00  0.12438584946E+04  0.12438584946E+04  0.00000000000E+00 0. -1.
          1   -1    0    0  501    0 -0.00000000000E+00 -0.00000000000E+00 -0.40995176543E+04  0.40995176543E+04  0.00000000000E+00 0. -1.
         25    2    1    2    0    0 -0.22480130305E+03 -0.11079917218E+03 -0.21009675280E+04  0.21195523451E+04  0.12500203054E+03 0.  0.
          2    1    1    2  501    0  0.59360648187E+02  0.66069818653E+02 -0.19823108068E+04  0.19842996352E+04  0.00000000000E+00 0. -1.
          1    1    1    2  502    0  0.16544065487E+03  0.44729353532E+02  0.12276191751E+04  0.12395241685E+04  0.00000000000E+00 0. -1.
         22    1    3    3    0    0  0.86086399189E+01 -0.43467945924E+01 -0.14762850090E+02  0.17633633978E+02  0.00000000000E+00 0. -1.
         22    1    3    3    0    0 -0.23340994297E+03 -0.10645237759E+03 -0.20862046779E+04  0.21019187111E+04  0.00000000000E+00 0. -1.
</event>
<event>
 7    1  0.2895750E-005  0.8435832E+02  0.7818608E-02  0.1447544E+00
          2   -1    0    0  502    0  0.00000000000E+00  0.00000000000E+00  0.11186651278E+03  0.11186651278E+03  0.00000000000E+00 0. -1.
          1   -1    0    0  501    0 -0.00000000000E+00 -0.00000000000E+00 -0.34402838978E+03  0.34402838978E+03  0.00000000000E+00 0. -1.
         25    2    1    2    0    0  0.60004670523E+02 -0.23747623261E+02 -0.14356264707E+03  0.20099554787E+03  0.12499786612E+03 0.  0.
          2    1    1    2  501    0 -0.88684172865E+02  0.28998152391E+02 -0.15582469382E+03  0.18162354077E+03  0.00000000000E+00 0. -1.
          1    1    1    2  502    0  0.28679502342E+02 -0.52505291299E+01  0.67225463891E+02  0.73275813923E+02  0.00000000000E+00 0. -1.
         22    1    3    3    0    0  0.65108968218E+02 -0.50945784710E+02 -0.36423086830E+02  0.90339869251E+02  0.00000000000E+00 0.  1.
         22    1    3    3    0    0 -0.51042976948E+01  0.27198161449E+02 -0.10713956025E+03  0.11065567862E+03  0.00000000000E+00 0.  1.
</event>
<event>
 7    1  0.2895750E-005  0.2427157E+03  0.7818608E-02  0.1190437E+00
          2   -1    0    0  502    0  0.00000000000E+00  0.00000000000E+00  0.11613400030E+04  0.11613400030E+04  0.00000000000E+00 0. -1.
          1   -1    0    0  501    0 -0.00000000000E+00 -0.00000000000E+00 -0.23546208552E+03  0.23546208552E+03  0.00000000000E+00 0. -1.
         25    2    1    2    0    0 -0.10497603840E+02  0.22014581018E+03  0.18988801954E+03  0.31663217145E+03  0.12499637838E+03 0.  0.
          2    1    1    2  501    0  0.11347111558E+03 -0.23020451517E+03 -0.71225363009E+02  0.26635101879E+03  0.00000000000E+00 0. -1.
          1    1    1    2  502    0 -0.10297351174E+03  0.10058704987E+02  0.80721526100E+03  0.81381889831E+03  0.00000000000E+00 0. -1.
         22    1    3    3    0    0 -0.12570532357E+02  0.23329430137E+03  0.19290982111E+03  0.30298258765E+03  0.00000000000E+00 0. -1.
         22    1    3    3    0    0  0.20729285172E+01 -0.13148491193E+02 -0.30218015729E+01  0.13649583805E+02  0.00000000000E+00 0. -1.
</event>
<event>
 7    1  0.2895750E-005  0.3368063E+02  0.7818608E-02  0.1580341E+00
          2   -1    0    0  502    0  0.00000000000E+00  0.00000000000E+00  0.19805203431E+04  0.19805203431E+04  0.00000000000E+00 0. -1.
          1   -1    0    0  501    0 -0.00000000000E+00 -0.00000000000E+00 -0.13062161783E+03  0.13062161783E+03  0.00000000000E+00 0. -1.
         25    2    1    2    0    0  0.30196034069E+02 -0.55182075977E+02  0.12645602951E+03  0.18860876501E+03  0.12500110742E+03 0.  0.
          2    1    1    2  501    0 -0.17342946927E+02  0.24205616754E+02 -0.97160505813E+02  0.10162112763E+03  0.00000000000E+00 0. -1.
          1    1    1    2  502    0 -0.12853087143E+02  0.30976459223E+02  0.18206032016E+04  0.18209120683E+04  0.00000000000E+00 0. -1.
         22    1    3    3    0    0 -0.37881836427E+02 -0.44486313126E+02  0.97905707001E+02  0.11401575790E+03  0.00000000000E+00 0.  1.
         22    1    3    3    0    0  0.68077870496E+02 -0.10695762851E+02  0.28550322511E+02  0.74593007110E+02  0.00000000000E+00 0.  1.
</event>
<event>
 7    1  0.2895750E-005  0.6122281E+03  0.7818608E-02  0.1070132E+00
          2   -1    0    0  502    0  0.00000000000E+00  0.00000000000E+00  0.15946875519E+04  0.15946875519E+04  0.00000000000E+00 0. -1.
          1   -1    0    0  501    0 -0.00000000000E+00 -0.00000000000E+00 -0.80709999053E+03  0.80709999053E+03  0.00000000000E+00 0. -1.
         25    2    1    2    0    0  0.15973825270E+03  0.61596599659E+03 -0.25567225650E+03  0.69708252987E+03  0.12500132949E+03 0.  0.
          2    1    1    2  501    0  0.19475937072E+02 -0.59581595030E+03 -0.48543542249E+02  0.59810737686E+03  0.00000000000E+00 0. -1.
          1    1    1    2  502    0 -0.17921418978E+03 -0.20150046293E+02  0.10918033602E+04  0.11065976357E+04  0.00000000000E+00 0. -1.
         22    1    3    3    0    0  0.62013039456E+02  0.46103185567E+03 -0.17691230897E+03  0.49768861156E+03  0.00000000000E+00 0. -1.
         22    1    3    3    0    0  0.97725213247E+02  0.15493414092E+03 -0.78759947530E+02  0.19939391832E+03  0.00000000000E+00 0. -1.
</event>
<event>
 7    1  0.2895750E-005  0.1559629E+04  0.7818608E-02  0.1049244E+00
          2   -1    0    0  502    0  0.00000000000E+00  0.00000000000E+00  0.22217332478E+04  0.22217332478E+04  0.00000000000E+00 0. -1.
          1   -1    0    0  501    0 -0.00000000000E+00 -0.00000000000E+00 -0.22996623355E+04  0.22996623355E+04  0.00000000000E+00 0. -1.
         25    2    1    2    0    0  0.13768858715E+04 -0.87882839168E+03 -0.69746575554E+03  0.17805125671E+04  0.12494989509E+03 0.  0.
          2    1    1    2  501    0 -0.79857405624E+02  0.51170353174E+02 -0.70459548199E+03  0.71095035236E+03  0.00000000000E+00 0. -1.
          1    1    1    2  502    0 -0.12970284658E+04  0.82765803851E+03  0.13241321498E+04  0.20299326639E+04  0.00000000000E+00 0. -1.
         22    1    3    3    0    0  0.22702881253E+03 -0.20243508933E+03 -0.12956035683E+03  0.33061750282E+03  0.00000000000E+00 0.  1.
         22    1    3    3    0    0  0.11498570589E+04 -0.67639330236E+03 -0.56790539871E+03  0.14498950642E+04  0.00000000000E+00 0.  1.
</event>
<event>
 7    1  0.2895750E-005  0.2143867E+03  0.7818608E-02  0.1283978E+00
          2   -1    0    0  502    0  0.00000000000E+00  0.00000000000E+00  0.11430310155E+03  0.11430310155E+03  0.00000000000E+00 0. -1.
          1   -1    0    0  501    0 -0.00000000000E+00 -0.00000000000E+00 -0.27862424631E+04  0.27862424631E+04  0.00000000000E+00 0. -1.
         25    2    1    2    0    0 -0.76567505001E+02 -0.19968935341E+03 -0.69004447295E+03  0.73316098000E+03  0.12500090906E+03 0.  0.
          2    1    1    2  501    0  0.33497442486E+02  0.21287735960E+03 -0.20632065547E+04  0.20744300751E+04  0.00000000000E+00 0. -1.
          1    1    1    2  502    0  0.43070062514E+02 -0.13188006192E+02  0.81311666155E+02  0.92954509548E+02  0.00000000000E+00 0. -1.
         22    1    3    3    0    0 -0.54331677978E+02 -0.79886389655E+02 -0.48594573856E+03  0.49545638286E+03  0.00000000000E+00 0. -1.
         22    1    3    3    0    0 -0.22235827022E+02 -0.11980296375E+03 -0.20409873439E+03  0.23770459715E+03  0.00000000000E+00 0. -1.
</event>
<event>
 7    1  0.2895750E-005  0.1923674E+03  0.7818608E-02  0.1275823E+00
          2   -1    0    0  502    0  0.00000000000E+00  0.00000000000E+00  0.31244492710E+04  0.31244492710E+04  0.00000000000E+00 0. -1.
          1   -1    0    0  501    0 -0.00000000000E+00 -0.00000000000E+00 -0.51448492588E+03  0.51448492588E+03  0.00000000000E+00 0. -1.
         25    2    1    2    0    0 -0.18197627858E+03  0.63491491049E+02 -0.32594940789E+03  0.39876701895E+03  0.12500233394E+03 0.  0.
          2    1    1    2  501    0  0.19622885632E+03 -0.11146037411E+02 -0.88298485592E+02  0.21546837531E+03  0.00000000000E+00 0. -1.
          1    1    1    2  502    0 -0.14252577734E+02 -0.52345453638E+02  0.30242122386E+04  0.30246988026E+04  0.00000000000E+00 0. -1.
         22    1    3    3    0    0 -0.49172957947E+02  0.59730107616E+02 -0.20495551524E+03  0.21907174345E+03  0.00000000000E+00 0. -1.
         22    1    3    3    0    0 -0.13280332064E+03  0.37613834327E+01 -0.12099389265E+03  0.17969527550E+03  0.00000000000E+00 0. -1.
</event>
<event>
 7    1  0.2895750E-005  0.5063735E+03  0.7818608E-02  0.1204661E+00
          2   -1    0    0  502    0  0.00000000000E+00  0.00000000000E+00  0.18095684500E+04  0.18095684500E+04  0.00000000000E+00 0. -1.
          1   -1    0    0  501    0 -0.00000000000E+00 -0.00000000000E+00 -0.21051294717E+03  0.21051294717E+03  0.00000000000E+00 0. -1.
         25    2    1    2    0    0 -0.49895074828E+03  0.17820874983E+03  0.11694931553E+04  0.12899808251E+04  0.12500432480E+03 0.  0.
          2    1    1    2  501    0  0.47813293209E+03 -0.14119486244E+03  0.27406801643E+03  0.56891156392E+03  0.00000000000E+00 0. -1.
          1    1    1    2  502    0  0.20817816191E+02 -0.37013887384E+02  0.15549433110E+03  0.16118900811E+03  0.00000000000E+00 0. -1.
         22    1    3    3    0    0 -0.12342021030E+03  0.10162177481E+03  0.30575801192E+03  0.34503260032E+03  0.00000000000E+00 0.  1.
         22    1    3    3    0    0 -0.37553053798E+03  0.76586975015E+02  0.86373514337E+03  0.94494822482E+03  0.00000000000E+00 0.  1.
</event>
<event>
 7    1  0.2895750E-005  0.7965546E+02  0.7818608E-02  0.1405531E+00
          2   -1    0    0  502    0  0.00000000000E+00  0.00000000000E+00  0.77360073549E+03  0.77360073549E+03  0.00000000000E+00 0. -1.
          1   -1    0    0  501    0 -0.00000000000E+00 -0.00000000000E+00 -0.33032793302E+02  0.33032793302E+02  0.00000000000E+00 0. -1.
         25    2    1    2    0    0 -0.45410754702E+01  0.11511503612E+03  0.59787035660E+03  0.62156751300E+03  0.12500046807E+03 0.  0.
          2    1    1    2  501    0  0.13129065384E+01 -0.72709511202E+02  0.10788677202E+03  0.13010746451E+03  0.00000000000E+00 0. -1.
          1    1    1    2  502    0  0.32281689318E+01 -0.42405524916E+02  0.34810813574E+02  0.54958551288E+02  0.00000000000E+00 0. -1.
         22    1    3    3    0    0 -0.48736745487E+02  0.80260292672E+02  0.21538904109E+03  0.23496685716E+03  0.00000000000E+00 0.  1.
         22    1    3    3    0    0  0.44195670017E+02  0.34854743446E+02  0.38248131551E+03  0.38660065584E+03  0.00000000000E+00 0.  1.
</event>
<event>
 7    1  0.2895750E-005  0.1300664E+03  0.7818608E-02  0.1407980E+00
          2   -1    0    0  502    0  0.00000000000E+00  0.00000000000E+00  0.75273424140E+02  0.75273424140E+02  0.00000000000E+00 0. -1.
          1   -1    0    0  501    0 -0.00000000000E+00 -0.00000000000E+00 -0.44021004986E+03  0.44021004986E+03  0.00000000000E+00 0. -1.
         25    2    1    2    0    0  0.79093666882E+02  0.12226126495E+03 -0.23131471808E+03  0.30055820185E+03  0.12500043540E+03 0.  0.
          2    1    1    2  501    0 -0.10517915146E+02 -0.23284578303E+02  0.10060141131E+02  0.27459143565E+02  0.00000000000E+00 0. -1.
          1    1    1    2  502    0 -0.68575751736E+02 -0.98976686651E+02 -0.14368204877E+03  0.18746612858E+03  0.00000000000E+00 0. -1.
         22    1    3    3    0    0  0.10593851982E+02  0.79995923271E+02 -0.34198786048E+02  0.87642081256E+02  0.00000000000E+00 0. -1.
         22    1    3    3    0    0  0.68499814900E+02  0.42265341683E+02 -0.19711593203E+03  0.21291612060E+03  0.00000000000E+00 0. -1.
</event>
<event>
 7    1  0.2895750E-005  0.1903140E+03  0.7818608E-02  0.1202010E+00
          2   -1    0    0  502    0  0.00000000000E+00  0.00000000000E+00  0.63716342910E+03  0.63716342910E+03  0.00000000000E+00 0. -1.
          1   -1    0    0  501    0 -0.00000000000E+00 -0.00000000000E+00 -0.19061897879E+04  0.19061897879E+04  0.00000000000E+00 0. -1.
         25    2    1    2    0    0 -0.48368027910E+02 -0.24797466524E+03  0.11332843083E+02  0.28210642820E+03  0.12499881110E+03 0.  0.
          2    1    1    2  501    0 -0.61097289813E+02  0.98927377080E+02 -0.17513744435E+04  0.17552298842E+04  0.00000000000E+00 0. -1.
          1    1    1    2  502    0  0.10946531772E+03  0.14904728816E+03  0.47101524167E+03  0.50601690463E+03  0.00000000000E+00 0. -1.
         22    1    3    3    0    0 -0.25823289295E+02 -0.21011959201E+03  0.56395392313E+02  0.21908337566E+03  0.00000000000E+00 0. -1.
         22    1    3    3    0    0 -0.22544738615E+02 -0.37855073227E+02 -0.45062549230E+02  0.63023052539E+02  0.00000000000E+00 0. -1.
</event>
<event>
 7    1  0.2895750E-005  0.4489920E+03  0.7818608E-02  0.1050555E+00
          2   -1    0    0  502    0  0.00000000000E+00  0.00000000000E+00  0.11714941436E+04  0.11714941436E+04  0.00000000000E+00 0. -1.
          1   -1    0    0  501    0 -0.00000000000E+00 -0.00000000000E+00 -0.87009285203E+03  0.87009285203E+03  0.00000000000E+00 0. -1.
         25    2    1    2    0    0  0.66291912776E+03  0.18788221023E+03 -0.17597349800E+03  0.72204822828E+03  0.12500190839E+03 0.  0.
          2    1    1    2  501    0 -0.34240798871E+03 -0.14513163028E+03 -0.29985972032E+03  0.47772614824E+03  0.00000000000E+00 0. -1.
          1    1    1    2  502    0 -0.32051113904E+03 -0.42750579954E+02  0.77723450986E+03  0.84181261909E+03  0.00000000000E+00 0. -1.
         22    1    3    3    0    0  0.15463724254E+03  0.78447379765E+02 -0.78996937361E+00  0.17339922787E+03  0.00000000000E+00 0.  1.
         22    1    3    3    0    0  0.50828188521E+03  0.10943483047E+03 -0.17518352862E+03  0.54864900041E+03  0.00000000000E+00 0.  1.
</event>
<event>
 7    1  0.3484892E-005  0.1263670E+03  0.7818608E-02  0.1239400E+00
          2   -1    0    0  502    0  0.00000000000E+00  0.00000000000E+00  0.11548847068E+04  0.11548847068E+04  0.00000000000E+00 0. -1.
          1   -1    0    0  501    0 -0.00000000000E+00 -0.00000000000E+00 -0.60986275793E+03  0.60986275793E+03  0.00000000000E+00 0. -1.
         25    2    1    2    0    0  0.18062177271E+03 -0.35675416714E+02 -0.15150315010E+03  0.26921386398E+03  0.12500375969E+03 0.  0.
          2    1    1    2  501    0 -0.10080444281E+03 -0.61922340171E+02 -0.38700975204E+03  0.40468810222E+03  0.00000000000E+00 0. -1.
          1    1    1    2  502    0 -0.79817329902E+02  0.97597756885E+02  0.10835348510E+04  0.10908454985E+04  0.00000000000E+00 0. -1.
         22    1    3    3    0    0  0.13285496834E+02  0.12849753843E+02 -0.77920962978E+02  0.80083063574E+02  0.00000000000E+00 0. -1.
         22    1    3    3    0    0  0.16733627588E+03 -0.48525170557E+02 -0.73582187121E+02  0.18913080041E+03  0.00000000000E+00 0. -1.
</event>
<event>
 7    1  0.2895750E-005  0.1416364E+03  0.7818608E-02  0.1221097E+00
          2   -1    0    0  502    0  0.00000000000E+00  0.00000000000E+00  0.44477523565E+03  0.44477523565E+03  0.00000000000E+00 0. -1.
          1   -1    0    0  501    0 -0.00000000000E+00 -0.00000000000E+00 -0.22881056092E+03  0.22881056092E+03  0.00000000000E+00 0. -1.
         25    2    1    2    0    0  0.34948249888E+02  0.72291737747E+02  0.39167786770E+02  0.15364447090E+03  0.12500012961E+03 0.  0.
          2    1    1    2  501    0  0.12231792981E+03 -0.71408543539E+02 -0.11896298512E+03  0.18496769413E+03  0.00000000000E+00 0. -1.
          1    1    1    2  502    0 -0.15726617969E+03 -0.88319420761E+00  0.29575987308E+03  0.33497363155E+03  0.00000000000E+00 0. -1.
         22    1    3    3    0    0 -0.43044356805E+02  0.21513995944E+02  0.36746475040E+02  0.60547271632E+02  0.00000000000E+00 0. -1.
         22    1    3    3    0    0  0.77992606693E+02  0.50777741803E+02  0.24213117300E+01  0.93097199270E+02  0.00000000000E+00 0. -1.
</event>
<event>
 7    1  0.2895750E-005  0.6301418E+02  0.7818608E-02  0.1452511E+00
          2   -1    0    0  502    0  0.00000000000E+00  0.00000000000E+00  0.33955215182E+04  0.33955215182E+04  0.00000000000E+00 0. -1.
          1   -1    0    0  501    0 -0.00000000000E+00 -0.00000000000E+00 -0.13254101711E+03  0.13254101711E+03  0.00000000000E+00 0. -1.
         25    2    1    2    0    0  0.39972518751E+02 -0.24376448007E+02  0.29940898825E+03  0.32781582697E+03  0.12500184277E+03 0.  0.
          2    1    1    2  501    0 -0.15466757649E+02 -0.34303792972E+02 -0.11500953941E+03  0.12100894579E+03  0.00000000000E+00 0. -1.
          1    1    1    2  502    0 -0.24505761102E+02  0.58680240979E+02  0.30785810523E+04  0.30792377626E+04  0.00000000000E+00 0. -1.
         22    1    3    3    0    0  0.18631860428E+02  0.27855138329E+02  0.25171399806E+03  0.25393501486E+03  0.00000000000E+00 0.  1.
         22    1    3    3    0    0  0.21340658322E+02 -0.52231586336E+02  0.47694990188E+02  0.73880812109E+02  0.00000000000E+00 0.  1.
</event>
<event>
 7    1  0.2895750E-005  0.1336400E+03  0.7818608E-02  0.1248606E+00
          2   -1    0    0  502    0  0.00000000000E+00  0.00000000000E+00  0.66625670054E+03  0.66625670054E+03  0.00000000000E+00 0. -1.
          1   -1    0    0  501    0 -0.00000000000E+00 -0.00000000000E+00 -0.31245564096E+03  0.31245564096E+03  0.00000000000E+00 0. -1.
         25    2    1    2    0    0  0.22140035040E+03 -0.69510941484E+02 -0.15974510507E+03  0.30820992835E+03  0.12499990078E+03 0.  0.
          2    1    1    2  501    0 -0.98891410536E+02  0.24760298080E+02 -0.34133607791E+02  0.10750668174E+03  0.00000000000E+00 0. -1.
          1    1    1    2  502    0 -0.12250893987E+03  0.44750643404E+02  0.54767977244E+03  0.56299573140E+03  0.00000000000E+00 0. -1.
         22    1    3    3    0    0  0.21144010367E+03 -0.91854318791E+02 -0.16461038532E+03  0.28326791607E+03  0.00000000000E+00 0. -1.
         22    1    3    3    0    0  0.99602467305E+01  0.22343377308E+02  0.48652802507E+01  0.24942012276E+02  0.00000000000E+00 0. -1.
</event>
<event>
 7    1  0.2895750E-005  0.2597220E+03  0.7818608E-02  0.1229213E+00
          2   -1    0    0  502    0  0.00000000000E+00  0.00000000000E+00  0.50233897629E+03  0.50233897629E+03  0.00000000000E+00 0. -1.
          1   -1    0    0  501    0 -0.00000000000E+00 -0.00000000000E+00 -0.10033919701E+04  0.10033919701E+04  0.00000000000E+00 0. -1.
         25    2    1    2    0    0  0.19730350727E+02 -0.22029784700E+03 -0.17773680590E+03  0.31005800580E+03  0.12500066663E+03 0.  0.
          2    1    1    2  501    0 -0.45131364687E+02 -0.45231988453E+02 -0.71715981259E+03  0.72000067337E+03  0.00000000000E+00 0. -1.
          1    1    1    2  502    0  0.25401013960E+02  0.26552983545E+03  0.39384362472E+03  0.47567226718E+03  0.00000000000E+00 0. -1.
         22    1    3    3    0    0 -0.26543255143E+02 -0.76227371323E+01  0.21376190543E+01  0.27698735173E+02  0.00000000000E+00 0. -1.
         22    1    3    3    0    0  0.46273605870E+02 -0.21267510987E+03 -0.17987442495E+03  0.28235927063E+03  0.00000000000E+00 0. -1.
</event>
<event>
 7    1  0.2895750E-005  0.6723519E+02  0.7818608E-02  0.1490348E+00
          2   -1    0    0  502    0  0.00000000000E+00  0.00000000000E+00  0.22132620641E+04  0.22132620641E+04  0.00000000000E+00 0. -1.
          1   -1    0    0  501    0 -0.00000000000E+00 -0.00000000000E+00 -0.16458982658E+02  0.16458982658E+02  0.00000000000E+00 0. -1.
         25    2    1    2    0    0 -0.50864067450E+02  0.19538746639E+02  0.10457969424E+04  0.10546495115E+04  0.12500172557E+03 0.  0.
          2    1    1    2  501    0  0.68777561780E+02  0.54006735774E+00  0.87835268181E+02  0.11156020354E+03  0.00000000000E+00 0. -1.
          1    1    1    2  502    0 -0.17913494331E+02 -0.20078813997E+02  0.10631708709E+04  0.10635113318E+04  0.00000000000E+00 0. -1.
         22    1    3    3    0    0  0.57629419172E+01  0.62225483087E+02  0.38231829125E+03  0.38739191792E+03  0.00000000000E+00 0.  1.
         22    1    3    3    0    0 -0.56627009367E+02 -0.42686736448E+02  0.66347865116E+03  0.66725759359E+03  0.00000000000E+00 0.  1.
</event>
<event>
 7    1  0.2895750E-005  0.3795448E+03  0.7818608E-02  0.1251000E+00
          2   -1    0    0  502    0  0.00000000000E+00  0.00000000000E+00  0.11648219490E+04  0.11648219490E+04  0.00000000000E+00 0. -1.
          1   -1    0    0  501    0 -0.00000000000E+00 -0.00000000000E+00 -0.11473656360E+04  0.11473656360E+04  0.00000000000E+00 0. -1.
         25    2    1    2    0    0  0.16677315218E+03  0.35666102265E+03  0.50963140487E+02  0.41622428546E+03  0.12500017902E+03 0.  0.
          2    1    1    2  501    0  0.19496067198E+02 -0.29123695264E+02 -0.92627459980E+03  0.92693738758E+03  0.00000000000E+00 0. -1.
          1    1    1    2  502    0 -0.18626921938E+03 -0.32753732738E+03  0.89276777231E+03  0.96902591204E+03  0.00000000000E+00 0. -1.
         22    1    3    3    0    0 -0.15192655413E+02  0.77409509500E+02  0.20639426541E+02  0.81541614330E+02  0.00000000000E+00 0. -1.
         22    1    3    3    0    0  0.18196580760E+03  0.27925151315E+03  0.30323713945E+02  0.33468267113E+03  0.00000000000E+00 0. -1.
</event>
<event>
 7    1  0.2895750E-005  0.1916623E+03  0.7818608E-02  0.1175530E+00
          2   -1    0    0  502    0  0.00000000000E+00  0.00000000000E+00  0.10899346559E+04  0.10899346559E+04  0.00000000000E+00 0. -1.
          1   -1    0    0  501    0 -0.00000000000E+00 -0.00000000000E+00 -0.18033367924E+04  0.18033367924E+04  0.00000000000E+00 0. -1.
         25    2    1    2    0    0  0.83714449852E+02 -0.29635938859E+03  0.58636706435E+03  0.67400879815E+03  0.12499811802E+03 0.  0.
          2    1    1    2  501    0 -0.19292770897E+02  0.15358168280E+03 -0.17426432096E+04  0.17495041870E+04  0.00000000000E+00 0. -1.
          1    1    1    2  502    0 -0.64421678956E+02  0.14277770579E+03  0.44287400881E+03  0.46975846312E+03  0.00000000000E+00 0. -1.
         22    1    3    3    0    0  0.15940631710E+02 -0.24747186739E+03  0.45826494671E+03  0.52105968014E+03  0.00000000000E+00 0.  1.
         22    1    3    3    0    0  0.67773818142E+02 -0.48887521202E+02  0.12810211765E+03  0.15294911801E+03  0.00000000000E+00 0.  1.
</event>
<event>
 7    1  0.2895750E-005  0.5045440E+03  0.7818608E-02  0.1161781E+00
          2   -1    0    0  502    0  0.00000000000E+00  0.00000000000E+00  0.88452808568E+03  0.88452808568E+03  0.00000000000E+00 0. -1.
          1   -1    0    0  501    0 -0.00000000000E+00 -0.00000000000E+00 -0.12831509458E+04  0.12831509458E+04  0.00000000000E+00 0. -1.
         25    2    1    2    0    0 -0.13836040058E+03  0.54015392749E+03  0.46552801849E+02  0.57331975348E+03  0.12497403950E+03 0.  0.
          2    1    1    2  501    0  0.97647349039E+02 -0.48464519954E+03 -0.95740989486E+03  0.10775201534E+04  0.00000000000E+00 0. -1.
          1    1    1    2  502    0  0.40713051539E+02 -0.55508727944E+02  0.51223423286E+03  0.51683912464E+03  0.00000000000E+00 0. -1.
         22    1    3    3    0    0 -0.15367431237E+03  0.53219606014E+03  0.42339484243E+02  0.55555474315E+03  0.00000000000E+00 0.  1.
         22    1    3    3    0    0  0.15313911790E+02  0.79578673491E+01  0.42133176065E+01  0.17765010338E+02  0.00000000000E+00 0.  1.
</event>
<event>
 7    1  0.2895750E-005  0.3001859E+03  0.7818608E-02  0.1247284E+00
          2   -1    0    0  502    0  0.00000000000E+00  0.00000000000E+00  0.12700551931E+03  0.12700551931E+03  0.00000000000E+00 0. -1.
          1   -1    0    0  501    0 -0.00000000000E+00 -0.00000000000E+00 -0.21892630934E+04  0.21892630934E+04  0.00000000000E+00 0. -1.
         25    2    1    2    0    0 -0.74825733300E+02  0.33275910560E+03 -0.18842331127E+03  0.40921635529E+03  0.12500867362E+03 0.  0.
          2    1    1    2  501    0  0.58491914127E+02 -0.28976729835E+03 -0.17532279722E+04  0.17779748911E+04  0.00000000000E+00 0. -1.
          1    1    1    2  502    0  0.16333819173E+02 -0.42991807243E+02 -0.12060629068E+03  0.12907736630E+03  0.00000000000E+00 0. -1.
         22    1    3    3    0    0  0.32415050259E+02  0.12779079360E+03 -0.64036912448E+02  0.14656721519E+03  0.00000000000E+00 0. -1.
         22    1    3    3    0    0 -0.10724078356E+03  0.20496831200E+03 -0.12438639883E+03  0.26264914010E+03  0.00000000000E+00 0. -1.
</event>
<event>
 7    1  0.2895750E-005  0.1025449E+03  0.7818608E-02  0.1315973E+00
          2   -1    0    0  502    0  0.00000000000E+00  0.00000000000E+00  0.16429574498E+03  0.16429574498E+03  0.00000000000E+00 0. -1.
          1   -1    0    0  501    0 -0.00000000000E+00 -0.00000000000E+00 -0.66869208560E+03  0.66869208560E+03  0.00000000000E+00 0. -1.
         25    2    1    2    0    0  0.77411411331E+02 -0.12745517766E+03 -0.76139191846E+02  0.20894839515E+03  0.12499962554E+03 0.  0.
          2    1    1    2  501    0 -0.81781640947E+02  0.57475914481E+02 -0.50806586541E+03  0.51780560168E+03  0.00000000000E+00 0. -1.
          1    1    1    2  502    0  0.43702296155E+01  0.69979263176E+02  0.79808716631E+02  0.10623383374E+03  0.00000000000E+00 0. -1.
         22    1    3    3    0    0  0.10260830182E+03 -0.12702408154E+03 -0.82514133208E+02  0.18295399168E+03  0.00000000000E+00 0.  1.
         22    1    3    3    0    0 -0.25196890490E+02 -0.43109611595E+00  0.63749413619E+01  0.25994403466E+02  0.00000000000E+00 0.  1.
</event>
<event>
 7    1  0.2895750E-005  0.3610164E+03  0.7818608E-02  0.1093850E+00
          2   -1    0    0  502    0  0.00000000000E+00  0.00000000000E+00  0.10855693623E+04  0.10855693623E+04  0.00000000000E+00 0. -1.
          1   -1    0    0  501    0 -0.00000000000E+00 -0.00000000000E+00 -0.23906772789E+03  0.23906772789E+03  0.00000000000E+00 0. -1.
         25    2    1    2    0    0  0.34487648852E+03 -0.17075781713E+03  0.27690308159E+03  0.49030444084E+03  0.12500041465E+03 0.  0.
          2    1    1    2  501    0 -0.16213939950E+03 -0.15231247120E+03  0.30927827782E+03  0.38097418139E+03  0.00000000000E+00 0. -1.
          1    1    1    2  502    0 -0.18273708902E+03  0.32307028834E+03  0.26032027500E+03  0.45335846797E+03  0.00000000000E+00 0. -1.
         22    1    3    3    0    0  0.16736022698E+03 -0.15117809974E+03  0.16663332882E+03  0.28041207123E+03  0.00000000000E+00 0.  1.
         22    1    3    3    0    0  0.17751626154E+03 -0.19579717397E+02  0.11026975277E+03  0.20989236961E+03  0.00000000000E+00 0.  1.
</event>
<event>
 7    1  0.2895750E-005  0.2997301E+03  0.7818608E-02  0.1249053E+00
          2   -1    0    0  502    0  0.00000000000E+00  0.00000000000E+00  0.25203197656E+04  0.25203197656E+04  0.00000000000E+00 0. -1.
          1   -1    0    0  501    0 -0.00000000000E+00 -0.00000000000E+00 -0.19494933776E+03  0.19494933776E+03  0.00000000000E+00 0. -1.
         25    2    1    2    0    0  0.34870736424E+02 -0.29075789375E+03  0.96117062116E+03  0.10125369657E+04  0.12500409137E+03 0.  0.
          2    1    1    2  501    0 -0.42992506939E+02 -0.14117097305E+02 -0.15074649217E+03  0.15739171830E+03  0.00000000000E+00 0. -1.
          1    1    1    2  502    0  0.81217705144E+01  0.30487499106E+03  0.15149462988E+04  0.15453404193E+04  0.00000000000E+00 0. -1.
         22    1    3    3    0    0 -0.99205335057E+01 -0.82028093257E+01  0.18288161582E+03  0.18333408976E+03  0.00000000000E+00 0.  1.
         22    1    3    3    0    0  0.44791269930E+02 -0.28255508443E+03  0.77828900535E+03  0.82920287592E+03  0.00000000000E+00 0.  1.
</event>
<event>
 7    1  0.2895750E-005  0.6110812E+03  0.7818608E-02  0.1159085E+00
          2   -1    0    0  502    0  0.00000000000E+00  0.00000000000E+00  0.19780268211E+04  0.19780268211E+04  0.00000000000E+00 0. -1.
          1   -1    0    0  501    0 -0.00000000000E+00 -0.00000000000E+00 -0.97590403367E+03  0.97590403367E+03  0.00000000000E+00 0. -1.
         25    2    1    2    0    0  0.28555588346E+03  0.54871454951E+03  0.24633490653E+03  0.67744786431E+03  0.12499961309E+03 0.  0.
          2    1    1    2  501    0 -0.22920036630E+03 -0.56495018594E+03 -0.63741703936E+03  0.88204421804E+03  0.00000000000E+00 0. -1.
          1    1    1    2  502    0 -0.56355517158E+02  0.16235636435E+02  0.13932049203E+04  0.13944387725E+04  0.00000000000E+00 0. -1.
         22    1    3    3    0    0  0.18074991000E+03  0.45673204194E+03  0.18137470007E+03  0.52361385575E+03  0.00000000000E+00 0. -1.
         22    1    3    3    0    0  0.10480597346E+03  0.91982507566E+02  0.64960206451E+02  0.15383400857E+03  0.00000000000E+00 0. -1.
</event>
<event>
 7    1  0.2895750E-005  0.5462076E+03  0.7818608E-02  0.1038968E+00
          2   -1    0    0  502    0  0.00000000000E+00  0.00000000000E+00  0.24421801621E+04  0.24421801621E+04  0.00000000000E+00 0. -1.
          1   -1    0    0  501    0 -0.00000000000E+00 -0.00000000000E+00 -0.10987042734E+04  0.10987042734E+04  0.00000000000E+00 0. -1.
         25    2    1    2    0    0  0.47895753349E+03  0.39296481253E+03  0.16954426267E+04  0.18094121337E+04  0.12499962577E+03 0.  0.
          2    1    1    2  501    0 -0.18867361555E+03 -0.51296660878E+03 -0.92706214020E+03  0.10761861766E+04  0.00000000000E+00 0. -1.
          1    1    1    2  502    0 -0.29028391795E+03  0.12000179625E+03  0.57509540227E+03  0.65528612516E+03  0.00000000000E+00 0. -1.
         22    1    3    3    0    0  0.34419021581E+03  0.20784628953E+03  0.11275144270E+04  0.11970613049E+04  0.00000000000E+00 0. -1.
         22    1    3    3    0    0  0.13476731769E+03  0.18511852300E+03  0.56792819972E+03  0.61235082878E+03  0.00000000000E+00 0. -1.
</event>
<event>
 7    1  0.2895750E-005  0.1422993E+03  0.7818608E-02  0.1348006E+00
          2   -1    0    0  502    0  0.00000000000E+00  0.00000000000E+00  0.31849156560E+04  0.31849156560E+04  0.00000000000E+00 0. -1.
          1   -1    0    0  501    0 -0.00000000000E+00 -0.00000000000E+00 -0.33309615296E+03  0.33309615296E+03  0.00000000000E+00 0. -1.
         25    2    1    2    0    0 -0.45855814484E+02 -0.11565410588E+03  0.89444563921E+03  0.91166716884E+03  0.12500158924E+03 0.  0.
          2    1    1    2  501    0 -0.37584378323E+02 -0.65496791277E+01 -0.32095554071E+03  0.32321501033E+03  0.00000000000E+00 0. -1.
          1    1    1    2  502    0  0.83440192806E+02  0.12220378501E+03  0.22783294046E+04  0.22831296298E+04  0.00000000000E+00 0. -1.
         22    1    3    3    0    0 -0.30443492076E+02 -0.85254227131E+02  0.24274258655E+03  0.25907345054E+03  0.00000000000E+00 0.  1.
         22    1    3    3    0    0 -0.15412322407E+02 -0.30399878749E+02  0.65170305266E+03  0.65259371829E+03  0.00000000000E+00 0.  1.
</event>
<event>
 7    1  0.2895750E-005  0.4971737E+03  0.7818608E-02  0.1141770E+00
          2   -1    0    0  502    0  0.00000000000E+00  0.00000000000E+00  0.18646570664E+04  0.18646570664E+04  0.00000000000E+00 0. -1.
          1   -1    0    0  501    0 -0.00000000000E+00 -0.00000000000E+00 -0.70008627754E+03  0.70008627754E+03  0.00000000000E+00 0. -1.
         25    2    1    2    0    0 -0.42374095987E+03  0.27670485063E+03  0.15122278466E+04  0.15995559872E+04  0.12499728201E+03 0.  0.
          2    1    1    2  501    0  0.80032939776E+02  0.37737992739E+02 -0.47426297495E+03  0.48244667783E+03  0.00000000000E+00 0. -1.
          1    1    1    2  502    0  0.34370802009E+03 -0.31444284337E+03  0.12660591716E+03  0.48274067892E+03  0.00000000000E+00 0. -1.
         22    1    3    3    0    0 -0.23926859512E+03  0.22413437468E+03  0.10137410475E+04  0.10654372763E+04  0.00000000000E+00 0. -1.
         22    1    3    3    0    0 -0.18447236474E+03  0.52570475956E+02  0.49848679919E+03  0.53411871083E+03  0.00000000000E+00 0. -1.
</event>
<event>
 7    1  0.2895750E-005  0.2241220E+03  0.7818608E-02  0.1131769E+00
          2   -1    0    0  502    0  0.00000000000E+00  0.00000000000E+00  0.11653871089E+04  0.11653871089E+04  0.00000000000E+00 0. -1.
          1   -1    0    0  501    0 -0.00000000000E+00 -0.00000000000E+00 -0.24890735434E+04  0.24890735434E+04  0.00000000000E+00 0. -1.
         25    2    1    2    0    0  0.90371088443E+02 -0.26888281254E+03 -0.70071818557E+03  0.76622133107E+03  0.12499700832E+03 0.  0.
          2    1    1    2  501    0 -0.20771729213E+03  0.77211508297E+02 -0.17373477182E+04  0.17514237592E+04  0.00000000000E+00 0. -1.
          1    1    1    2  502    0  0.11734620369E+03  0.19167130425E+03  0.11143794693E+04  0.11368155620E+04  0.00000000000E+00 0. -1.
         22    1    3    3    0    0  0.25140069923E+02 -0.17885673964E+03 -0.55026853895E+03  0.57915215737E+03  0.00000000000E+00 0.  1.
         22    1    3    3    0    0  0.65231018520E+02 -0.90026072904E+02 -0.15044964662E+03  0.18706917370E+03  0.00000000000E+00 0.  1.
</event>
<event>
 7    1  0.2895750E-005  0.5104606E+03  0.7818608E-02  0.1074145E+00
          2   -1    0    0  502    0  0.00000000000E+00  0.00000000000E+00  0.90081237123E+03  0.90081237123E+03  0.00000000000E+00 0. -1.
          1   -1    0    0  501    0 -0.00000000000E+00 -0.00000000000E+00 -0.13875503012E+04  0.13875503012E+04  0.00000000000E+00 0. -1.
         25    2    1    2    0    0 -0.49876867949E+03 -0.14018864602E+03  0.33460130769E+03  0.62928966090E+03  0.12499756034E+03 0.  0.
          2    1    1    2  501    0 -0.20761819961E+02  0.20369347354E+03 -0.10630287993E+04  0.10825674633E+04  0.00000000000E+00 0. -1.
          1    1    1    2  502    0  0.51953049945E+03 -0.63504827522E+02  0.24168956165E+03  0.57650554828E+03  0.00000000000E+00 0. -1.
         22    1    3    3    0    0 -0.40992815191E+03 -0.13971973208E+03  0.32174906062E+03  0.53952307761E+03  0.00000000000E+00 0.  1.
         22    1    3    3    0    0 -0.88840527578E+02 -0.46891394164E+00  0.12852247069E+02  0.89766583289E+02  0.00000000000E+00 0.  1.
</event>
<event>
 7    1  0.2895750E-005  0.1932577E+03  0.7818608E-02  0.1232619E+00
          2   -1    0    0  502    0  0.00000000000E+00  0.00000000000E+00  0.50550583555E+03  0.50550583555E+03  0.00000000000E+00 0. -1.
          1   -1    0    0  501    0 -0.00000000000E+00 -0.00000000000E+00 -0.10496079736E+04  0.10496079736E+04  0.00000000000E+00 0. -1.
         25    2    1    2    0    0 -0.20126484885E+03  0.11428944036E+03  0.78168791102E+02  0.27441724606E+03  0.12499939789E+03 0.  0.
          2    1    1    2  501    0  0.78947619343E+02  0.25320473375E+02 -0.92331510775E+03  0.92703001094E+03  0.00000000000E+00 0. -1.
          1    1    1    2  502    0  0.12231722950E+03 -0.13960991373E+03  0.30104417860E+03  0.35366655215E+03  0.00000000000E+00 0. -1.
         22    1    3    3    0    0 -0.10977341082E+02  0.38642115570E+02 -0.22708472793E+02  0.46145312325E+02  0.00000000000E+00 0.  1.
         22    1    3    3    0    0 -0.19028750776E+03  0.75647324787E+02  0.10087726390E+03  0.22827193373E+03  0.00000000000E+00 0.  1.
</event>
<event>
 7    1  0.2895750E-005  0.5935032E+02  0.7818608E-02  0.1418635E+00
          2   -1    0    0  502    0  0.00000000000E+00  0.00000000000E+00  0.35181033797E+03  0.35181033797E+03  0.00000000000E+00 0. -1.
          1   -1    0    0  501    0 -0.00000000000E+00 -0.00000000000E+00 -0.43734528898E+03  0.43734528898E+03  0.00000000000E+00 0. -1.
         25    2    1    2    0    0 -0.89564849926E+02 -0.52959990779E+02 -0.69343122444E+02  0.17680145386E+03  0.12499464985E+03 0.  0.
          2    1    1    2  501    0  0.39236620176E+02  0.41820671301E+02 -0.30938990292E+03  0.31465948729E+03  0.00000000000E+00 0. -1.
          1    1    1    2  502    0  0.50328229750E+02  0.11139319477E+02  0.29319807436E+03  0.29769468580E+03  0.00000000000E+00 0. -1.
         22    1    3    3    0    0 -0.33863315546E+02 -0.19035209815E+02 -0.98109206807E+02  0.10552004460E+03  0.00000000000E+00 0. -1.
         22    1    3    3    0    0 -0.55701534379E+02 -0.33924780964E+02  0.28766084363E+02  0.71281409254E+02  0.00000000000E+00 0. -1.
</event>
<event>
 7    1  0.2895750E-005  0.7607202E+02  0.7818608E-02  0.1456777E+00
          2   -1    0    0  502    0  0.00000000000E+00  0.00000000000E+00  0.54377023433E+03  0.54377023433E+03  0.00000000000E+00 0. -1.
          1   -1    0    0  501    0 -0.00000000000E+00 -0.00000000000E+00 -0.10676484712E+03  0.10676484712E+03  0.00000000000E+00 0. -1.
         25    2    1    2    0    0 -0.67902963532E+02 -0.53788097980E+02  0.26062980796E+03  0.30175537541E+03  0.12499775138E+03 0.  0.
          2    1    1    2  501    0 -0.25889998957E+01  0.30100933341E+02 -0.78058191792E+02  0.83700958264E+02  0.00000000000E+00 0. -1.
          1    1    1    2  502    0  0.70491963428E+02  0.23687164639E+02  0.25443377104E+03  0.26507874778E+03  0.00000000000E+00 0. -1.
         22    1    3    3    0    0 -0.62363351244E+02 -0.86747150239E+02  0.13725808928E+03  0.17393688144E+03  0.00000000000E+00 0.  1.
         22    1    3    3    0    0 -0.55396122881E+01  0.32959052259E+02  0.12337171868E+03  0.12781849397E+03  0.00000000000E+00 0.  1.
</event>
<event>
 7    1  0.2895750E-005  0.6755502E+02  0.7818608E-02  0.1394291E+00
          2   -1    0    0  502    0  0.00000000000E+00  0.00000000000E+00  0.51962841159E+03  0.51962841159E+03  0.00000000000E+00 0. -1.
          1   -1    0    0  501    0 -0.00000000000E+00 -0.00000000000E+00 -0.14907347417E+04  0.14907347417E+04  0.00000000000E+00 0. -1.
         25    2    1    2    0    0  0.40340735101E+02  0.43753293199E+02 -0.13117576752E+04  0.13190426275E+04  0.12499411613E+03 0.  0.
          2    1    1    2  501    0  0.23239774501E+02 -0.66583092969E+02 -0.16590906973E+03  0.18027538602E+03  0.00000000000E+00 0. -1.
          1    1    1    2  502    0 -0.63580509602E+02  0.22829799770E+02  0.50656041486E+03  0.51104513975E+03  0.00000000000E+00 0. -1.
         22    1    3    3    0    0  0.19765122347E+02  0.87009068685E+02 -0.76333115234E+03  0.76852825988E+03  0.00000000000E+00 0.  1.
         22    1    3    3    0    0  0.20575612754E+02 -0.43255775487E+02 -0.54842652286E+03  0.55051436760E+03  0.00000000000E+00 0.  1.
</event>
<event>
 7    1  0.2895750E-005  0.3851556E+03  0.7818608E-02  0.1184348E+00
          2   -1    0    0  502    0  0.00000000000E+00  0.00000000000E+00  0.81201923006E+03  0.81201923006E+03  0.00000000000E+00 0. -1.
          1   -1    0    0  501    0 -0.00000000000E+00 -0.00000000000E+00 -0.48045275455E+03  0.48045275455E+03  0.00000000000E+00 0. -1.
         25    2    1    2    0    0 -0.37158943905E+03  0.13920743485E+03 -0.31631945783E+03  0.52262872557E+03  0.12500145701E+03 0.  0.
          2    1    1    2  501    0  0.31504068603E+03 -0.98361015015E+02  0.43638715074E+03  0.54713733967E+03  0.00000000000E+00 0. -1.
          1    1    1    2  502    0  0.56548753016E+02 -0.40846419839E+02  0.21149878261E+03  0.22270591938E+03  0.00000000000E+00 0. -1.
         22    1    3    3    0    0  0.81535686464E+01 -0.50338830111E+01 -0.48084143671E+01  0.10721077771E+02  0.00000000000E+00 0.  1.
         22    1    3    3    0    0 -0.37974300769E+03  0.14424131787E+03 -0.31151104347E+03  0.51190764780E+03  0.00000000000E+00 0.  1.
</event>
<event>
 7    1  0.2895750E-005  0.9751904E+02  0.7818608E-02  0.1458237E+00
          2   -1    0    0  502    0  0.00000000000E+00  0.00000000000E+00  0.41160040915E+02  0.41160040915E+02  0.00000000000E+00 0. -1.
          1   -1    0    0  501    0 -0.00000000000E+00 -0.00000000000E+00 -0.17475763945E+04  0.17475763945E+04  0.00000000000E+00 0. -1.
         25    2    1    2    0    0 -0.89141884633E+02 -0.59918269946E+02 -0.41704604555E+03  0.44843056810E+03  0.12500438242E+03 0.  0.
          2    1    1    2  501    0  0.67655528539E+02  0.68977794398E+02 -0.13073160689E+04  0.13108815777E+04  0.00000000000E+00 0. -1.
          1    1    1    2  502    0  0.21486356094E+02 -0.90595244524E+01  0.17945760940E+02  0.29424289578E+02  0.00000000000E+00 0. -1.
         22    1    3    3    0    0 -0.45201677819E+02 -0.75500188866E+02 -0.12607230372E+03  0.15374555591E+03  0.00000000000E+00 0.  1.
         22    1    3    3    0    0 -0.43940206814E+02  0.15581918920E+02 -0.29097374184E+03  0.29468501219E+03  0.00000000000E+00 0.  1.
</event>
<event>
 7    1  0.2895750E-005  0.1653888E+03  0.7818608E-02  0.1214074E+00
          2   -1    0    0  502    0  0.00000000000E+00  0.00000000000E+00  0.41124867206E+03  0.41124867206E+03  0.00000000000E+00 0. -1.
          1   -1    0    0  501    0 -0.00000000000E+00 -0.00000000000E+00 -0.54075042536E+03  0.54075042536E+03  0.00000000000E+00 0. -1.
         25    2    1    2    0    0  0.22541798747E+03  0.44076570394E+02 -0.85708287675E+02  0.27517927761E+03  0.12498684379E+03 0.  0.
          2    1    1    2  501    0 -0.12181660672E+03 -0.99671840278E+02 -0.33097896152E+03  0.36649806874E+03  0.00000000000E+00 0. -1.
          1    1    1    2  502    0 -0.10360138075E+03  0.55595269883E+02  0.28718549591E+03  0.31032175107E+03  0.00000000000E+00 0. -1.
         22    1    3    3    0    0  0.78627806723E+02  0.13477103278E+02 -0.96072997025E+02  0.12487587862E+03  0.00000000000E+00 0.  1.
         22    1    3    3    0    0  0.14679018074E+03  0.30599467116E+02  0.10364709349E+02  0.15030339900E+03  0.00000000000E+00 0.  1.
</event>
<event>
 7    1  0.2895750E-005  0.3075431E+02  0.7818608E-02  0.1608523E+00
          2   -1    0    0  502    0  0.00000000000E+00  0.00000000000E+00  0.39833493923E+03  0.39833493923E+03  0.00000000000E+00 0. -1.
          1   -1    0    0  501    0 -0.00000000000E+00 -0.00000000000E+00 -0.18086458015E+04  0.18086458015E+04  0.00000000000E+00 0. -1.
         25    2    1    2    0    0 -0.33634248005E+01 -0.81103353900E+01 -0.30081171656E+03  0.32586792355E+03  0.12500049846E+03 0.  0.
          2    1    1    2  501    0 -0.27181825246E+02  0.41101487900E+01 -0.14945644210E+04  0.14948172308E+04  0.00000000000E+00 0. -1.
          1    1    1    2  502    0  0.30545250047E+02  0.40001866000E+01  0.38506527531E+03  0.38629558636E+03  0.00000000000E+00 0. -1.
         22    1    3    3    0    0 -0.29162978208E+02  0.52131813232E+02 -0.14754888099E+03  0.15918190076E+03  0.00000000000E+00 0.  1.
         22    1    3    3    0    0  0.25799553407E+02 -0.60242148622E+02 -0.15326283557E+03  0.16668602279E+03  0.00000000000E+00 0.  1.
</event>
<event>
 7    1  0.2895750E-005  0.8912616E+02  0.7818608E-02  0.1357062E+00
          2   -1    0    0  502    0  0.00000000000E+00  0.00000000000E+00  0.26458164369E+03  0.26458164369E+03  0.00000000000E+00 0. -1.
          1   -1    0    0  501    0 -0.00000000000E+00 -0.00000000000E+00 -0.45437976771E+03  0.45437976771E+03  0.00000000000E+00 0. -1.
         25    2    1    2    0    0  0.11598903171E+02 -0.60412052511E+02  0.19222988255E+03  0.23740585146E+03  0.12500023967E+03 0.  0.
          2    1    1    2  501    0 -0.67982157414E+02  0.59055726260E+02 -0.40917193951E+03  0.41896399441E+03  0.00000000000E+00 0. -1.
          1    1    1    2  502    0  0.56383254244E+02  0.13563262516E+01  0.27143932941E+02  0.62591565530E+02  0.00000000000E+00 0. -1.
         22    1    3    3    0    0  0.79989186003E+01 -0.99601109677E+02  0.14048458558E+03  0.17239571495E+03  0.00000000000E+00 0. -1.
         22    1    3    3    0    0  0.35999845705E+01  0.39189057166E+02  0.51745296975E+02  0.65010136513E+02  0.00000000000E+00 0. -1.
</event>
<event>
 7    1  0.2895750E-005  0.9143636E+02  0.7818608E-02  0.1453675E+00
          2   -1    0    0  502    0  0.00000000000E+00  0.00000000000E+00  0.79520060339E+03  0.79520060339E+03  0.00000000000E+00 0. -1.
          1   -1    0    0  501    0 -0.00000000000E+00 -0.00000000000E+00 -0.11243780003E+03  0.11243780003E+03  0.00000000000E+00 0. -1.
         25    2    1    2    0    0  0.72135087212E+02 -0.44749143271E+01  0.23391073754E+03  0.27488739651E+03  0.12500140782E+03 0.  0.
          2    1    1    2  501    0  0.21569346650E+02 -0.13995845793E+02 -0.85833760491E+02  0.89602203402E+02  0.00000000000E+00 0. -1.
          1    1    1    2  502    0 -0.93704433862E+02  0.18470760121E+02  0.53468582631E+03  0.54314880352E+03  0.00000000000E+00 0. -1.
         22    1    3    3    0    0 -0.34362801109E+02 -0.14139100271E+02  0.52828336470E+02  0.64587532781E+02  0.00000000000E+00 0.  1.
         22    1    3    3    0    0  0.10649788832E+03  0.96641859440E+01  0.18108240107E+03  0.21029986373E+03  0.00000000000E+00 0.  1.
</event>
<event>
 7    1  0.2895750E-005  0.1202840E+04  0.7818608E-02  0.1008075E+00
          2   -1    0    0  502    0  0.00000000000E+00  0.00000000000E+00  0.22676479568E+04  0.22676479568E+04  0.00000000000E+00 0. -1.
          1   -1    0    0  501    0 -0.00000000000E+00 -0.00000000000E+00 -0.12060518177E+04  0.12060518177E+04  0.00000000000E+00 0. -1.
         25    2    1    2    0    0  0.68179792930E+03 -0.93727218619E+03 -0.11549185426E+03  0.11714481846E+04  0.12499965356E+03 0.  0.
          2    1    1    2  501    0 -0.90492218090E+03  0.89581912715E+03  0.18760706698E+03  0.12870790472E+04  0.00000000000E+00 0. -1.
          1    1    1    2  502    0  0.22312425160E+03  0.41453059037E+02  0.98948092645E+03  0.10151725428E+04  0.00000000000E+00 0. -1.
         22    1    3    3    0    0  0.23590749684E+03 -0.36548124974E+03 -0.99189102593E+02  0.44616966397E+03  0.00000000000E+00 0. -1.
         22    1    3    3    0    0  0.44589043246E+03 -0.57179093645E+03 -0.16302751664E+02  0.72527852062E+03  0.00000000000E+00 0. -1.
</event>
<event>
 7    1  0.2895750E-005  0.1139214E+03  0.7818608E-02  0.1306886E+00
          2   -1    0    0  502    0  0.00000000000E+00  0.00000000000E+00  0.81911606966E+03  0.81911606966E+03  0.00000000000E+00 0. -1.
          1   -1    0    0  501    0 -0.00000000000E+00 -0.00000000000E+00 -0.57480514053E+03  0.57480514053E+03  0.00000000000E+00 0. -1.
         25    2    1    2    0    0  0.13820843372E+03 -0.51935994200E+02 -0.73958282782E+02  0.20710982049E+03  0.12500292600E+03 0.  0.
          2    1    1    2  501    0 -0.11117483357E+03 -0.11031892346E+02 -0.42548452404E+03  0.43990752036E+03  0.00000000000E+00 0. -1.
          1    1    1    2  502    0 -0.27033600148E+02  0.62967886546E+02  0.74375373596E+03  0.74690386933E+03  0.00000000000E+00 0. -1.
         22    1    3    3    0    0  0.43492495076E+02  0.39299696192E+02 -0.55748402921E+01  0.58882442994E+02  0.00000000000E+00 0. -1.
         22    1    3    3    0    0  0.94715938641E+02 -0.91235690391E+02 -0.68383442489E+02  0.14822737750E+03  0.00000000000E+00 0. -1.
</event>
<event>
 7    1  0.3764497E-005  0.8904266E+02  0.7818608E-02  0.1341426E+00
          2   -1    0    0  502    0  0.00000000000E+00  0.00000000000E+00  0.26591309741E+04  0.26591309741E+04  0.00000000000E+00 0. -1.
          1   -1    0    0  501    0 -0.00000000000E+00 -0.00000000000E+00 -0.73233729198E+03  0.73233729198E+03  0.00000000000E+00 0. -1.
         25    2    1    2    0    0  0.64904812762E+02  0.12364590454E+03  0.48514806209E+02  0.19359704939E+03  0.12500074672E+03 0.  0.
          2    1    1    2  501    0 -0.11637844247E+02 -0.87241014330E+02 -0.65644868239E+03  0.66232266050E+03  0.00000000000E+00 0. -1.
          1    1    1    2  502    0 -0.53266968515E+02 -0.36404890211E+02  0.25347275583E+04  0.25355485562E+04  0.00000000000E+00 0. -1.
         22    1    3    3    0    0 -0.94831195497E+01  0.15372711974E+02  0.59107873267E+02  0.61806071805E+02  0.00000000000E+00 0.  1.
         22    1    3    3    0    0  0.74387932312E+02  0.10827319257E+03 -0.10593067058E+02  0.13179097758E+03  0.00000000000E+00 0.  1.
</event>
<event>
 7    1  0.2895750E-005  0.1080387E+03  0.7818608E-02  0.1343237E+00
          2   -1    0    0  502    0  0.00000000000E+00  0.00000000000E+00  0.54752503002E+03  0.54752503002E+03  0.00000000000E+00 0. -1.
          1   -1    0    0  501    0 -0.00000000000E+00 -0.00000000000E+00 -0.29303254240E+03  0.29303254240E+03  0.00000000000E+00 0. -1.
         25    2    1    2    0    0 -0.11140195723E+03 -0.23210913425E+02  0.93382928334E+02  0.19311984141E+03  0.12500303702E+03 0.  0.
          2    1    1    2  501    0  0.84492752561E+02  0.68115028927E+02 -0.22921920535E+03  0.25361412915E+03  0.00000000000E+00 0. -1.
          1    1    1    2  502    0  0.26909204666E+02 -0.44904115502E+02  0.39032876464E+03  0.39382360187E+03  0.00000000000E+00 0. -1.
         22    1    3    3    0    0 -0.62236575041E+02  0.45710796887E+02  0.72502829025E+02  0.10592227547E+03  0.00000000000E+00 0.  1.
         22    1    3    3    0    0 -0.49165382185E+02 -0.68921710312E+02  0.20880099310E+02  0.87197565935E+02  0.00000000000E+00 0.  1.
</event>
<event>
 7    1  0.2895750E-005  0.2990491E+03  0.7818608E-02  0.1281890E+00
          2   -1    0    0  502    0  0.00000000000E+00  0.00000000000E+00  0.91021594939E+02  0.91021594939E+02  0.00000000000E+00 0. -1.
          1   -1    0    0  501    0 -0.00000000000E+00 -0.00000000000E+00 -0.24211909945E+04  0.24211909945E+04  0.00000000000E+00 0. -1.
         25    2    1    2    0    0  0.67686530079E+02 -0.28945625534E+03 -0.14070967290E+04  0.14435764252E+04  0.12500120229E+03 0.  0.
          2    1    1    2  501    0 -0.31909728943E+02 -0.81609919637E+01 -0.68512304451E+03  0.68591429400E+03  0.00000000000E+00 0. -1.
          1    1    1    2  502    0 -0.35776801136E+02  0.29761724731E+03 -0.23794962600E+03  0.38272187017E+03  0.00000000000E+00 0. -1.
         22    1    3    3    0    0  0.70030369036E+01 -0.75924302947E+02 -0.16456061524E+03  0.18136630997E+03  0.00000000000E+00 0. -1.
         22    1    3    3    0    0  0.60683493175E+02 -0.21353195240E+03 -0.12425361138E+04  0.12622101153E+04  0.00000000000E+00 0. -1.
</event>
<event>
 7    1  0.2895750E-005  0.7811460E+03  0.7818608E-02  0.1078528E+00
          2   -1    0    0  502    0  0.00000000000E+00  0.00000000000E+00  0.19802123528E+04  0.19802123528E+04  0.00000000000E+00 0. -1.
          1   -1    0    0  501    0 -0.00000000000E+00 -0.00000000000E+00 -0.14131810881E+04  0.14131810881E+04  0.00000000000E+00 0. -1.
         25    2    1    2    0    0 -0.20765169560E+03  0.68128511150E+03 -0.11761567703E+03  0.73261555630E+03  0.12499390387E+03 0.  0.
          2    1    1    2  501    0  0.70593321340E+02  0.10446078720E+03 -0.88827806091E+03  0.89718079927E+03  0.00000000000E+00 0. -1.
          1    1    1    2  502    0  0.13705837426E+03 -0.78574589871E+03  0.15729250026E+04  0.17635970853E+04  0.00000000000E+00 0. -1.
         22    1    3    3    0    0 -0.91802211369E+02  0.43447221737E+03 -0.25389351453E+02  0.44479025714E+03  0.00000000000E+00 0.  1.
         22    1    3    3    0    0 -0.11584948423E+03  0.24681289413E+03 -0.92226325577E+02  0.28782529916E+03  0.00000000000E+00 0.  1.
</event>
<event>
 7    1  0.2895750E-005  0.1227865E+03  0.7818608E-02  0.1359009E+00
          2   -1    0    0  502    0  0.00000000000E+00  0.00000000000E+00  0.33697137268E+03  0.33697137268E+03  0.00000000000E+00 0. -1.
          1   -1    0    0  501    0 -0.00000000000E+00 -0.00000000000E+00 -0.71709045529E+03  0.71709045529E+03  0.00000000000E+00 0. -1.
         25    2    1    2    0    0  0.58399127641E+02 -0.96776062071E+02 -0.39816930583E+02  0.17316578519E+03  0.12499974760E+03 0.  0.
          2    1    1    2  501    0 -0.31480109121E+02 -0.25116400621E+02 -0.59547031180E+03  0.59683056480E+03  0.00000000000E+00 0. -1.
          1    1    1    2  502    0 -0.26919018519E+02  0.12189246269E+03  0.25516815977E+03  0.28406547798E+03  0.00000000000E+00 0. -1.
         22    1    3    3    0    0 -0.15520710344E+01  0.28022396833E+02 -0.17095996462E+02  0.32862391023E+02  0.00000000000E+00 0. -1.
         22    1    3    3    0    0  0.59951198675E+02 -0.12479845890E+03 -0.22720934121E+02  0.14030339417E+03  0.00000000000E+00 0. -1.
</event>
<event>
 7    1  0.2895750E-005  0.4960325E+03  0.7818608E-02  0.1108533E+00
          2   -1    0    0  502    0  0.00000000000E+00  0.00000000000E+00  0.75085647500E+03  0.75085647500E+03  0.00000000000E+00 0. -1.
          1   -1    0    0  501    0 -0.00000000000E+00 -0.00000000000E+00 -0.87110496363E+03  0.87110496363E+03  0.00000000000E+00 0. -1.
         25    2    1    2    0    0  0.35660210354E+03 -0.29197385125E+03 -0.84248288098E+00  0.47753512266E+03  0.12500117413E+03 0.  0.
          2    1    1    2  501    0 -0.45447225719E+02 -0.12593154757E+03 -0.48811364848E+03  0.50614142177E+03  0.00000000000E+00 0. -1.
          1    1    1    2  502    0 -0.31115487782E+03  0.41790539882E+03  0.36870764273E+03  0.63828489420E+03  0.00000000000E+00 0. -1.
         22    1    3    3    0    0  0.90207886003E+02 -0.31667654804E+02  0.38372240179E+02  0.10301811430E+03  0.00000000000E+00 0.  1.
         22    1    3    3    0    0  0.26639421754E+03 -0.26030619645E+03 -0.39214723060E+02  0.37451700836E+03  0.00000000000E+00 0.  1.
</event>
<event>
 7    1  0.2895750E-005  0.2585864E+03  0.7818608E-02  0.1173571E+00
          2   -1    0    0  502    0  0.00000000000E+00  0.00000000000E+00  0.84142062244E+03  0.84142062244E+03  0.00000000000E+00 0. -1.
          1   -1    0    0  501    0 -0.00000000000E+00 -0.00000000000E+00 -0.23600045275E+04  0.23600045275E+04  0.00000000000E+00 0. -1.
         25    2    1    2    0    0  0.23682929945E+03  0.13852121615E+03  0.21154101614E+03  0.36830862822E+03  0.12500159882E+03 0.  0.
          2    1    1    2  501    0 -0.14650921491E+03 -0.21337571563E+03 -0.22679373097E+04  0.22826593672E+04  0.00000000000E+00 0. -1.
          1    1    1    2  502    0 -0.90320084544E+02  0.74854499483E+02  0.53781238847E+03  0.55045715452E+03  0.00000000000E+00 0. -1.
         22    1    3    3    0    0  0.18137287594E+03  0.39746058310E+02  0.10778080135E+03  0.21469180333E+03  0.00000000000E+00 0.  1.
         22    1    3    3    0    0  0.55456423513E+02  0.98775157841E+02  0.10376021478E+03  0.15361682488E+03  0.00000000000E+00 0.  1.
</event>
<event>
 7    1  0.2895750E-005  0.8488010E+02  0.7818608E-02  0.1453563E+00
          2   -1    0    0  502    0  0.00000000000E+00  0.00000000000E+00  0.30807470913E+02  0.30807470913E+02  0.00000000000E+00 0. -1.
          1   -1    0    0  501    0 -0.00000000000E+00 -0.00000000000E+00 -0.14995942764E+04  0.14995942764E+04  0.00000000000E+00 0. -1.
         25    2    1    2    0    0  0.97898142967E+02  0.12728006719E+02 -0.20157313286E+03  0.25690896297E+03  0.12499775523E+03 0.  0.
          2    1    1    2  501    0 -0.77970990365E+02 -0.31998878497E+02 -0.11483786452E+04  0.11514672884E+04  0.00000000000E+00 0. -1.
          1    1    1    2  502    0 -0.19927152603E+02  0.19270871779E+02 -0.11883502752E+03  0.12202549600E+03  0.00000000000E+00 0. -1.
         22    1    3    3    0    0  0.91036149277E+02 -0.44241194792E+02 -0.13983148777E+03  0.17262012850E+03  0.00000000000E+00 0. -1.
         22    1    3    3    0    0  0.68619936900E+01  0.56969201511E+02 -0.61741645090E+02  0.84288834472E+02  0.00000000000E+00 0. -1.
</event>
<event>
 7    1  0.2895750E-005  0.8884125E+02  0.7818608E-02  0.1425766E+00
          2   -1    0    0  502    0  0.00000000000E+00  0.00000000000E+00  0.91432819485E+03  0.91432819485E+03  0.00000000000E+00 0. -1.
          1   -1    0    0  501    0 -0.00000000000E+00 -0.00000000000E+00 -0.10524017984E+04  0.10524017984E+04  0.00000000000E+00 0. -1.
         25    2    1    2    0    0  0.11077753487E+03  0.36967582768E+02  0.15627750261E+03  0.23169171709E+03  0.12498051663E+03 0.  0.
          2    1    1    2  501    0 -0.78442509961E+02 -0.41143124058E+02 -0.10123909860E+04  0.10162585756E+04  0.00000000000E+00 0. -1.
          1    1    1    2  502    0 -0.32335024906E+02  0.41755412897E+01  0.71803987979E+03  0.71877970057E+03  0.00000000000E+00 0. -1.
         22    1    3    3    0    0  0.12659975474E+03  0.90219068873E+01  0.82903616513E+02  0.15159783091E+03  0.00000000000E+00 0. -1.
         22    1    3    3    0    0 -0.15822219875E+02  0.27945675881E+02  0.73373886100E+02  0.80093886182E+02  0.00000000000E+00 0. -1.
</event>
<event>
 7    1  0.2895750E-005  0.4080108E+03  0.7818608E-02  0.1065879E+00
          2   -1    0    0  502    0  0.00000000000E+00  0.00000000000E+00  0.19013621642E+04  0.19013621642E+04  0.00000000000E+00 0. -1.
          1   -1    0    0  501    0 -0.00000000000E+00 -0.00000000000E+00 -0.47357736684E+03  0.47357736684E+03  0.00000000000E+00 0. -1.
         25    2    1    2    0    0 -0.26387480181E+03  0.15658352524E+03  0.16149497250E+01  0.33132242563E+03  0.12499452089E+03 0.  0.
          2    1    1    2  501    0  0.53907716573E+03 -0.23781163702E+03  0.34035895447E+00  0.58920173214E+03  0.00000000000E+00 0. -1.
          1    1    1    2  502    0 -0.27520236391E+03  0.81228111785E+02  0.14258294887E+04  0.14544153733E+04  0.00000000000E+00 0. -1.
         22    1    3    3    0    0 -0.11926950618E+02 -0.20237523366E+02  0.11319608842E+01  0.23517883376E+02  0.00000000000E+00 0. -1.
         22    1    3    3    0    0 -0.25194785120E+03  0.17682104860E+03  0.48298884083E+00  0.30780454225E+03  0.00000000000E+00 0. -1.
</event>
<event>
 7    1  0.2895750E-005  0.1463297E+03  0.7818608E-02  0.1325655E+00
          2   -1    0    0  502    0  0.00000000000E+00  0.00000000000E+00  0.21339693873E+04  0.21339693873E+04  0.00000000000E+00 0. -1.
          1   -1    0    0  501    0 -0.00000000000E+00 -0.00000000000E+00 -0.14948841019E+03  0.14948841019E+03  0.00000000000E+00 0. -1.
         25    2    1    2    0    0  0.14716423127E+03  0.44460907751E+02  0.10183089248E+03  0.22277419063E+03  0.12499890426E+03 0.  0.
          2    1    1    2  501    0 -0.87852262234E+00 -0.45060215386E+02 -0.80410778905E+02  0.92179651641E+02  0.00000000000E+00 0. -1.
          1    1    1    2  502    0 -0.14628570864E+03  0.59930763421E+00  0.19630608635E+04  0.19685039552E+04  0.00000000000E+00 0. -1.
         22    1    3    3    0    0  0.12086985910E+02  0.49733624938E+02 -0.36484484527E+01  0.51311205930E+02  0.00000000000E+00 0. -1.
         22    1    3    3    0    0  0.13507724536E+03 -0.52727171869E+01  0.10547934093E+03  0.17146298470E+03  0.00000000000E+00 0. -1.
</event>
<event>
 7    1  0.2895750E-005  0.9344975E+02  0.7818608E-02  0.1343457E+00
          2   -1    0    0  502    0  0.00000000000E+00  0.00000000000E+00  0.29413753558E+04  0.29413753558E+04  0.00000000000E+00 0. -1.
          1   -1    0    0  501    0 -0.00000000000E+00 -0.00000000000E+00 -0.92595853973E+02  0.92595853973E+02  0.00000000000E+00 0. -1.
         25    2    1    2    0    0  0.34813525147E+02 -0.48923873689E+02  0.38057147112E+03  0.40504933765E+03  0.12499917740E+03 0.  0.
          2    1    1    2  501    0 -0.36825257755E+02 -0.47885190091E+02 -0.67948214669E+02  0.90917825070E+02  0.00000000000E+00 0. -1.
          1    1    1    2  502    0  0.20117326073E+01  0.96809063780E+02  0.25361562454E+04  0.25380040471E+04  0.00000000000E+00 0. -1.
         22    1    3    3    0    0  0.60390678176E+02 -0.17492302298E+02  0.34634674518E+03  0.35200721945E+03  0.00000000000E+00 0. -1.
         22    1    3    3    0    0 -0.25577153028E+02 -0.31431571391E+02  0.34224725937E+02  0.53042118195E+02  0.00000000000E+00 0. -1.
</event>
<event>
 7    1  0.2895750E-005  0.3654686E+03  0.7818608E-02  0.1229098E+00
          2   -1    0    0  502    0  0.00000000000E+00  0.00000000000E+00  0.39572123911E+03  0.39572123911E+03  0.00000000000E+00 0. -1.
          1   -1    0    0  501    0 -0.00000000000E+00 -0.00000000000E+00 -0.11891191230E+04  0.11891191230E+04  0.00000000000E+00 0. -1.
         25    2    1    2    0    0  0.30750986213E+03  0.25363715883E+03 -0.10223706786E+03  0.43008168358E+03  0.12499485133E+03 0.  0.
          2    1    1    2  501    0 -0.26320870290E+03 -0.24342716738E+03 -0.88541987745E+03  0.95525073488E+03  0.00000000000E+00 0. -1.
          1    1    1    2  502    0 -0.44301159224E+02 -0.10209991457E+02  0.19425906142E+03  0.19950794365E+03  0.00000000000E+00 0. -1.
         22    1    3    3    0    0  0.25708986317E+03  0.15095728096E+03 -0.10378167061E+03  0.31568011273E+03  0.00000000000E+00 0. -1.
         22    1    3    3    0    0  0.50419998961E+02  0.10267987787E+03  0.15446027516E+01  0.11440157085E+03  0.00000000000E+00 0. -1.
</event>
<event>
 7    1  0.2895750E-005  0.8863627E+02  0.7818608E-02  0.1324024E+00
          2   -1    0    0  502    0  0.00000000000E+00  0.00000000000E+00  0.94230040548E+03  0.94230040548E+03  0.00000000000E+00 0. -1.
          1   -1    0    0  501    0 -0.00000000000E+00 -0.00000000000E+00 -0.53763835648E+03  0.53763835648E+03  0.00000000000E+00 0. -1.
         25    2    1    2    0    0 -0.62102099081E+02  0.13850966935E+03  0.23704130903E+02  0.19805627829E+03  0.12499121702E+03 0.  0.
          2    1    1    2  501    0  0.55101181655E+02 -0.51597114745E+02 -0.44498869496E+03  0.45134614335E+03  0.00000000000E+00 0. -1.
          1    1    1    2  502    0  0.70009174260E+01 -0.86912554607E+02  0.82594661305E+03  0.83053634033E+03  0.00000000000E+00 0. -1.
         22    1    3    3    0    0 -0.23290845928E+02  0.14658947591E+03  0.42199767256E+02  0.15431059039E+03  0.00000000000E+00 0. -1.
         22    1    3    3    0    0 -0.38811253153E+02 -0.80798065543E+01 -0.18495636353E+02  0.43745687895E+02  0.00000000000E+00 0. -1.
</event>
<event>
 7    1  0.3643956E-005  0.5660055E+02  0.7818608E-02  0.1461482E+00
          2   -1    0    0  502    0  0.00000000000E+00  0.00000000000E+00  0.15288174320E+04  0.15288174320E+04  0.00000000000E+00 0. -1.
          1   -1    0    0  501    0 -0.00000000000E+00 -0.00000000000E+00 -0.51932099748E+03  0.51932099748E+03  0.00000000000E+00 0. -1.
         25    2    1    2    0    0 -0.17674477641E+02 -0.49672225699E+02 -0.13508318752E+03  0.19144490231E+03  0.12499586354E+03 0.  0.
          2    1    1    2  501    0 -0.32088270956E+02  0.22585120695E+02 -0.35443905042E+03  0.35660452222E+03  0.00000000000E+00 0. -1.
          1    1    1    2  502    0  0.49762748597E+02  0.27087105004E+02  0.14990186725E+04  0.15000890050E+04  0.00000000000E+00 0. -1.
         22    1    3    3    0    0 -0.56948505679E+02 -0.17365698050E+02 -0.15536435704E+02  0.61531135226E+02  0.00000000000E+00 0.  1.
         22    1    3    3    0    0  0.39274028037E+02 -0.32306527649E+02 -0.11954675182E+03  0.12991376708E+03  0.00000000000E+00 0.  1.
</event>
<event>
 7    1  0.2895750E-005  0.3990957E+03  0.7818608E-02  0.1109928E+00
          2   -1    0    0  502    0  0.00000000000E+00  0.00000000000E+00  0.82097838192E+03  0.82097838192E+03  0.00000000000E+00 0. -1.
          1   -1    0    0  501    0 -0.00000000000E+00 -0.00000000000E+00 -0.74805428190E+03  0.74805428190E+03  0.00000000000E+00 0. -1.
         25    2    1    2    0    0 -0.44987436645E+03  0.64099821226E+02  0.81877015654E+02  0.47836777952E+03  0.12504460852E+03 0.  0.
          2    1    1    2  501    0  0.11031067933E+03  0.12063197435E+03 -0.46496103420E+03  0.49285827835E+03  0.00000000000E+00 0. -1.
          1    1    1    2  502    0  0.33956368712E+03 -0.18473179558E+03  0.45600811857E+03  0.59780660595E+03  0.00000000000E+00 0. -1.
         22    1    3    3    0    0 -0.92048149929E+02  0.27575833742E+02  0.69281534025E+02  0.11846189036E+03  0.00000000000E+00 0.  1.
         22    1    3    3    0    0 -0.35782621652E+03  0.36523987484E+02  0.12595481629E+02  0.35990588916E+03  0.00000000000E+00 0.  1.
</event>
<event>
 7    1  0.2895750E-005  0.2076099E+03  0.7818608E-02  0.1181409E+00
          2   -1    0    0  502    0  0.00000000000E+00  0.00000000000E+00  0.31365066778E+04  0.31365066778E+04  0.00000000000E+00 0. -1.
          1   -1    0    0  501    0 -0.00000000000E+00 -0.00000000000E+00 -0.15131389397E+04  0.15131389397E+04  0.00000000000E+00 0. -1.
         25    2    1    2    0    0 -0.10171979773E+03 -0.15343118424E+03  0.94840223434E+03  0.97415535602E+03  0.12499525593E+03 0.  0.
          2    1    1    2  501    0 -0.11363978887E+03  0.70510906599E+02 -0.14911405934E+04  0.14971259328E+04  0.00000000000E+00 0. -1.
          1    1    1    2  502    0  0.21535958659E+03  0.82920277638E+02  0.21661060972E+04  0.21783643286E+04  0.00000000000E+00 0. -1.
         22    1    3    3    0    0 -0.10506150020E+03 -0.14878120112E+03  0.95069670929E+03  0.96798656896E+03  0.00000000000E+00 0. -1.
         22    1    3    3    0    0  0.33417024787E+01 -0.46499831191E+01 -0.22944749480E+01  0.61687870568E+01  0.00000000000E+00 0. -1.
</event>
<event>
 7    1  0.2895750E-005  0.3089958E+03  0.7818608E-02  0.1215107E+00
          2   -1    0    0  502    0  0.00000000000E+00  0.00000000000E+00  0.23292333213E+04  0.23292333213E+04  0.00000000000E+00 0. -1.
          1   -1    0    0  501    0 -0.00000000000E+00 -0.00000000000E+00 -0.20898879525E+03  0.20898879525E+03  0.00000000000E+00 0. -1.
         25    2    1    2    0    0 -0.12490633035E+03  0.25333054081E+03  0.18342689135E+04  0.18600932588E+04  0.12500612021E+03 0.  0.
          2    1    1    2  501    0  0.18697709799E+03 -0.24865122122E+03 -0.68224843773E+02  0.31850038351E+03  0.00000000000E+00 0. -1.
          1    1    1    2  502    0 -0.62070767646E+02 -0.46793195935E+01  0.35420045632E+03  0.35962847425E+03  0.00000000000E+00 0. -1.
         22    1    3    3    0    0 -0.43793687007E+02  0.26140321067E+02  0.14546732848E+03  0.15414910659E+03  0.00000000000E+00 0. -1.
         22    1    3    3    0    0 -0.81112643342E+02  0.22719021975E+03  0.16888015850E+04  0.17059441522E+04  0.00000000000E+00 0. -1.
</event>
<event>
 7    1  0.2895750E-005  0.6612521E+02  0.7818608E-02  0.1413970E+00
          2   -1    0    0  502    0  0.00000000000E+00  0.00000000000E+00  0.98309976711E+03  0.98309976711E+03  0.00000000000E+00 0. -1.
          1   -1    0    0  501    0 -0.00000000000E+00 -0.00000000000E+00 -0.90156570139E+03  0.90156570139E+03  0.00000000000E+00 0. -1.
         25    2    1    2    0    0  0.52460083052E+02 -0.81398059703E+02 -0.25879681310E+03  0.30328108638E+03  0.12500368974E+03 0.  0.
          2    1    1    2  501    0 -0.55081343739E+02  0.33505423075E+02 -0.61825089969E+03  0.62160336452E+03  0.00000000000E+00 0. -1.
          1    1    1    2  502    0  0.26212606873E+01  0.47892636629E+02  0.95858177851E+03  0.95978101760E+03  0.00000000000E+00 0. -1.
         22    1    3    3    0    0  0.42799481592E+02 -0.10580545901E+02 -0.21496155406E+03  0.21943612579E+03  0.00000000000E+00 0. -1.
         22    1    3    3    0    0  0.96606014598E+01 -0.70817513803E+02 -0.43835259040E+02  0.83844960593E+02  0.00000000000E+00 0. -1.
</event>
<event>
 7    1  0.2895750E-005  0.1592851E+03  0.7818608E-02  0.1278761E+00
          2   -1    0    0  502    0  0.00000000000E+00  0.00000000000E+00  0.12442441898E+04  0.12442441898E+04  0.00000000000E+00 0. -1.
          1   -1    0    0  501    0 -0.00000000000E+00 -0.00000000000E+00 -0.82801046271E+02  0.82801046271E+02  0.00000000000E+00 0. -1.
         25    2    1    2    0    0 -0.97418122920E+02 -0.16681354389E+03  0.21484051785E+03  0.31479927378E+03  0.12500034224E+03 0.  0.
          2    1    1    2  501    0 -0.17307734877E+02  0.61308854704E+02  0.12111830856E+02  0.64846201109E+02  0.00000000000E+00 0. -1.
          1    1    1    2  502    0  0.11472585780E+03  0.10550468919E+03  0.93449079485E+03  0.94739976121E+03  0.00000000000E+00 0. -1.
         22    1    3    3    0    0 -0.66844721729E+02 -0.10196142239E+03  0.44158740929E+02  0.12967013102E+03  0.00000000000E+00 0. -1.
         22    1    3    3    0    0 -0.30573401190E+02 -0.64852121501E+02  0.17068177692E+03  0.18512914275E+03  0.00000000000E+00 0. -1.
</event>
<event>
 7    1  0.2895750E-005  0.4394746E+03  0.7818608E-02  0.1161755E+00
          2   -1    0    0  502    0  0.00000000000E+00  0.00000000000E+00  0.11133210089E+04  0.11133210089E+04  0.00000000000E+00 0. -1.
          1   -1    0    0  501    0 -0.00000000000E+00 -0.00000000000E+00 -0.22451950825E+03  0.22451950825E+03  0.00000000000E+00 0. -1.
         25    2    1    2    0    0 -0.41761742005E+03  0.12235122465E+03  0.42648029143E+03  0.62200094127E+03  0.12500240104E+03 0.  0.
          2    1    1    2  501    0  0.17701976142E+02  0.77047148975E+02  0.94575674082E+01  0.79618268669E+02  0.00000000000E+00 0. -1.
          1    1    1    2  502    0  0.39991544390E+03 -0.19939837363E+03  0.45286364180E+03  0.63622130721E+03  0.00000000000E+00 0. -1.
         22    1    3    3    0    0 -0.30696138168E+03  0.65483559673E+02  0.22873146235E+03  0.38837027217E+03  0.00000000000E+00 0.  1.
         22    1    3    3    0    0 -0.11065603836E+03  0.56867664980E+02  0.19774882907E+03  0.23363066911E+03  0.00000000000E+00 0.  1.
</event>
<event>
 7    1  0.2895750E-005  0.1016919E+04  0.7818608E-02  0.1036352E+00
          2   -1    0    0  502    0  0.00000000000E+00  0.00000000000E+00  0.98793062077E+03  0.98793062077E+03  0.00000000000E+00 0. -1.
          1   -1    0    0  501    0 -0.00000000000E+00 -0.00000000000E+00 -0.19444753720E+04  0.19444753720E+04  0.00000000000E+00 0. -1.
         25    2    1    2    0    0  0.84166167264E+03 -0.78381534953E+03 -0.82287976811E+03  0.14196891477E+04  0.12500115973E+03 0.  0.
          2    1    1    2  501    0 -0.12336897348E+03  0.12452461048E+03 -0.45382791341E+03  0.48650391285E+03  0.00000000000E+00 0. -1.
          1    1    1    2  502    0 -0.71829269916E+03  0.65929073906E+03  0.32016293032E+03  0.10262129322E+04  0.00000000000E+00 0. -1.
         22    1    3    3    0    0  0.29853586442E+03 -0.22558843671E+03 -0.32224670799E+03  0.49381853543E+03  0.00000000000E+00 0.  1.
         22    1    3    3    0    0  0.54312580822E+03 -0.55822691282E+03 -0.50063306012E+03  0.92587061225E+03  0.00000000000E+00 0.  1.
</event>
<event>
 7    1  0.2895750E-005  0.4690668E+02  0.7818608E-02  0.1574157E+00
          2   -1    0    0  502    0  0.00000000000E+00  0.00000000000E+00  0.68927498171E+03  0.68927498171E+03  0.00000000000E+00 0. -1.
          1   -1    0    0  501    0 -0.00000000000E+00 -0.00000000000E+00 -0.15901884062E+04  0.15901884062E+04  0.00000000000E+00 0. -1.
         25    2    1    2    0    0  0.26801744011E+02  0.57765284270E+02  0.29211877376E+03  0.32405638763E+03  0.12499601127E+03 0.  0.
          2    1    1    2  501    0 -0.18010519720E+02 -0.13007286971E+02 -0.15727763391E+04  0.15729332411E+04  0.00000000000E+00 0. -1.
          1    1    1    2  502    0 -0.87912242901E+01 -0.44757997299E+02  0.37974414081E+03  0.38247375914E+03  0.00000000000E+00 0. -1.
         22    1    3    3    0    0  0.41064907972E+02 -0.20226542068E+02  0.18623404975E+03  0.19177737342E+03  0.00000000000E+00 0. -1.
         22    1    3    3    0    0 -0.14263163961E+02  0.77991826337E+02  0.10588472401E+03  0.13227901421E+03  0.00000000000E+00 0. -1.
</event>
<event>
 7    1  0.2895750E-005  0.8805540E+02  0.7818608E-02  0.1435679E+00
          2   -1    0    0  502    0  0.00000000000E+00  0.00000000000E+00  0.35191783291E+03  0.35191783291E+03  0.00000000000E+00 0. -1.
          1   -1    0    0  501    0 -0.00000000000E+00 -0.00000000000E+00 -0.40399370994E+03  0.40399370994E+03  0.00000000000E+00 0. -1.
         25    2    1    2    0    0 -0.39146333018E+02  0.10273833296E+03 -0.62020456718E+02  0.17764609752E+03  0.12499599379E+03 0.  0.
          2    1    1    2  501    0  0.25456062807E+02 -0.16828032204E+02 -0.27687068311E+03  0.27854724728E+03  0.00000000000E+00 0. -1.
          1    1    1    2  502    0  0.13690270211E+02 -0.85910300753E+02  0.28681526279E+03  0.29971819806E+03  0.00000000000E+00 0. -1.
         22    1    3    3    0    0  0.25233917891E+00  0.11684372436E+03 -0.20374464590E+02  0.11860707569E+03  0.00000000000E+00 0. -1.
         22    1    3    3    0    0 -0.39398672197E+02 -0.14105391404E+02 -0.41645992129E+02  0.59039021824E+02  0.00000000000E+00 0. -1.
</event>
<event>
 7    1  0.2895750E-005  0.3462756E+03  0.7818608E-02  0.1143629E+00
          2   -1    0    0  502    0  0.00000000000E+00  0.00000000000E+00  0.28717210140E+03  0.28717210140E+03  0.00000000000E+00 0. -1.
          1   -1    0    0  501    0 -0.00000000000E+00 -0.00000000000E+00 -0.13116290076E+04  0.13116290076E+04  0.00000000000E+00 0. -1.
         25    2    1    2    0    0  0.10108519735E+03  0.40635831334E+03 -0.13581692280E+03  0.45761951293E+03  0.12499634456E+03 0.  0.
          2    1    1    2  501    0  0.51736994334E+01 -0.12413212209E+03 -0.82329476211E+03  0.83261624787E+03  0.00000000000E+00 0. -1.
          1    1    1    2  502    0 -0.10625889678E+03 -0.28222619125E+03 -0.65345221315E+02  0.30856534822E+03  0.00000000000E+00 0. -1.
         22    1    3    3    0    0  0.53368085034E+02  0.15828633369E+03 -0.11771646676E+03  0.20435234885E+03  0.00000000000E+00 0.  1.
         22    1    3    3    0    0  0.47717112316E+02  0.24807197965E+03 -0.18100456044E+02  0.25326716409E+03  0.00000000000E+00 0.  1.
</event>
<event>
 7    1  0.2895750E-005  0.7310672E+02  0.7818608E-02  0.1389815E+00
          2   -1    0    0  502    0  0.00000000000E+00  0.00000000000E+00  0.14062108741E+04  0.14062108741E+04  0.00000000000E+00 0. -1.
          1   -1    0    0  501    0 -0.00000000000E+00 -0.00000000000E+00 -0.76707698189E+03  0.76707698189E+03  0.00000000000E+00 0. -1.
         25    2    1    2    0    0 -0.93533226602E+02 -0.45613572531E+02  0.21942706696E+02  0.16411709732E+03  0.12499550704E+03 0.  0.
          2    1    1    2  501    0  0.42726267851E+02  0.58840367848E+02 -0.69356350081E+03  0.69736507835E+03  0.00000000000E+00 0. -1.
          1    1    1    2  502    0  0.50806958752E+02 -0.13226795317E+02  0.13107546864E+04  0.13118056803E+04  0.00000000000E+00 0. -1.
         22    1    3    3    0    0 -0.54967761157E+01 -0.70811385178E+02  0.76154746860E+01  0.71431521566E+02  0.00000000000E+00 0. -1.
         22    1    3    3    0    0 -0.88036450486E+02  0.25197812647E+02  0.14327232010E+02  0.92685575758E+02  0.00000000000E+00 0. -1.
</event>
<event>
 7    1  0.2895750E-005  0.6212601E+03  0.7818608E-02  0.1126294E+00
          2   -1    0    0  502    0  0.00000000000E+00  0.00000000000E+00  0.17335970147E+04  0.17335970147E+04  0.00000000000E+00 0. -1.
          1   -1    0    0  501    0 -0.00000000000E+00 -0.00000000000E+00 -0.11806608716E+04  0.11806608716E+04  0.00000000000E+00 0. -1.
         25    2    1    2    0    0 -0.55506985593E+03 -0.10096285456E+03  0.14248611023E+04  0.15375790632E+04  0.12499668716E+03 0.  0.
          2    1    1    2  501    0  0.60020158415E+03  0.17359697986E+03 -0.10255324960E+04  0.12008724967E+04  0.00000000000E+00 0. -1.
          1    1    1    2  502    0 -0.45131728218E+02 -0.72634125293E+02  0.15360753673E+03  0.17580632637E+03  0.00000000000E+00 0. -1.
         22    1    3    3    0    0 -0.14078014730E+03 -0.26560809556E+02  0.23239736047E+03  0.27300743512E+03  0.00000000000E+00 0.  1.
         22    1    3    3    0    0 -0.41428970863E+03 -0.74402045007E+02  0.11924637419E+04  0.12645716281E+04  0.00000000000E+00 0.  1.
</event>
<event>
 7    1  0.2895750E-005  0.7488021E+02  0.7818608E-02  0.1374983E+00
          2   -1    0    0  502    0  0.00000000000E+00  0.00000000000E+00  0.10155234438E+04  0.10155234438E+04  0.00000000000E+00 0. -1.
          1   -1    0    0  501    0 -0.00000000000E+00 -0.00000000000E+00 -0.18575667374E+03  0.18575667374E+03  0.00000000000E+00 0. -1.
         25    2    1    2    0    0 -0.12960968225E+03 -0.37106538773E+01  0.46610901842E+03  0.49969733821E+03  0.12500949594E+03 0.  0.
          2    1    1    2  501    0  0.72677485095E+02  0.13820004551E+02 -0.15919362000E+03  0.17554377806E+03  0.00000000000E+00 0. -1.
          1    1    1    2  502    0  0.56932197155E+02 -0.10109350674E+02  0.52285137160E+03  0.52603900124E+03  0.00000000000E+00 0. -1.
         22    1    3    3    0    0 -0.13469568308E+02  0.49733286446E+02  0.15518002619E+03  0.16351045710E+03  0.00000000000E+00 0. -1.
         22    1    3    3    0    0 -0.11614011394E+03 -0.53443940323E+02  0.31092899223E+03  0.33618688111E+03  0.00000000000E+00 0. -1.
</event>
<event>
 7    1  0.2895750E-005  0.5288252E+02  0.7818608E-02  0.1494469E+00
          2   -1    0    0  502    0  0.00000000000E+00  0.00000000000E+00  0.32376971925E+03  0.32376971925E+03  0.00000000000E+00 0. -1.
          1   -1    0    0  501    0 -0.00000000000E+00 -0.00000000000E+00 -0.55495192607E+03  0.55495192607E+03  0.00000000000E+00 0. -1.
         25    2    1    2    0    0 -0.70445119960E+02  0.73625555696E+00 -0.27392869156E+03  0.30922953926E+03  0.12499169130E+03 0.  0.
          2    1    1    2  501    0  0.46255400390E+02  0.22070869132E+02 -0.25996073444E+03  0.26496465572E+03  0.00000000000E+00 0. -1.
          1    1    1    2  502    0  0.24189719570E+02 -0.22807124689E+02  0.30270721918E+03  0.30452745034E+03  0.00000000000E+00 0. -1.
         22    1    3    3    0    0 -0.38372296622E+02 -0.19167835841E+02 -0.11924262471E+02  0.44519963099E+02  0.00000000000E+00 0. -1.
         22    1    3    3    0    0 -0.32072823338E+02  0.19904091398E+02 -0.26200442909E+03  0.26470957616E+03  0.00000000000E+00 0. -1.
</event>
<event>
 7    1  0.2895750E-005  0.1144128E+04  0.7818608E-02  0.1177706E+00
          2   -1    0    0  502    0  0.00000000000E+00  0.00000000000E+00  0.36714921949E+03  0.36714921949E+03  0.00000000000E+00 0. -1.
          1   -1    0    0  501    0 -0.00000000000E+00 -0.00000000000E+00 -0.37259588750E+04  0.37259588750E+04  0.00000000000E+00 0. -1.
         25    2    1    2    0    0 -0.28681951115E+03  0.11161433686E+04 -0.17302131856E+04  0.20826194578E+04  0.12499874865E+03 0.  0.
          2    1    1    2  501    0  0.30102222556E+03 -0.10952061445E+04 -0.16281485616E+04  0.19851847818E+04  0.00000000000E+00 0. -1.
          1    1    1    2  502    0 -0.14202714407E+02 -0.20937224105E+02 -0.44790826615E+00  0.25303854875E+02  0.00000000000E+00 0. -1.
         22    1    3    3    0    0 -0.14141805754E+03  0.49789613164E+03 -0.66866114016E+03  0.84558106959E+03  0.00000000000E+00 0. -1.
         22    1    3    3    0    0 -0.14540145361E+03  0.61824723693E+03 -0.10615520455E+04  0.12370383882E+04  0.00000000000E+00 0. -1.
</event>
<event>
 7    1  0.2895750E-005  0.8533140E+02  0.7818608E-02  0.1368205E+00
          2   -1    0    0  502    0  0.00000000000E+00  0.00000000000E+00  0.16979583427E+04  0.16979583427E+04  0.00000000000E+00 0. -1.
          1   -1    0    0  501    0 -0.00000000000E+00 -0.00000000000E+00 -0.22502361987E+03  0.22502361987E+03  0.00000000000E+00 0. -1.
         25    2    1    2    0    0 -0.73067011431E+02  0.53494344238E+02  0.91563403184E+03  0.92855317404E+03  0.12499953494E+03 0.  0.
          2    1    1    2  501    0  0.44683827915E+02  0.29715025432E+02 -0.21273079542E+03  0.21939466387E+03  0.00000000000E+00 0. -1.
          1    1    1    2  502    0  0.28383183515E+02 -0.83209369669E+02  0.77003148641E+03  0.77503412465E+03  0.00000000000E+00 0. -1.
         22    1    3    3    0    0  0.54434405605E+01 -0.29775054412E+02  0.88362788017E+02  0.93403250567E+02  0.00000000000E+00 0. -1.
         22    1    3    3    0    0 -0.78510451991E+02  0.83269398650E+02  0.82727124382E+03  0.83514992348E+03  0.00000000000E+00 0. -1.
</event>
<event>
 7    1  0.2895750E-005  0.4771695E+02  0.7818608E-02  0.1488278E+00
          2   -1    0    0  502    0  0.00000000000E+00  0.00000000000E+00  0.20080981302E+02  0.20080981302E+02  0.00000000000E+00 0. -1.
          1   -1    0    0  501    0 -0.00000000000E+00 -0.00000000000E+00 -0.24720737075E+04  0.24720737075E+04  0.00000000000E+00 0. -1.
         25    2    1    2    0    0  0.11178139935E+02  0.58928486676E+02 -0.10408525719E+04  0.10500460340E+04  0.12500031875E+03 0.  0.
          2    1    1    2  501    0  0.25717182586E+02 -0.28605114299E+02 -0.13888897235E+04  0.13894222865E+04  0.00000000000E+00 0. -1.
          1    1    1    2  502    0 -0.36895322521E+02 -0.30323372377E+02 -0.22250430711E+02  0.52686368285E+02  0.00000000000E+00 0. -1.
         22    1    3    3    0    0  0.31368684380E+02  0.83379886336E+02 -0.94266263291E+03  0.94686273519E+03  0.00000000000E+00 0.  1.
         22    1    3    3    0    0 -0.20190544445E+02 -0.24451399660E+02 -0.98189939036E+02  0.10318329883E+03  0.00000000000E+00 0.  1.
</event>
<event>
 7    1  0.2895750E-005  0.4370581E+03  0.7818608E-02  0.1130163E+00
          2   -1    0    0  502    0  0.00000000000E+00  0.00000000000E+00  0.30868289624E+04  0.30868289624E+04  0.00000000000E+00 0. -1.
          1   -1    0    0  501    0 -0.00000000000E+00 -0.00000000000E+00 -0.14874591384E+03  0.14874591384E+03  0.00000000000E+00 0. -1.
         25    2    1    2    0    0  0.34007203223E+03  0.30174022638E+03  0.37933819581E+03  0.60516777640E+03  0.12503767221E+03 0.  0.
          2    1    1    2  501    0 -0.22808220664E+03 -0.33158039963E+03  0.11788597827E+04  0.12456634544E+04  0.00000000000E+00 0. -1.
          1    1    1    2  502    0 -0.11198982559E+03  0.29840173257E+02  0.13798850701E+04  0.13847436454E+04  0.00000000000E+00 0. -1.
         22    1    3    3    0    0  0.34722410987E+03  0.30542312851E+03  0.37740541651E+03  0.59689422707E+03  0.00000000000E+00 0.  1.
         22    1    3    3    0    0 -0.71520776379E+01 -0.36829021315E+01  0.19327793017E+01  0.82735493277E+01  0.00000000000E+00 0.  1.
</event>
<event>
 7    1  0.2895750E-005  0.1161921E+03  0.7818608E-02  0.1337487E+00
          2   -1    0    0  502    0  0.00000000000E+00  0.00000000000E+00  0.25533654546E+03  0.25533654546E+03  0.00000000000E+00 0. -1.
          1   -1    0    0  501    0 -0.00000000000E+00 -0.00000000000E+00 -0.48699968478E+03  0.48699968478E+03  0.00000000000E+00 0. -1.
         25    2    1    2    0    0  0.11166380106E+03  0.11853001978E+02 -0.42375533929E+03  0.45585294186E+03  0.12499607556E+03 0.  0.
          2    1    1    2  501    0 -0.15600420519E+03  0.13668758525E+02  0.11640225578E+03  0.19512465797E+03  0.00000000000E+00 0. -1.
          1    1    1    2  502    0  0.44340404135E+02 -0.25521760503E+02  0.75689944195E+02  0.91358630409E+02  0.00000000000E+00 0. -1.
         22    1    3    3    0    0 -0.19682429759E+02 -0.15428124592E+02 -0.13707947168E+03  0.13934204902E+03  0.00000000000E+00 0.  1.
         22    1    3    3    0    0  0.13134623082E+03  0.27281126569E+02 -0.28667586761E+03  0.31651089284E+03  0.00000000000E+00 0.  1.
</event>
<event>
 7    1  0.2895750E-005  0.7274560E+02  0.7818608E-02  0.1432731E+00
          2   -1    0    0  502    0  0.00000000000E+00  0.00000000000E+00  0.11054461356E+04  0.11054461356E+04  0.00000000000E+00 0. -1.
          1   -1    0    0  501    0 -0.00000000000E+00 -0.00000000000E+00 -0.25788241070E+03  0.25788241070E+03  0.00000000000E+00 0. -1.
         25    2    1    2    0    0  0.73228699802E+02 -0.76702401558E+02 -0.13644894461E+03  0.21327886396E+03  0.12499543370E+03 0.  0.
          2    1    1    2  501    0 -0.34488734178E+02  0.15391483999E+02 -0.77420771612E+02  0.86141432782E+02  0.00000000000E+00 0. -1.
          1    1    1    2  502    0 -0.38739965624E+02  0.61310917559E+02  0.10614334411E+04  0.10639082495E+04  0.00000000000E+00 0. -1.
         22    1    3    3    0    0  0.52892552227E+02  0.21332616971E+02 -0.80283411585E+02  0.98479078000E+02  0.00000000000E+00 0.  1.
         22    1    3    3    0    0  0.20336147574E+02 -0.98035018529E+02 -0.56165533028E+02  0.11479978596E+03  0.00000000000E+00 0.  1.
</event>
<event>
 7    1  0.2895750E-005  0.1315005E+03  0.7818608E-02  0.1380662E+00
          2   -1    0    0  502    0  0.00000000000E+00  0.00000000000E+00  0.45222073223E+03  0.45222073223E+03  0.00000000000E+00 0. -1.
          1   -1    0    0  501    0 -0.00000000000E+00 -0.00000000000E+00 -0.15998171573E+04  0.15998171573E+04  0.00000000000E+00 0. -1.
         25    2    1    2    0    0 -0.23119846041E+02  0.12111244512E+03 -0.16268534415E+03  0.23936756295E+03  0.12501022899E+03 0.  0.
          2    1    1    2  501    0  0.29504237536E+02  0.10836338611E+02 -0.13880670067E+04  0.13884228252E+04  0.00000000000E+00 0. -1.
          1    1    1    2  502    0 -0.63843914954E+01 -0.13194878373E+03  0.40315592578E+03  0.42424750144E+03  0.00000000000E+00 0. -1.
         22    1    3    3    0    0  0.26659629227E+02  0.11358114368E+03 -0.14476903752E+03  0.18592871283E+03  0.00000000000E+00 0. -1.
         22    1    3    3    0    0 -0.49779475268E+02  0.75313014337E+01 -0.17916306628E+02  0.53438850123E+02  0.00000000000E+00 0. -1.
</event>
<event>
 7    1  0.2895750E-005  0.1715782E+03  0.7818608E-02  0.1363393E+00
          2   -1    0    0  502    0  0.00000000000E+00  0.00000000000E+00  0.95251023996E+03  0.95251023996E+03  0.00000000000E+00 0. -1.
          1   -1    0    0  501    0 -0.00000000000E+00 -0.00000000000E+00 -0.12358252896E+03  0.12358252896E+03  0.00000000000E+00 0. -1.
         25    2    1    2    0    0 -0.92906136829E+02  0.14408622723E+03  0.11320323992E+03  0.24048385111E+03  0.12500047192E+03 0.  0.
          2    1    1    2  501    0  0.11564612462E+03 -0.12813048264E+03  0.65222420257E+02  0.18451398545E+03  0.00000000000E+00 0. -1.
          1    1    1    2  502    0 -0.22739987795E+02 -0.15955744590E+02  0.65050205082E+03  0.65109493237E+03  0.00000000000E+00 0. -1.
         22    1    3    3    0    0 -0.74955306123E+02  0.10116375684E+03  0.13878759812E+03  0.18738836946E+03  0.00000000000E+00 0.  1.
         22    1    3    3    0    0 -0.17950830706E+02  0.42922470385E+02 -0.25584358208E+02  0.53095481652E+02  0.00000000000E+00 0.  1.
</event>
<event>
 7    1  0.2895750E-005  0.9018384E+02  0.7818608E-02  0.1325200E+00
          2   -1    0    0  502    0  0.00000000000E+00  0.00000000000E+00  0.32964023879E+04  0.32964023879E+04  0.00000000000E+00 0. -1.
          1   -1    0    0  501    0 -0.00000000000E+00 -0.00000000000E+00 -0.87390325123E+02  0.87390325123E+02  0.00000000000E+00 0. -1.
         25    2    1    2    0    0 -0.11330406870E+03 -0.11412956021E+03  0.33274841603E+03  0.39014006548E+03  0.12499757527E+03 0.  0.
          2    1    1    2  501    0  0.44479373427E+02  0.58416833844E+02 -0.34793010843E+02  0.81249583017E+02  0.00000000000E+00 0. -1.
          1    1    1    2  502    0  0.68824695272E+02  0.55712726368E+02  0.29110566576E+04  0.29124030645E+04  0.00000000000E+00 0. -1.
         22    1    3    3    0    0 -0.33958407815E+02  0.20196725059E+02  0.30179904119E+02  0.49718284133E+02  0.00000000000E+00 0. -1.
         22    1    3    3    0    0 -0.79345660884E+02 -0.13432628527E+03  0.30256851191E+03  0.34042178135E+03  0.00000000000E+00 0. -1.
</event>
<event>
 7    1  0.2895750E-005  0.1354291E+03  0.7818608E-02  0.1233082E+00
          2   -1    0    0  502    0  0.00000000000E+00  0.00000000000E+00  0.16907929427E+04  0.16907929427E+04  0.00000000000E+00 0. -1.
          1   -1    0    0  501    0 -0.00000000000E+00 -0.00000000000E+00 -0.12442298613E+04  0.12442298613E+04  0.00000000000E+00 0. -1.
         25    2    1    2    0    0 -0.13942883773E+03 -0.15734695505E+03  0.50277976118E+03  0.55911664100E+03  0.12500185974E+03 0.  0.
          2    1    1    2  501    0  0.24240401777E+02  0.13292023153E+03 -0.12093008908E+04  0.12168253899E+04  0.00000000000E+00 0. -1.
          1    1    1    2  502    0  0.11518843596E+03  0.24426723519E+02  0.11530842111E+04  0.11590807730E+04  0.00000000000E+00 0. -1.
         22    1    3    3    0    0  0.12390337159E+01 -0.53453217984E+02  0.22186883144E+03  0.22822041995E+03  0.00000000000E+00 0.  1.
         22    1    3    3    0    0 -0.14066787145E+03 -0.10389373707E+03  0.28091092974E+03  0.33089622105E+03  0.00000000000E+00 0.  1.
</event>
<event>
 7    1  0.2895750E-005  0.4190160E+03  0.7818608E-02  0.1167242E+00
          2   -1    0    0  502    0  0.00000000000E+00  0.00000000000E+00  0.93552601987E+03  0.93552601987E+03  0.00000000000E+00 0. -1.
          1   -1    0    0  501    0 -0.00000000000E+00 -0.00000000000E+00 -0.83975674834E+03  0.83975674834E+03  0.00000000000E+00 0. -1.
         25    2    1    2    0    0  0.26375335462E+03 -0.32265813779E+03 -0.36751911580E+03  0.56953429764E+03  0.12499963901E+03 0.  0.
          2    1    1    2  501    0 -0.32511195031E+03  0.27478712119E+03 -0.24636889279E+03  0.49183673464E+03  0.00000000000E+00 0. -1.
          1    1    1    2  502    0  0.61358595685E+02  0.47871016601E+02  0.70965728011E+03  0.71391173594E+03  0.00000000000E+00 0. -1.
         22    1    3    3    0    0  0.20913222257E+03 -0.27698664347E+03 -0.23514393517E+03  0.41922614115E+03  0.00000000000E+00 0. -1.
         22    1    3    3    0    0  0.54621132054E+02 -0.45671494322E+02 -0.13237518063E+03  0.15030815649E+03  0.00000000000E+00 0. -1.
</event>
<event>
 7    1  0.2895750E-005  0.2975831E+03  0.7818608E-02  0.1115097E+00
          2   -1    0    0  502    0  0.00000000000E+00  0.00000000000E+00  0.23448710278E+03  0.23448710278E+03  0.00000000000E+00 0. -1.
          1   -1    0    0  501    0 -0.00000000000E+00 -0.00000000000E+00 -0.32061926732E+04  0.32061926732E+04  0.00000000000E+00 0. -1.
         25    2    1    2    0    0  0.19737480367E+03 -0.34006486911E+03 -0.45925042107E+03  0.61736204145E+03  0.12499605052E+03 0.  0.
          2    1    1    2  501    0 -0.19748028419E+03  0.56202247985E+02 -0.25305622325E+04  0.25388781711E+04  0.00000000000E+00 0. -1.
          1    1    1    2  502    0  0.10548052438E+00  0.28386262112E+03  0.18107083097E+02  0.28443956345E+03  0.00000000000E+00 0. -1.
         22    1    3    3    0    0  0.34183146465E+02 -0.39785473786E+02 -0.10840803697E+02  0.53562061680E+02  0.00000000000E+00 0.  1.
         22    1    3    3    0    0  0.16319165721E+03 -0.30027939532E+03 -0.44840961737E+03  0.56379997977E+03  0.00000000000E+00 0.  1.
</event>
<event>
 7    1  0.2895750E-005  0.2465262E+03  0.7818608E-02  0.1236556E+00
          2   -1    0    0  502    0  0.00000000000E+00  0.00000000000E+00  0.26322852759E+04  0.26322852759E+04  0.00000000000E+00 0. -1.
          1   -1    0    0  501    0 -0.00000000000E+00 -0.00000000000E+00 -0.22483464343E+03  0.22483464343E+03  0.00000000000E+00 0. -1.
         25    2    1    2    0    0  0.25998562091E+03 -0.19693128441E+02  0.70970774996E+03  0.76634952200E+03  0.12500462845E+03 0.  0.
          2    1    1    2  501    0 -0.24243410848E+03 -0.40213266919E+02 -0.11893902581E+03  0.27301629191E+03  0.00000000000E+00 0. -1.
          1    1    1    2  502    0 -0.17551512432E+02  0.59906395360E+02  0.18166819083E+04  0.18177541054E+04  0.00000000000E+00 0. -1.
         22    1    3    3    0    0  0.18196296083E+03  0.25208808525E+02  0.34686431259E+03  0.39250586555E+03  0.00000000000E+00 0.  1.
         22    1    3    3    0    0  0.78022660081E+02 -0.44901936966E+02  0.36284343737E+03  0.37384365645E+03  0.00000000000E+00 0.  1.
</event>
<event>
 7    1  0.2895750E-005  0.8783464E+02  0.7818608E-02  0.1338437E+00
          2   -1    0    0  502    0  0.00000000000E+00  0.00000000000E+00  0.22296277007E+03  0.22296277007E+03  0.00000000000E+00 0. -1.
          1   -1    0    0  501    0 -0.00000000000E+00 -0.00000000000E+00 -0.18860631576E+04  0.18860631576E+04  0.00000000000E+00 0. -1.
         25    2    1    2    0    0 -0.11965072982E+03  0.71589813517E+02 -0.46680638690E+03  0.50296539467E+03  0.12499834736E+03 0.  0.
          2    1    1    2  501    0  0.67085291564E+02 -0.22213718305E+01 -0.13910882034E+04  0.13927066311E+04  0.00000000000E+00 0. -1.
          1    1    1    2  502    0  0.52565438257E+02 -0.69368441686E+02  0.19479420276E+03  0.21335390184E+03  0.00000000000E+00 0. -1.
         22    1    3    3    0    0 -0.13089172720E+03  0.81774115664E+02 -0.46193258589E+03  0.48703322695E+03  0.00000000000E+00 0.  1.
         22    1    3    3    0    0  0.11240997376E+02 -0.10184302147E+02 -0.48738010060E+01  0.15932167727E+02  0.00000000000E+00 0.  1.
</event>
<event>
 7    1  0.2895750E-005  0.9323702E+02  0.7818608E-02  0.1349813E+00
          2   -1    0    0  502    0  0.00000000000E+00  0.00000000000E+00  0.12318784034E+04  0.12318784034E+04  0.00000000000E+00 0. -1.
          1   -1    0    0  501    0 -0.00000000000E+00 -0.00000000000E+00 -0.93741122155E+03  0.93741122155E+03  0.00000000000E+00 0. -1.
         25    2    1    2    0    0  0.30802729316E+02  0.11141554356E+03  0.22835150969E+03  0.28483603210E+03  0.12499968689E+03 0.  0.
          2    1    1    2  501    0  0.22540530753E+02 -0.90398659126E+02 -0.90593524933E+03  0.91071327490E+03  0.00000000000E+00 0. -1.
          1    1    1    2  502    0 -0.53343260070E+02 -0.21016884431E+02  0.97205092150E+03  0.97374031795E+03  0.00000000000E+00 0. -1.
         22    1    3    3    0    0  0.22582502552E+02  0.11581549312E+03  0.95888781818E+02  0.15204557325E+03  0.00000000000E+00 0. -1.
         22    1    3    3    0    0  0.82202267644E+01 -0.43999495600E+01  0.13246272787E+03  0.13279045884E+03  0.00000000000E+00 0. -1.
</event>
<event>
 7    1  0.2895750E-005  0.4522248E+02  0.7818608E-02  0.1568860E+00
          2   -1    0    0  502    0  0.00000000000E+00  0.00000000000E+00  0.28692942847E+04  0.28692942847E+04  0.00000000000E+00 0. -1.
          1   -1    0    0  501    0 -0.00000000000E+00 -0.00000000000E+00 -0.10468844441E+03  0.10468844441E+03  0.00000000000E+00 0. -1.
         25    2    1    2    0    0 -0.30424994451E+02 -0.13316849324E+02  0.17739455189E+04  0.17786551926E+04  0.12501428431E+03 0.  0.
          2    1    1    2  501    0  0.26379251497E+02  0.36789441924E+02 -0.97190370400E+02  0.10721611840E+03  0.00000000000E+00 0. -1.
          1    1    1    2  502    0  0.40457429536E+01 -0.23472592600E+02  0.10878506917E+04  0.10881114181E+04  0.00000000000E+00 0. -1.
         22    1    3    3    0    0 -0.15920573125E+02  0.51594151750E+02  0.48532845481E+03  0.48832277255E+03  0.00000000000E+00 0.  1.
         22    1    3    3    0    0 -0.14504421326E+02 -0.64911001073E+02  0.12886170641E+04  0.12903324200E+04  0.00000000000E+00 0.  1.
</event>
<event>
 7    1  0.2895750E-005  0.1945225E+03  0.7818608E-02  0.1286085E+00
          2   -1    0    0  502    0  0.00000000000E+00  0.00000000000E+00  0.16778076196E+04  0.16778076196E+04  0.00000000000E+00 0. -1.
          1   -1    0    0  501    0 -0.00000000000E+00 -0.00000000000E+00 -0.47658531883E+03  0.47658531883E+03  0.00000000000E+00 0. -1.
         25    2    1    2    0    0 -0.14242215108E+03 -0.14621730143E+03  0.23445994658E+03  0.33505265453E+03  0.12500098560E+03 0.  0.
          2    1    1    2  501    0 -0.22003994803E+02  0.43407808094E+02 -0.41812197325E+03  0.42094464970E+03  0.00000000000E+00 0. -1.
          1    1    1    2  502    0  0.16442614588E+03  0.10280949334E+03  0.13848843274E+04  0.13983956342E+04  0.00000000000E+00 0. -1.
         22    1    3    3    0    0  0.92356566504E+01 -0.51973952838E+02  0.21132018835E+02  0.56860806777E+02  0.00000000000E+00 0.  1.
         22    1    3    3    0    0 -0.15165780773E+03 -0.94243348593E+02  0.21332792775E+03  0.27819184775E+03  0.00000000000E+00 0.  1.
</event>
<event>
 7    1  0.2895750E-005  0.6096604E+03  0.7818608E-02  0.1145555E+00
          2   -1    0    0  502    0  0.00000000000E+00  0.00000000000E+00  0.30268314083E+03  0.30268314083E+03  0.00000000000E+00 0. -1.
          1   -1    0    0  501    0 -0.00000000000E+00 -0.00000000000E+00 -0.23612656749E+04  0.23612656749E+04  0.00000000000E+00 0. -1.
         25    2    1    2    0    0 -0.58196709891E+03 -0.99787085667E+02 -0.40760071370E+03  0.72828930960E+03  0.12499523985E+03 0.  0.
          2    1    1    2  501    0  0.59364635000E+03  0.16774953136E+03 -0.17264958329E+04  0.18333967806E+04  0.00000000000E+00 0. -1.
          1    1    1    2  502    0 -0.11679251090E+02 -0.67962445694E+02  0.75514012564E+02  0.10226272549E+03  0.00000000000E+00 0. -1.
         22    1    3    3    0    0 -0.47033691285E+03 -0.12609176930E+03 -0.30630446569E+03  0.57527243248E+03  0.00000000000E+00 0. -1.
         22    1    3    3    0    0 -0.11163018606E+03  0.26304683631E+02 -0.10129624801E+03  0.15301687711E+03  0.00000000000E+00 0. -1.
</event>
<event>
 7    1  0.2895750E-005  0.8739698E+03  0.7818608E-02  0.1031522E+00
          2   -1    0    0  502    0  0.00000000000E+00  0.00000000000E+00  0.23299197294E+04  0.23299197294E+04  0.00000000000E+00 0. -1.
          1   -1    0    0  501    0 -0.00000000000E+00 -0.00000000000E+00 -0.12088271904E+04  0.12088271904E+04  0.00000000000E+00 0. -1.
         25    2    1    2    0    0 -0.40363492087E+03 -0.77942369221E+03  0.63298661653E+03  0.10893679063E+04  0.12501174861E+03 0.  0.
          2    1    1    2  501    0  0.19830128775E+03  0.85554841807E+03 -0.77265769086E+03  0.11697377499E+04  0.00000000000E+00 0. -1.
          1    1    1    2  502    0  0.20533363312E+03 -0.76124725863E+02  0.12607636133E+04  0.12796412636E+04  0.00000000000E+00 0. -1.
         22    1    3    3    0    0 -0.98697521975E+02 -0.10504597974E+03  0.13358551261E+03  0.19652213077E+03  0.00000000000E+00 0. -1.
         22    1    3    3    0    0 -0.30493739890E+03 -0.67437771247E+03  0.49940110393E+03  0.89284577555E+03  0.00000000000E+00 0. -1.
</event>
<event>
 7    1  0.2895750E-005  0.1849420E+03  0.7818608E-02  0.1178605E+00
          2   -1    0    0  502    0  0.00000000000E+00  0.00000000000E+00  0.36483728795E+04  0.36483728795E+04  0.00000000000E+00 0. -1.
          1   -1    0    0  501    0 -0.00000000000E+00 -0.00000000000E+00 -0.53992161391E+03  0.53992161391E+03  0.00000000000E+00 0. -1.
         25    2    1    2    0    0  0.84425971508E+02 -0.94857666780E+02  0.13251527888E+04  0.13370790533E+04  0.12499903826E+03 0.  0.
          2    1    1    2  501    0 -0.14817882879E+03 -0.11066432020E+03 -0.51276139772E+03  0.54509431116E+03  0.00000000000E+00 0. -1.
          1    1    1    2  502    0  0.63752857283E+02  0.20552198698E+03  0.22960598745E+04  0.23061211290E+04  0.00000000000E+00 0. -1.
         22    1    3    3    0    0 -0.35015451357E+01  0.25370974182E+02  0.31010676901E+03  0.31116258666E+03  0.00000000000E+00 0.  1.
         22    1    3    3    0    0  0.87927516644E+02 -0.12022864096E+03  0.10150460198E+04  0.10259164667E+04  0.00000000000E+00 0.  1.
</event>
<event>
 7    1  0.2895750E-005  0.8862438E+02  0.7818608E-02  0.1483419E+00
          2   -1    0    0  502    0  0.00000000000E+00  0.00000000000E+00  0.29270420990E+02  0.29270420990E+02  0.00000000000E+00 0. -1.
          1   -1    0    0  501    0 -0.00000000000E+00 -0.00000000000E+00 -0.64859374888E+03  0.64859374888E+03  0.00000000000E+00 0. -1.
         25    2    1    2    0    0 -0.51347867756E+02  0.51909935080E+02 -0.44852440757E+03  0.47130695746E+03  0.12499943635E+03 0.  0.
          2    1    1    2  501    0 -0.19311262699E+02  0.92861520065E+01 -0.44898688332E+02  0.49749871357E+02  0.00000000000E+00 0. -1.
          1    1    1    2  502    0  0.70659130455E+02 -0.61196087086E+02 -0.12590023199E+03  0.15680734105E+03  0.00000000000E+00 0. -1.
         22    1    3    3    0    0 -0.34219286256E+02  0.90712545454E+02 -0.36463984779E+03  0.37730881788E+03  0.00000000000E+00 0.  1.
         22    1    3    3    0    0 -0.17128581500E+02 -0.38802610375E+02 -0.83884559782E+02  0.93998139588E+02  0.00000000000E+00 0.  1.
</event>
<event>
 7    1  0.2895750E-005  0.2212060E+03  0.7818608E-02  0.1187771E+00
          2   -1    0    0  502    0  0.00000000000E+00  0.00000000000E+00  0.12093818719E+03  0.12093818719E+03  0.00000000000E+00 0. -1.
          1   -1    0    0  501    0 -0.00000000000E+00 -0.00000000000E+00 -0.20306247057E+04  0.20306247057E+04  0.00000000000E+00 0. -1.
         25    2    1    2    0    0  0.54151391502E+02  0.14328645516E+03 -0.80253168781E+03  0.82652614671E+03  0.12499991926E+03 0.  0.
          2    1    1    2  501    0 -0.74578380871E+02  0.90049564949E+02 -0.10833057712E+04  0.10895972894E+04  0.00000000000E+00 0. -1.
          1    1    1    2  502    0  0.20426989368E+02 -0.23333602011E+03 -0.23849059439E+02  0.23543945678E+03  0.00000000000E+00 0. -1.
         22    1    3    3    0    0 -0.28601330185E+01  0.55110366810E+02 -0.84935800004E+02  0.10128880991E+03  0.00000000000E+00 0. -1.
         22    1    3    3    0    0  0.57011524521E+02  0.88176088351E+02 -0.71759588781E+03  0.72523733680E+03  0.00000000000E+00 0. -1.
</event>
<event>
 7    1  0.2895750E-005  0.8260988E+02  0.7818608E-02  0.1483413E+00
          2   -1    0    0  502    0  0.00000000000E+00  0.00000000000E+00  0.21529012565E+04  0.21529012565E+04  0.00000000000E+00 0. -1.
          1   -1    0    0  501    0 -0.00000000000E+00 -0.00000000000E+00 -0.20691938734E+03  0.20691938734E+03  0.00000000000E+00 0. -1.
         25    2    1    2    0    0 -0.69201478253E+02  0.81187875339E+01  0.61795094398E+02  0.15588141950E+03  0.12500249578E+03 0.  0.
          2    1    1    2  501    0 -0.12961433676E+02 -0.18986753347E+02 -0.15820500384E+03  0.15986656563E+03  0.00000000000E+00 0. -1.
          1    1    1    2  502    0  0.82162911928E+02  0.10867965813E+02  0.20423917786E+04  0.20440726587E+04  0.00000000000E+00 0. -1.
         22    1    3    3    0    0  0.22253279839E+02 -0.34065420760E+02  0.28981681278E+02  0.49955972665E+02  0.00000000000E+00 0.  1.
         22    1    3    3    0    0 -0.91454758092E+02  0.42184208294E+02  0.32813413120E+02  0.10592544684E+03  0.00000000000E+00 0.  1.
</event>
<event>
 7    1  0.2895750E-005  0.3133375E+03  0.7818608E-02  0.1275653E+00
          2   -1    0    0  502    0  0.00000000000E+00  0.00000000000E+00  0.31745328422E+03  0.31745328422E+03  0.00000000000E+00 0. -1.
          1   -1    0    0  501    0 -0.00000000000E+00 -0.00000000000E+00 -0.97733261354E+03  0.97733261354E+03  0.00000000000E+00 0. -1.
         25    2    1    2    0    0  0.73284071710E+02 -0.28059095379E+03 -0.23693350892E+03  0.39479659325E+03  0.12500009550E+03 0.  0.
          2    1    1    2  501    0 -0.35916177952E+01 -0.33166802792E+02 -0.55246344456E+03  0.55346977705E+03  0.00000000000E+00 0. -1.
          1    1    1    2  502    0 -0.69692453915E+02  0.31375775659E+03  0.12951762416E+03  0.34651952747E+03  0.00000000000E+00 0. -1.
         22    1    3    3    0    0  0.76891732541E+02 -0.27744584408E+03 -0.24973805852E+03  0.38112679360E+03  0.00000000000E+00 0.  1.
         22    1    3    3    0    0 -0.36076608309E+01 -0.31451097151E+01  0.12804549603E+02  0.13669799645E+02  0.00000000000E+00 0.  1.
</event>
<event>
 7    1  0.2895750E-005  0.4957209E+03  0.7818608E-02  0.1131561E+00
          2   -1    0    0  502    0  0.00000000000E+00  0.00000000000E+00  0.97044048152E+03  0.97044048152E+03  0.00000000000E+00 0. -1.
          1   -1    0    0  501    0 -0.00000000000E+00 -0.00000000000E+00 -0.35796671830E+03  0.35796671830E+03  0.00000000000E+00 0. -1.
         25    2    1    2    0    0  0.32559266800E+03  0.38301280167E+03  0.31228222058E+03  0.60485959288E+03  0.12500220042E+03 0.  0.
          2    1    1    2  501    0  0.63385081799E+02 -0.77920890818E+02 -0.55286457178E+02  0.11465568528E+03  0.00000000000E+00 0. -1.
          1    1    1    2  502    0 -0.38897774980E+03 -0.30509191085E+03  0.35547799982E+03  0.60889192165E+03  0.00000000000E+00 0. -1.
         22    1    3    3    0    0 -0.50242109120E+01  0.61795002841E+01  0.26807656675E+02  0.27965682103E+02  0.00000000000E+00 0.  1.
         22    1    3    3    0    0  0.33061687891E+03  0.37683330138E+03  0.28547456391E+03  0.57689391077E+03  0.00000000000E+00 0.  1.
</event>
<event>
 7    1  0.2895750E-005  0.1050413E+03  0.7818608E-02  0.1366799E+00
          2   -1    0    0  502    0  0.00000000000E+00  0.00000000000E+00  0.72110280047E+03  0.72110280047E+03  0.00000000000E+00 0. -1.
          1   -1    0    0  501    0 -0.00000000000E+00 -0.00000000000E+00 -0.63205335282E+03  0.63205335282E+03  0.00000000000E+00 0. -1.
         25    2    1    2    0    0  0.14288235108E+03 -0.22700154159E+02 -0.51748356784E+03  0.55167397372E+03  0.12499706816E+03 0.  0.
          2    1    1    2  501    0 -0.38121237368E+02  0.22182141867E+02 -0.88349608738E+02  0.98746794988E+02  0.00000000000E+00 0. -1.
          1    1    1    2  502    0 -0.10476111371E+03  0.51801229229E+00  0.69488262423E+03  0.70273538458E+03  0.00000000000E+00 0. -1.
         22    1    3    3    0    0  0.10234073918E+03  0.36566701581E+02 -0.21652990339E+03  0.24227246980E+03  0.00000000000E+00 0.  1.
         22    1    3    3    0    0  0.40541611903E+02 -0.59266855741E+02 -0.30095366445E+03  0.30940150392E+03  0.00000000000E+00 0.  1.
</event>
<event>
 7    1  0.2895750E-005  0.8106752E+02  0.7818608E-02  0.1392842E+00
          2   -1    0    0  502    0  0.00000000000E+00  0.00000000000E+00  0.60585641090E+02  0.60585641090E+02  0.00000000000E+00 0. -1.
          1   -1    0    0  501    0 -0.00000000000E+00 -0.00000000000E+00 -0.97879378866E+03  0.97879378866E+03  0.00000000000E+00 0. -1.
         25    2    1    2    0    0 -0.59666640497E+02 -0.67042232946E+02 -0.15088496669E+03  0.21551605488E+03  0.12500451092E+03 0.  0.
          2    1    1    2  501    0  0.15262469135E+02  0.79833023424E+02 -0.77304022016E+03  0.77730138079E+03  0.00000000000E+00 0. -1.
          1    1    1    2  502    0  0.44404171362E+02 -0.12790790478E+02  0.57170392704E+01  0.46561994088E+02  0.00000000000E+00 0. -1.
         22    1    3    3    0    0  0.14811736590E+02 -0.76559619564E+02 -0.87980156324E+02  0.11756390090E+03  0.00000000000E+00 0.  1.
         22    1    3    3    0    0 -0.74478377087E+02  0.95173866183E+01 -0.62904810361E+02  0.97952153974E+02  0.00000000000E+00 0.  1.
</event>
<event>
 7    1  0.2895750E-005  0.1353381E+04  0.7818608E-02  0.9199300E-01
          2   -1    0    0  502    0  0.00000000000E+00  0.00000000000E+00  0.30852696092E+04  0.30852696092E+04  0.00000000000E+00 0. -1.
          1   -1    0    0  501    0 -0.00000000000E+00 -0.00000000000E+00 -0.27398686227E+04  0.27398686227E+04  0.00000000000E+00 0. -1.
         25    2    1    2    0    0  0.43436525774E+03 -0.68896179857E+03  0.58681703502E+03  0.10115932509E+04  0.12500054259E+03 0.  0.
          2    1    1    2  501    0  0.92799222087E+03  0.98512513862E+03 -0.20950261500E+04  0.24941482855E+04  0.00000000000E+00 0. -1.
          1    1    1    2  502    0 -0.13623574786E+04 -0.29616334005E+03  0.18536101015E+04  0.23193966956E+04  0.00000000000E+00 0. -1.
         22    1    3    3    0    0  0.98919367309E+01  0.35289092700E+01  0.14819597362E+02  0.18163812345E+02  0.00000000000E+00 0. -1.
         22    1    3    3    0    0  0.42447332101E+03 -0.69249070784E+03  0.57199743766E+03  0.99342943855E+03  0.00000000000E+00 0. -1.
</event>
<event>
 7    1  0.2895750E-005  0.1079488E+04  0.7818608E-02  0.1103401E+00
          2   -1    0    0  502    0  0.00000000000E+00  0.00000000000E+00  0.11015918855E+04  0.11015918855E+04  0.00000000000E+00 0. -1.
          1   -1    0    0  501    0 -0.00000000000E+00 -0.00000000000E+00 -0.40387133038E+04  0.40387133038E+04  0.00000000000E+00 0. -1.
         25    2    1    2    0    0 -0.38357385419E+03  0.97784541846E+03 -0.18266591801E+04  0.21108335501E+04  0.12499580706E+03 0.  0.
          2    1    1    2  501    0 -0.65059815000E+02  0.91971534691E+01 -0.17628750117E+04  0.17640991112E+04  0.00000000000E+00 0. -1.
          1    1    1    2  502    0  0.44863366919E+03 -0.98704257193E+03  0.65241277349E+03  0.12653725281E+04  0.00000000000E+00 0. -1.
         22    1    3    3    0    0 -0.85249681542E+02  0.20746884027E+03 -0.29501487583E+03  0.37060033034E+03  0.00000000000E+00 0.  1.
         22    1    3    3    0    0 -0.29832417265E+03  0.77037657819E+03 -0.15316443043E+04  0.17402332197E+04  0.00000000000E+00 0.  1.
</event>
<event>
 7    1  0.2895750E-005  0.1072500E+03  0.7818608E-02  0.1331656E+00
          2   -1    0    0  502    0  0.00000000000E+00  0.00000000000E+00  0.27696502974E+04  0.27696502974E+04  0.00000000000E+00 0. -1.
          1   -1    0    0  501    0 -0.00000000000E+00 -0.00000000000E+00 -0.47926424425E+03  0.47926424425E+03  0.00000000000E+00 0. -1.
         25    2    1    2    0    0 -0.16064089043E+02 -0.10347558772E+03  0.23454229406E+03  0.28565718179E+03  0.12499874238E+03 0.  0.
          2    1    1    2  501    0 -0.54243952891E+02  0.21426916117E+02 -0.45066373712E+03  0.45442196593E+03  0.00000000000E+00 0. -1.
          1    1    1    2  502    0  0.70308041934E+02  0.82048671603E+02  0.25065074962E+04  0.25088353939E+04  0.00000000000E+00 0. -1.
         22    1    3    3    0    0 -0.53226782392E+02 -0.10398829219E+03  0.21237143609E+03  0.24238044918E+03  0.00000000000E+00 0.  1.
         22    1    3    3    0    0  0.37162693348E+02  0.51270447381E+00  0.22170857970E+02  0.43276732616E+02  0.00000000000E+00 0.  1.
</event>
<event>
 7    1  0.2895750E-005  0.2313055E+03  0.7818608E-02  0.1176310E+00
          2   -1    0    0  502    0  0.00000000000E+00  0.00000000000E+00  0.13227754080E+04  0.13227754080E+04  0.00000000000E+00 0. -1.
          1   -1    0    0  501    0 -0.00000000000E+00 -0.00000000000E+00 -0.75488476374E+03  0.75488476374E+03  0.00000000000E+00 0. -1.
         25    2    1    2    0    0 -0.13317304904E+03 -0.19931537827E+03  0.83041174147E+03  0.87330984799E+03  0.12499899686E+03 0.  0.
          2    1    1    2  501    0  0.10218342008E+02  0.23163776618E+03 -0.70595261151E+03  0.74305420995E+03  0.00000000000E+00 0. -1.
          1    1    1    2  502    0  0.12295470703E+03 -0.32322387912E+02  0.44343151427E+03  0.46129611378E+03  0.00000000000E+00 0. -1.
         22    1    3    3    0    0 -0.91909633098E+02 -0.19833367644E+03  0.58612445651E+03  0.62556015409E+03  0.00000000000E+00 0.  1.
         22    1    3    3    0    0 -0.41263415939E+02 -0.98170183032E+00  0.24428728496E+03  0.24774969390E+03  0.00000000000E+00 0.  1.
</event>
<event>
 7    1  0.2895750E-005  0.1230647E+03  0.7818608E-02  0.1315479E+00
          2   -1    0    0  502    0  0.00000000000E+00  0.00000000000E+00  0.76724373870E+03  0.76724373870E+03  0.00000000000E+00 0. -1.
          1   -1    0    0  501    0 -0.00000000000E+00 -0.00000000000E+00 -0.17229321065E+03  0.17229321065E+03  0.00000000000E+00 0. -1.
         25    2    1    2    0    0 -0.17216875428E+03  0.27426329703E+02  0.19189087553E+03  0.28782089948E+03  0.12499791420E+03 0.  0.
          2    1    1    2  501    0  0.58607974243E+02 -0.29926480915E+01 -0.11053610724E+03  0.12514823846E+03  0.00000000000E+00 0. -1.
          1    1    1    2  502    0  0.11356078003E+03 -0.24433681611E+02  0.51359575976E+03  0.52656781140E+03  0.00000000000E+00 0. -1.
         22    1    3    3    0    0 -0.14665467793E+03  0.33935970275E+02  0.75337135345E+02  0.16832982089E+03  0.00000000000E+00 0. -1.
         22    1    3    3    0    0 -0.25514076346E+02 -0.65096405725E+01  0.11655374018E+03  0.11949107859E+03  0.00000000000E+00 0. -1.
</event>
<event>
 7    1  0.2895750E-005  0.1106303E+03  0.7818608E-02  0.1316823E+00
          2   -1    0    0  502    0  0.00000000000E+00  0.00000000000E+00  0.27720957884E+04  0.27720957884E+04  0.00000000000E+00 0. -1.
          1   -1    0    0  501    0 -0.00000000000E+00 -0.00000000000E+00 -0.20975190789E+04  0.20975190789E+04  0.00000000000E+00 0. -1.
         25    2    1    2    0    0  0.12130952742E+03 -0.51854354224E+02  0.52862253148E+03  0.55899112872E+03  0.12499770280E+03 0.  0.
          2    1    1    2  501    0 -0.54005984937E+02 -0.35258066294E+02 -0.20804751346E+04  0.20814746127E+04  0.00000000000E+00 0. -1.
          1    1    1    2  502    0 -0.67303542487E+02  0.87112420517E+02  0.22264293127E+04  0.22291491258E+04  0.00000000000E+00 0. -1.
         22    1    3    3    0    0  0.70821620754E+02 -0.33111972128E+02  0.99682261922E+02  0.12668329806E+03  0.00000000000E+00 0.  1.
         22    1    3    3    0    0  0.50487906670E+02 -0.18742382095E+02  0.42894026956E+03  0.43230783067E+03  0.00000000000E+00 0.  1.
</event>
<event>
 7    1  0.2895750E-005  0.8470974E+02  0.7818608E-02  0.1390262E+00
          2   -1    0    0  502    0  0.00000000000E+00  0.00000000000E+00  0.17679788093E+04  0.17679788093E+04  0.00000000000E+00 0. -1.
          1   -1    0    0  501    0 -0.00000000000E+00 -0.00000000000E+00 -0.28978895750E+02  0.28978895750E+02  0.00000000000E+00 0. -1.
         25    2    1    2    0    0 -0.57974670804E+02  0.26627616827E+02  0.46643054189E+03  0.48708546283E+03  0.12499882104E+03 0.  0.
          2    1    1    2  501    0  0.56261271975E+02 -0.71742110272E+02  0.95844536764E+02  0.13228165533E+03  0.00000000000E+00 0. -1.
          1    1    1    2  502    0  0.17133988289E+01  0.45114493444E+02  0.11767248349E+04  0.11775905868E+04  0.00000000000E+00 0. -1.
         22    1    3    3    0    0 -0.82619522185E+02 -0.11015428069E+02  0.19674468966E+03  0.21367217417E+03  0.00000000000E+00 0.  1.
         22    1    3    3    0    0  0.24644851381E+02  0.37643044897E+02  0.26968585222E+03  0.27341328866E+03  0.00000000000E+00 0.  1.
</event>
<event>
 7    1  0.2895750E-005  0.2251575E+03  0.7818608E-02  0.1151376E+00
          2   -1    0    0  502    0  0.00000000000E+00  0.00000000000E+00  0.10897717505E+04  0.10897717505E+04  0.00000000000E+00 0. -1.
          1   -1    0    0  501    0 -0.00000000000E+00 -0.00000000000E+00 -0.57131766504E+03  0.57131766504E+03  0.00000000000E+00 0. -1.
         25    2    1    2    0    0  0.34009101452E+03  0.41164040602E+02  0.27228251258E+03  0.45510362155E+03  0.12500065316E+03 0.  0.
          2    1    1    2  501    0 -0.14022249303E+03 -0.10343440065E+03 -0.44812828936E+03  0.48081179947E+03  0.00000000000E+00 0. -1.
          1    1    1    2  502    0 -0.19986852150E+03  0.62270360050E+02  0.69429986228E+03  0.72517399456E+03  0.00000000000E+00 0. -1.
         22    1    3    3    0    0  0.50691939278E+02 -0.18012304685E+02  0.63880052576E+00  0.53800779678E+02  0.00000000000E+00 0. -1.
         22    1    3    3    0    0  0.28939907525E+03  0.59176345287E+02  0.27164371206E+03  0.40130284187E+03  0.00000000000E+00 0. -1.
</event>
<event>
 7    1  0.2895750E-005  0.5939499E+02  0.7818608E-02  0.1476487E+00
          2   -1    0    0  502    0  0.00000000000E+00  0.00000000000E+00  0.41058830592E+04  0.41058830592E+04  0.00000000000E+00 0. -1.
          1   -1    0    0  501    0 -0.00000000000E+00 -0.00000000000E+00 -0.20280933627E+04  0.20280933627E+04  0.00000000000E+00 0. -1.
         25    2    1    2    0    0  0.82723864461E+02 -0.32324737775E+02  0.75150039325E+02  0.17076703888E+03  0.12500290690E+03 0.  0.
          2    1    1    2  501    0 -0.33568459085E+02 -0.78985362684E+00 -0.19799220098E+04  0.19802067140E+04  0.00000000000E+00 0. -1.
          1    1    1    2  502    0 -0.49155405377E+02  0.33114591402E+02  0.39825616670E+04  0.39830026690E+04  0.00000000000E+00 0. -1.
         22    1    3    3    0    0  0.62489319568E+02 -0.42781197287E+02  0.10732039223E+03  0.13134996189E+03  0.00000000000E+00 0.  1.
         22    1    3    3    0    0  0.20234544893E+02  0.10456459512E+02 -0.32170352902E+02  0.39417076989E+02  0.00000000000E+00 0.  1.
</event>
<event>
 7    1  0.2895750E-005  0.4825344E+03  0.7818608E-02  0.1171205E+00
          2   -1    0    0  502    0  0.00000000000E+00  0.00000000000E+00  0.10179066131E+04  0.10179066131E+04  0.00000000000E+00 0. -1.
          1   -1    0    0  501    0 -0.00000000000E+00 -0.00000000000E+00 -0.15564110645E+04  0.15564110645E+04  0.00000000000E+00 0. -1.
         25    2    1    2    0    0  0.47622353188E+03  0.19539043438E+03  0.39910235429E+03  0.66323003905E+03  0.12500048536E+03 0.  0.
          2    1    1    2  501    0 -0.44261708485E+02 -0.47027932803E+02 -0.13162384220E+04  0.13178218047E+04  0.00000000000E+00 0. -1.
          1    1    1    2  502    0 -0.43196182339E+03 -0.14836250157E+03  0.37863161636E+03  0.59326583388E+03  0.00000000000E+00 0. -1.
         22    1    3    3    0    0  0.95188438644E+02  0.31278108780E+02  0.14656191090E+03  0.17753746835E+03  0.00000000000E+00 0. -1.
         22    1    3    3    0    0  0.38103509323E+03  0.16411232560E+03  0.25254044339E+03  0.48569257070E+03  0.00000000000E+00 0. -1.
</event>
<event>
 7    1  0.2895750E-005  0.9455717E+02  0.7818608E-02  0.1464201E+00
          2   -1    0    0  502    0  0.00000000000E+00  0.00000000000E+00  0.54867922561E+03  0.54867922561E+03  0.00000000000E+00 0. -1.
          1   -1    0    0  501    0 -0.00000000000E+00 -0.00000000000E+00 -0.10508863119E+04  0.10508863119E+04  0.00000000000E+00 0. -1.
         25    2    1    2    0    0  0.12065457227E+02  0.79719636469E+02  0.43862628866E+03  0.46316076992E+03  0.12499632792E+03 0.  0.
          2    1    1    2  501    0  0.56261102697E+01 -0.94464885101E+02 -0.10350739482E+04  0.10393908533E+04  0.00000000000E+00 0. -1.
          1    1    1    2  502    0 -0.17691567497E+02  0.14745248632E+02  0.94240573263E+02  0.97013914294E+02  0.00000000000E+00 0. -1.
         22    1    3    3    0    0  0.61971814146E+02  0.65792264129E+02  0.20804915867E+03  0.22683381624E+03  0.00000000000E+00 0. -1.
         22    1    3    3    0    0 -0.49906356919E+02  0.13927372340E+02  0.23057712999E+03  0.23632695368E+03  0.00000000000E+00 0. -1.
</event>
<event>
 7    1  0.2895750E-005  0.4587813E+03  0.7818608E-02  0.1138834E+00
          2   -1    0    0  502    0  0.00000000000E+00  0.00000000000E+00  0.16762817946E+04  0.16762817946E+04  0.00000000000E+00 0. -1.
          1   -1    0    0  501    0 -0.00000000000E+00 -0.00000000000E+00 -0.68193691904E+03  0.68193691904E+03  0.00000000000E+00 0. -1.
         25    2    1    2    0    0  0.94171056197E+02 -0.42913313727E+03  0.13198437561E+03  0.47548215932E+03  0.12505987005E+03 0.  0.
          2    1    1    2  501    0  0.99156570129E+02  0.60812454026E+01 -0.46538815645E+03  0.47587303255E+03  0.00000000000E+00 0. -1.
          1    1    1    2  502    0 -0.19332762633E+03  0.42305189187E+03  0.13277486564E+04  0.14068635217E+04  0.00000000000E+00 0. -1.
         22    1    3    3    0    0  0.44261039581E+02 -0.28849770393E+02  0.23097549525E+02  0.57661474752E+02  0.00000000000E+00 0. -1.
         22    1    3    3    0    0  0.49910016616E+02 -0.40028336688E+03  0.10888682609E+03  0.41782068457E+03  0.00000000000E+00 0. -1.
</event>
<event>
 7    1  0.2895750E-005  0.3186918E+03  0.7818608E-02  0.1144380E+00
          2   -1    0    0  502    0  0.00000000000E+00  0.00000000000E+00  0.12981515745E+04  0.12981515745E+04  0.00000000000E+00 0. -1.
          1   -1    0    0  501    0 -0.00000000000E+00 -0.00000000000E+00 -0.67970187946E+03  0.67970187946E+03  0.00000000000E+00 0. -1.
         25    2    1    2    0    0 -0.20482442319E+03  0.30020371884E+03 -0.33901166864E+03  0.51247253204E+03  0.12499546982E+03 0.  0.
          2    1    1    2  501    0  0.23029147862E+03 -0.16886542830E+03 -0.16844966978E+03  0.33154937679E+03  0.00000000000E+00 0. -1.
          1    1    1    2  502    0 -0.25467055430E+02 -0.13133829054E+03  0.11259110335E+04  0.11338315452E+04  0.00000000000E+00 0. -1.
         22    1    3    3    0    0 -0.16798725667E+03  0.22137712493E+03 -0.31922828963E+03  0.42324254364E+03  0.00000000000E+00 0.  1.
         22    1    3    3    0    0 -0.36837166519E+02  0.78826593907E+02 -0.19783379015E+02  0.89229988397E+02  0.00000000000E+00 0.  1.
</event>
<event>
 7    1  0.2895750E-005  0.1444099E+03  0.7818608E-02  0.1270290E+00
          2   -1    0    0  502    0  0.00000000000E+00  0.00000000000E+00  0.66571602270E+03  0.66571602270E+03  0.00000000000E+00 0. -1.
          1   -1    0    0  501    0 -0.00000000000E+00 -0.00000000000E+00 -0.17046166378E+04  0.17046166378E+04  0.00000000000E+00 0. -1.
         25    2    1    2    0    0 -0.16549941086E+03  0.12966406220E+03 -0.41088742629E+03  0.47817951125E+03  0.12499737549E+03 0.  0.
          2    1    1    2  501    0  0.11804776633E+03 -0.70017052968E+02 -0.12540274458E+04  0.12615159522E+04  0.00000000000E+00 0. -1.
          1    1    1    2  502    0  0.47451644525E+02 -0.59647009235E+02  0.62601425701E+03  0.63063719701E+03  0.00000000000E+00 0. -1.
         22    1    3    3    0    0 -0.15451156399E+03  0.12910271271E+03 -0.26973083083E+03  0.33659479339E+03  0.00000000000E+00 0. -1.
         22    1    3    3    0    0 -0.10987846873E+02  0.56134948925E+00 -0.14115659546E+03  0.14158471787E+03  0.00000000000E+00 0. -1.
</event>
<event>
 7    1  0.2895750E-005  0.3597275E+03  0.7818608E-02  0.1123189E+00
          2   -1    0    0  502    0  0.00000000000E+00  0.00000000000E+00  0.38571325907E+04  0.38571325907E+04  0.00000000000E+00 0. -1.
          1   -1    0    0  501    0 -0.00000000000E+00 -0.00000000000E+00 -0.55945656115E+03  0.55945656115E+03  0.00000000000E+00 0. -1.
         25    2    1    2    0    0  0.27175991084E+03 -0.28859237542E+03  0.13785652620E+04  0.14398640097E+04  0.12500870578E+03 0.  0.
          2    1    1    2  501    0 -0.14759954436E+03 -0.42079862378E+02 -0.50459325147E+03  0.52741889400E+03  0.00000000000E+00 0. -1.
          1    1    1    2  502    0 -0.12416036648E+03  0.33067223780E+03  0.24237040191E+04  0.24493062482E+04  0.00000000000E+00 0. -1.
         22    1    3    3    0    0  0.27199846288E+03 -0.29905132476E+03  0.13563399048E+04  0.14152995428E+04  0.00000000000E+00 0. -1.
         22    1    3    3    0    0 -0.23855203272E+00  0.10458949341E+02  0.22225357200E+02  0.24564466838E+02  0.00000000000E+00 0. -1.
</event>
<event>
 7    1  0.2895750E-005  0.8803465E+03  0.7818608E-02  0.1058266E+00
          2   -1    0    0  502    0  0.00000000000E+00  0.00000000000E+00  0.26119096893E+04  0.26119096893E+04  0.00000000000E+00 0. -1.
          1   -1    0    0  501    0 -0.00000000000E+00 -0.00000000000E+00 -0.21699592937E+04  0.21699592937E+04  0.00000000000E+00 0. -1.
         25    2    1    2    0    0  0.33554946758E+03  0.81090307102E+03 -0.74172118031E+03  0.11558255320E+04  0.12500046174E+03 0.  0.
          2    1    1    2  501    0 -0.19813364777E+03 -0.86552455587E+03 -0.10570277669E+04  0.13804699921E+04  0.00000000000E+00 0. -1.
          1    1    1    2  502    0 -0.13741581981E+03  0.54621484853E+02  0.22406993428E+04  0.22455734588E+04  0.00000000000E+00 0. -1.
         22    1    3    3    0    0  0.37292226524E+02  0.39361581655E+02 -0.79432525366E+02  0.96174686668E+02  0.00000000000E+00 0.  1.
         22    1    3    3    0    0  0.29825724105E+03  0.77154148936E+03 -0.66228865495E+03  0.10596508454E+04  0.00000000000E+00 0.  1.
</event>
<event>
 7    1  0.2895750E-005  0.1603741E+03  0.7818608E-02  0.1224896E+00
          2   -1    0    0  502    0  0.00000000000E+00  0.00000000000E+00  0.35519389396E+02  0.35519389396E+02  0.00000000000E+00 0. -1.
          1   -1    0    0  501    0 -0.00000000000E+00 -0.00000000000E+00 -0.25600234443E+04  0.25600234443E+04  0.00000000000E+00 0. -1.
         25    2    1    2    0    0 -0.14123333140E+03 -0.26172941430E+02 -0.77060838366E+03  0.79378487231E+03  0.12500106311E+03 0.  0.
          2    1    1    2  501    0  0.21566377556E+02 -0.10604858974E+03 -0.14120593503E+04  0.14162002051E+04  0.00000000000E+00 0. -1.
          1    1    1    2  502    0  0.11966695385E+03  0.13222153117E+03 -0.34183632090E+03  0.38555775629E+03  0.00000000000E+00 0. -1.
         22    1    3    3    0    0 -0.14328930744E+03 -0.30825960231E+02 -0.45269252497E+03  0.47582831737E+03  0.00000000000E+00 0. -1.
         22    1    3    3    0    0  0.20559760323E+01  0.46530188007E+01 -0.31791585869E+03  0.31795655494E+03  0.00000000000E+00 0. -1.
</event>
<event>
 7    1  0.2895750E-005  0.5081718E+03  0.7818608E-02  0.1072045E+00
          2   -1    0    0  502    0  0.00000000000E+00  0.00000000000E+00  0.44732286213E+03  0.44732286213E+03  0.00000000000E+00 0. -1.
          1   -1    0    0  501    0 -0.00000000000E+00 -0.00000000000E+00 -0.17706952698E+04  0.17706952698E+04  0.00000000000E+00 0. -1.
         25    2    1    2    0    0 -0.39803755989E+03 -0.51801051156E+03 -0.11215069237E+04  0.13039062724E+04  0.12499999303E+03 0.  0.
          2    1    1    2  501    0  0.15844766892E+03  0.14032095190E+03  0.21571637035E+03  0.30220719012E+03  0.00000000000E+00 0. -1.
          1    1    1    2  502    0  0.23958989097E+03  0.37768955966E+03 -0.41758185434E+03  0.61190466938E+03  0.00000000000E+00 0. -1.
         22    1    3    3    0    0 -0.11071982595E+03 -0.24446567703E+03 -0.44489075022E+03  0.51956724949E+03  0.00000000000E+00 0.  1.
         22    1    3    3    0    0 -0.28731773394E+03 -0.27354483453E+03 -0.67661617343E+03  0.78433902292E+03  0.00000000000E+00 0.  1.
</event>
<event>
 7    1  0.2895750E-005  0.7721992E+03  0.7818608E-02  0.9714480E-01
          2   -1    0    0  502    0  0.00000000000E+00  0.00000000000E+00  0.14545778587E+04  0.14545778587E+04  0.00000000000E+00 0. -1.
          1   -1    0    0  501    0 -0.00000000000E+00 -0.00000000000E+00 -0.10411534276E+04  0.10411534276E+04  0.00000000000E+00 0. -1.
         25    2    1    2    0    0  0.22977543873E+03 -0.82999387078E+03 -0.86172494701E+02  0.87449306555E+03  0.12500338026E+03 0.  0.
          2    1    1    2  501    0 -0.62553777386E+03  0.12279757663E+03 -0.54059448735E+02  0.63976493758E+03  0.00000000000E+00 0. -1.
          1    1    1    2  502    0  0.39576233513E+03  0.70719629416E+03  0.55365637453E+03  0.98147328310E+03  0.00000000000E+00 0. -1.
         22    1    3    3    0    0  0.12213910965E+03 -0.24065622795E+03 -0.49169018460E+01  0.26992139241E+03  0.00000000000E+00 0.  1.
         22    1    3    3    0    0  0.10763632909E+03 -0.58933764283E+03 -0.81255592855E+02  0.60457167314E+03  0.00000000000E+00 0.  1.
</event>
<event>
 7    1  0.2895750E-005  0.8873587E+02  0.7818608E-02  0.1338017E+00
          2   -1    0    0  502    0  0.00000000000E+00  0.00000000000E+00  0.73914034324E+03  0.73914034324E+03  0.00000000000E+00 0. -1.
          1   -1    0    0  501    0 -0.00000000000E+00 -0.00000000000E+00 -0.34104189548E+04  0.34104189548E+04  0.00000000000E+00 0. -1.
         25    2    1    2    0    0  0.34407209484E+02 -0.14992924785E+03 -0.16758462834E+03  0.25956284871E+03  0.12500251738E+03 0.  0.
          2    1    1    2  501    0 -0.74799144649E+01  0.66262136323E+02 -0.31937094941E+04  0.31944055711E+04  0.00000000000E+00 0. -1.
          1    1    1    2  502    0 -0.26927295019E+02  0.83667111527E+02  0.69001551084E+03  0.69559087829E+03  0.00000000000E+00 0. -1.
         22    1    3    3    0    0 -0.28727067936E-01 -0.12522529574E+03 -0.50465534984E+02  0.13501165039E+03  0.00000000000E+00 0. -1.
         22    1    3    3    0    0  0.34435936552E+02 -0.24703952108E+02 -0.11711909335E+03  0.12455119833E+03  0.00000000000E+00 0. -1.
</event>
<event>
 7    1  0.2895750E-005  0.5088349E+02  0.7818608E-02  0.1513947E+00
          2   -1    0    0  502    0  0.00000000000E+00  0.00000000000E+00  0.36141509953E+03  0.36141509953E+03  0.00000000000E+00 0. -1.
          1   -1    0    0  501    0 -0.00000000000E+00 -0.00000000000E+00 -0.25614993995E+03  0.25614993995E+03  0.00000000000E+00 0. -1.
         25    2    1    2    0    0 -0.68144710925E+02 -0.11080616936E+02 -0.11798302083E+03  0.18523480862E+03  0.12500183767E+03 0.  0.
          2    1    1    2  501    0  0.41426022643E+02  0.25257960124E+02 -0.98162919914E+02  0.10949903537E+03  0.00000000000E+00 0. -1.
          1    1    1    2  502    0  0.26718688282E+02 -0.14177343188E+02  0.32141110032E+03  0.32283119548E+03  0.00000000000E+00 0. -1.
         22    1    3    3    0    0 -0.62046837035E+02  0.12673889421E+02  0.14152652986E+01  0.63343827126E+02  0.00000000000E+00 0. -1.
         22    1    3    3    0    0 -0.60978738904E+01 -0.23754506357E+02 -0.11939828613E+03  0.12189098149E+03  0.00000000000E+00 0. -1.
</event>
<event>
 7    1  0.2895750E-005  0.2889727E+03  0.7818608E-02  0.1151242E+00
          2   -1    0    0  502    0  0.00000000000E+00  0.00000000000E+00  0.28463391320E+04  0.28463391320E+04  0.00000000000E+00 0. -1.
          1   -1    0    0  501    0 -0.00000000000E+00 -0.00000000000E+00 -0.22969971784E+03  0.22969971784E+03  0.00000000000E+00 0. -1.
         25    2    1    2    0    0  0.29154742993E+03 -0.29365991897E+03  0.29849420346E+03  0.52531894263E+03  0.12500060032E+03 0.  0.
          2    1    1    2  501    0 -0.10895607227E+03  0.81359179324E+02 -0.65324464967E+02  0.15085763974E+03  0.00000000000E+00 0. -1.
          1    1    1    2  502    0 -0.18259135765E+03  0.21230073965E+03  0.23834696756E+04  0.23998622674E+04  0.00000000000E+00 0. -1.
         22    1    3    3    0    0  0.12102880662E+03 -0.62093007685E+02  0.48950412004E+02  0.14456713482E+03  0.00000000000E+00 0.  1.
         22    1    3    3    0    0  0.17051862331E+03 -0.23156691129E+03  0.24954379145E+03  0.38075180781E+03  0.00000000000E+00 0.  1.
</event>
<event>
 7    1  0.2895750E-005  0.1971239E+03  0.7818608E-02  0.1337134E+00
          2   -1    0    0  502    0  0.00000000000E+00  0.00000000000E+00  0.48463485977E+03  0.48463485977E+03  0.00000000000E+00 0. -1.
          1   -1    0    0  501    0 -0.00000000000E+00 -0.00000000000E+00 -0.33971713653E+03  0.33971713653E+03  0.00000000000E+00 0. -1.
         25    2    1    2    0    0 -0.18686831168E+03 -0.24350463467E+02  0.10335199017E+03  0.24863622423E+03  0.12500250856E+03 0.  0.
          2    1    1    2  501    0 -0.14778450139E+02  0.26393073560E+02 -0.23305368488E+03  0.23500854656E+03  0.00000000000E+00 0. -1.
          1    1    1    2  502    0  0.20164676182E+03 -0.20426100928E+01  0.27461941795E+03  0.34070722552E+03  0.00000000000E+00 0. -1.
         22    1    3    3    0    0 -0.15473724567E+03  0.33626333575E+02  0.85648066205E+02  0.18002759997E+03  0.00000000000E+00 0.  1.
         22    1    3    3    0    0 -0.32131066006E+02 -0.57976797042E+02  0.17703923962E+02  0.68608624251E+02  0.00000000000E+00 0.  1.
</event>
<event>
 7    1  0.2895750E-005  0.2911417E+03  0.7818608E-02  0.1159911E+00
          2   -1    0    0  502    0  0.00000000000E+00  0.00000000000E+00  0.54437853724E+03  0.54437853724E+03  0.00000000000E+00 0. -1.
          1   -1    0    0  501    0 -0.00000000000E+00 -0.00000000000E+00 -0.35692411241E+03  0.35692411241E+03  0.00000000000E+00 0. -1.
         25    2    1    2    0    0  0.43272936448E+01 -0.25637923775E+03 -0.42172971894E+02  0.28836945172E+03  0.12501736721E+03 0.  0.
          2    1    1    2  501    0 -0.11775893285E+03 -0.31569016490E+02 -0.10226913011E+03  0.15913121643E+03  0.00000000000E+00 0. -1.
          1    1    1    2  502    0  0.11343163921E+03  0.28794825424E+03  0.33189652683E+03  0.45380198150E+03  0.00000000000E+00 0. -1.
         22    1    3    3    0    0  0.19194266289E+02 -0.11918405443E+03  0.40703602046E+02  0.12739718171E+03  0.00000000000E+00 0. -1.
         22    1    3    3    0    0 -0.14866972644E+02 -0.13719518333E+03 -0.82876573939E+02  0.16097227001E+03  0.00000000000E+00 0. -1.
</event>
<event>
 7    1  0.2895750E-005  0.2327878E+03  0.7818608E-02  0.1207846E+00
          2   -1    0    0  502    0  0.00000000000E+00  0.00000000000E+00  0.12781256732E+03  0.12781256732E+03  0.00000000000E+00 0. -1.
          1   -1    0    0  501    0 -0.00000000000E+00 -0.00000000000E+00 -0.98089896406E+03  0.98089896406E+03  0.00000000000E+00 0. -1.
         25    2    1    2    0    0 -0.17302130204E+03  0.77256615529E+02 -0.69048542244E+03  0.72684174060E+03  0.12499536664E+03 0.  0.
          2    1    1    2  501    0 -0.12454084487E+02  0.88394570061E+02 -0.93369229398E+01  0.89754567386E+02  0.00000000000E+00 0. -1.
          1    1    1    2  502    0  0.18547538653E+03 -0.16565118559E+03 -0.15326405137E+03  0.29211522339E+03  0.00000000000E+00 0. -1.
         22    1    3    3    0    0 -0.12634430427E+03 -0.11024254553E+02 -0.36722025857E+03  0.38850371390E+03  0.00000000000E+00 0. -1.
         22    1    3    3    0    0 -0.46676997775E+02  0.88280870082E+02 -0.32326516387E+03  0.33833802671E+03  0.00000000000E+00 0. -1.
</event>
<event>
 7    1  0.2895750E-005  0.1695069E+03  0.7818608E-02  0.1247710E+00
          2   -1    0    0  502    0  0.00000000000E+00  0.00000000000E+00  0.19019206270E+04  0.19019206270E+04  0.00000000000E+00 0. -1.
          1   -1    0    0  501    0 -0.00000000000E+00 -0.00000000000E+00 -0.20420448507E+04  0.20420448507E+04  0.00000000000E+00 0. -1.
         25    2    1    2    0    0 -0.97449783831E+02 -0.19213012055E+03  0.48207359258E+03  0.54261446663E+03  0.12500026859E+03 0.  0.
          2    1    1    2  501    0 -0.20452350152E+02  0.78477243555E+02 -0.20061274598E+04  0.20077660126E+04  0.00000000000E+00 0. -1.
          1    1    1    2  502    0  0.11790213398E+03  0.11365287699E+03  0.13839296435E+04  0.13935849984E+04  0.00000000000E+00 0. -1.
         22    1    3    3    0    0 -0.41643087201E+02 -0.34184032404E+01  0.15834765775E+03  0.16376755756E+03  0.00000000000E+00 0.  1.
         22    1    3    3    0    0 -0.55806696630E+02 -0.18871171731E+03  0.32372593482E+03  0.37884690907E+03  0.00000000000E+00 0.  1.
</event>
<event>
 7    1  0.2895750E-005  0.2951368E+03  0.7818608E-02  0.1209133E+00
          2   -1    0    0  502    0  0.00000000000E+00  0.00000000000E+00  0.89577602610E+03  0.89577602610E+03  0.00000000000E+00 0. -1.
          1   -1    0    0  501    0 -0.00000000000E+00 -0.00000000000E+00 -0.83113980065E+03  0.83113980065E+03  0.00000000000E+00 0. -1.
         25    2    1    2    0    0  0.31917848997E+03  0.21212773180E+02  0.48570048001E+03  0.59485762631E+03  0.12500299635E+03 0.  0.
          2    1    1    2  501    0 -0.47376695112E+02 -0.50776106337E+02 -0.72208042749E+03  0.72541223314E+03  0.00000000000E+00 0. -1.
          1    1    1    2  502    0 -0.27180179485E+03  0.29563333157E+02  0.30101617293E+03  0.40664596730E+03  0.00000000000E+00 0. -1.
         22    1    3    3    0    0  0.25001477315E+03  0.12063653191E+02  0.27009168880E+03  0.36824236432E+03  0.00000000000E+00 0. -1.
         22    1    3    3    0    0  0.69163716815E+02  0.91491199888E+01  0.21560879121E+03  0.22661526199E+03  0.00000000000E+00 0. -1.
</event>
<event>
 7    1  0.2895750E-005  0.4639379E+03  0.7818608E-02  0.1179450E+00
          2   -1    0    0  502    0  0.00000000000E+00  0.00000000000E+00  0.23170271262E+04  0.23170271262E+04  0.00000000000E+00 0. -1.
          1   -1    0    0  501    0 -0.00000000000E+00 -0.00000000000E+00 -0.36176443478E+03  0.36176443478E+03  0.00000000000E+00 0. -1.
         25    2    1    2    0    0 -0.40612358743E+03 -0.11568785263E+03  0.49581341921E+03  0.66315736214E+03  0.12500677095E+03 0.  0.
          2    1    1    2  501    0 -0.61104779854E+02  0.29977778209E+01 -0.24095980893E+03  0.24860492817E+03  0.00000000000E+00 0. -1.
          1    1    1    2  502    0  0.46722836729E+03  0.11269007481E+03  0.17004090811E+04  0.17670292707E+04  0.00000000000E+00 0. -1.
         22    1    3    3    0    0 -0.78967696270E+02 -0.71442017824E+02  0.16038895426E+03  0.19252136405E+03  0.00000000000E+00 0.  1.
         22    1    3    3    0    0 -0.32715589116E+03 -0.44245834804E+02  0.33542446495E+03  0.47063599810E+03  0.00000000000E+00 0.  1.
</event>
<event>
 7    1  0.2895750E-005  0.2567792E+03  0.7818608E-02  0.1148096E+00
          2   -1    0    0  502    0  0.00000000000E+00  0.00000000000E+00  0.52239686727E+03  0.52239686727E+03  0.00000000000E+00 0. -1.
          1   -1    0    0  501    0 -0.00000000000E+00 -0.00000000000E+00 -0.34340122628E+04  0.34340122628E+04  0.00000000000E+00 0. -1.
         25    2    1    2    0    0  0.46914482742E+02 -0.12498071851E+03 -0.17829180824E+03  0.25541048194E+03  0.12500158683E+03 0.  0.
          2    1    1    2  501    0 -0.31253373279E+02 -0.15573817579E+03 -0.31741623083E+04  0.31781342816E+04  0.00000000000E+00 0. -1.
          1    1    1    2  502    0 -0.15661109463E+02  0.28071889430E+03  0.44083872092E+03  0.52286436657E+03  0.00000000000E+00 0. -1.
         22    1    3    3    0    0  0.12219923359E+02 -0.48216895822E+02 -0.16218899752E+03  0.16964511925E+03  0.00000000000E+00 0.  1.
         22    1    3    3    0    0  0.34694559383E+02 -0.76763822689E+02 -0.16102810721E+02  0.85765362692E+02  0.00000000000E+00 0.  1.
</event>
<event>
 7    1  0.2895750E-005  0.3560809E+03  0.7818608E-02  0.1089808E+00
          2   -1    0    0  502    0  0.00000000000E+00  0.00000000000E+00  0.57748997587E+03  0.57748997587E+03  0.00000000000E+00 0. -1.
          1   -1    0    0  501    0 -0.00000000000E+00 -0.00000000000E+00 -0.51088546052E+03  0.51088546052E+03  0.00000000000E+00 0. -1.
         25    2    1    2    0    0  0.69578090286E+02 -0.48436191451E+03  0.25732213085E+02  0.50570232317E+03  0.12500047200E+03 0.  0.
          2    1    1    2  501    0 -0.14773085294E+03  0.18644222289E+03 -0.81215467198E+02  0.25135842834E+03  0.00000000000E+00 0. -1.
          1    1    1    2  502    0  0.78152762659E+02  0.29791969162E+03  0.12208776946E+03  0.33131468488E+03  0.00000000000E+00 0. -1.
         22    1    3    3    0    0  0.16447353123E+02 -0.12924428726E+03  0.62970769155E+02  0.14470631977E+03  0.00000000000E+00 0. -1.
         22    1    3    3    0    0  0.53130737162E+02 -0.35511762725E+03 -0.37238556069E+02  0.36099600340E+03  0.00000000000E+00 0. -1.
</event>
<event>
 7    1  0.2895750E-005  0.9033085E+02  0.7818608E-02  0.1315962E+00
          2   -1    0    0  502    0  0.00000000000E+00  0.00000000000E+00  0.15312541629E+03  0.15312541629E+03  0.00000000000E+00 0. -1.
          1   -1    0    0  501    0 -0.00000000000E+00 -0.00000000000E+00 -0.18843498400E+04  0.18843498400E+04  0.00000000000E+00 0. -1.
         25    2    1    2    0    0 -0.14451480053E+03 -0.49028134095E+02 -0.44587977016E+03  0.48756824057E+03  0.12500293705E+03 0.  0.
          2    1    1    2  501    0  0.65353778556E+02  0.57410926415E+02 -0.14041808793E+04  0.14068727990E+04  0.00000000000E+00 0. -1.
          1    1    1    2  502    0  0.79161021970E+02 -0.83827923197E+01  0.11883622573E+03  0.14303421672E+03  0.00000000000E+00 0. -1.
         22    1    3    3    0    0 -0.27468405375E+02 -0.61777138322E+02 -0.88993189886E+02  0.11176187167E+03  0.00000000000E+00 0. -1.
         22    1    3    3    0    0 -0.11704639515E+03  0.12749004227E+02 -0.35688658027E+03  0.37580636890E+03  0.00000000000E+00 0. -1.
</event>
<event>
 7    1  0.2895750E-005  0.6485463E+02  0.7818608E-02  0.1469852E+00
          2   -1    0    0  502    0  0.00000000000E+00  0.00000000000E+00  0.46747071476E+03  0.46747071476E+03  0.00000000000E+00 0. -1.
          1   -1    0    0  501    0 -0.00000000000E+00 -0.00000000000E+00 -0.20980636953E+03  0.20980636953E+03  0.00000000000E+00 0. -1.
         25    2    1    2    0    0 -0.79974234387E+02 -0.54593653517E+01  0.13749664346E+03  0.20238239446E+03  0.12501049471E+03 0.  0.
          2    1    1    2  501    0  0.22780727439E+02 -0.22814960870E+02 -0.17243182548E+03  0.17542011977E+03  0.00000000000E+00 0. -1.
          1    1    1    2  502    0  0.57193506947E+02  0.28274326222E+02  0.29259952726E+03  0.29947457006E+03  0.00000000000E+00 0. -1.
         22    1    3    3    0    0 -0.25581735514E+02  0.58660506415E+02  0.67055041840E+02  0.92692280374E+02  0.00000000000E+00 0. -1.
         22    1    3    3    0    0 -0.54392498873E+02 -0.64119871766E+02  0.70441601617E+02  0.10969011408E+03  0.00000000000E+00 0. -1.
</event>
<event>
 7    1  0.2895750E-005  0.2122452E+03  0.7818608E-02  0.1234333E+00
          2   -1    0    0  502    0  0.00000000000E+00  0.00000000000E+00  0.69419905894E+03  0.69419905894E+03  0.00000000000E+00 0. -1.
          1   -1    0    0  501    0 -0.00000000000E+00 -0.00000000000E+00 -0.66640763175E+03  0.66640763175E+03  0.00000000000E+00 0. -1.
         25    2    1    2    0    0  0.22640656689E+03  0.13380891194E+03 -0.22408247202E+03  0.36743070309E+03  0.12501043501E+03 0.  0.
          2    1    1    2  501    0 -0.15365342329E+03 -0.11935456376E+03 -0.34265394878E+03  0.39403884960E+03  0.00000000000E+00 0. -1.
          1    1    1    2  502    0 -0.72753143600E+02 -0.14454348190E+02  0.59452784799E+03  0.59913713799E+03  0.00000000000E+00 0. -1.
         22    1    3    3    0    0  0.18579576998E+03  0.83061932466E+02 -0.98666877612E+02  0.22617361806E+03  0.00000000000E+00 0.  1.
         22    1    3    3    0    0  0.40610796909E+02  0.50746979479E+02 -0.12541559441E+03  0.14125708504E+03  0.00000000000E+00 0.  1.
</event>
<event>
 7    1  0.2895750E-005  0.3507782E+02  0.7818608E-02  0.1570713E+00
          2   -1    0    0  502    0  0.00000000000E+00  0.00000000000E+00  0.89853673339E+03  0.89853673339E+03  0.00000000000E+00 0. -1.
          1   -1    0    0  501    0 -0.00000000000E+00 -0.00000000000E+00 -0.21934110295E+02  0.21934110295E+02  0.00000000000E+00 0. -1.
         25    2    1    2    0    0 -0.66465895208E+01 -0.34774105562E+02  0.47956703180E+03  0.49685295870E+03  0.12499963605E+03 0.  0.
          2    1    1    2  501    0  0.29584593375E+02  0.67868096049E+01  0.60360317847E+01  0.30947417170E+02  0.00000000000E+00 0. -1.
          1    1    1    2  502    0 -0.22938003854E+02  0.27987295957E+02  0.39099955951E+03  0.39267046781E+03  0.00000000000E+00 0. -1.
         22    1    3    3    0    0 -0.15284010912E+02  0.29887777610E+02  0.35177197970E+03  0.35337006939E+03  0.00000000000E+00 0.  1.
         22    1    3    3    0    0  0.86374213912E+01 -0.64661883172E+02  0.12779505210E+03  0.14348288931E+03  0.00000000000E+00 0.  1.
</event>
<event>
 7    1  0.2895750E-005  0.3827250E+03  0.7818608E-02  0.1182536E+00
          2   -1    0    0  502    0  0.00000000000E+00  0.00000000000E+00  0.95618604572E+03  0.95618604572E+03  0.00000000000E+00 0. -1.
          1   -1    0    0  501    0 -0.00000000000E+00 -0.00000000000E+00 -0.77429996977E+03  0.77429996977E+03  0.00000000000E+00 0. -1.
         25    2    1    2    0    0  0.16554539037E+02  0.38031798079E+03  0.35531604012E+03  0.53552809957E+03  0.12500015116E+03 0.  0.
          2    1    1    2  501    0  0.71569897466E+02 -0.30893150046E+01 -0.60833635379E+03  0.61253972396E+03  0.00000000000E+00 0. -1.
          1    1    1    2  502    0 -0.88124436503E+02 -0.37722866578E+03  0.43490638961E+03  0.58241819195E+03  0.00000000000E+00 0. -1.
         22    1    3    3    0    0  0.20075647432E+01  0.82116797677E+02  0.16215755944E+02  0.83726635653E+02  0.00000000000E+00 0.  1.
         22    1    3    3    0    0  0.14546974294E+02  0.29820118311E+03  0.33910028418E+03  0.45180146392E+03  0.00000000000E+00 0.  1.
</event>
<event>
 7    1  0.2895750E-005  0.6617659E+03  0.7818608E-02  0.1140586E+00
          2   -1    0    0  502    0  0.00000000000E+00  0.00000000000E+00  0.50887927263E+03  0.50887927263E+03  0.00000000000E+00 0. -1.
          1   -1    0    0  501    0 -0.00000000000E+00 -0.00000000000E+00 -0.24096655298E+04  0.24096655298E+04  0.00000000000E+00 0. -1.
         25    2    1    2    0    0 -0.70863367186E+03 -0.10026399646E+03 -0.10947414417E+04  0.13138867867E+04  0.12500045689E+03 0.  0.
          2    1    1    2  501    0  0.63293790518E+02  0.23254573384E+02 -0.93888433080E+03  0.94130264300E+03  0.00000000000E+00 0. -1.
          1    1    1    2  502    0  0.64533988134E+03  0.77009423079E+02  0.13283951532E+03  0.66335537273E+03  0.00000000000E+00 0. -1.
         22    1    3    3    0    0 -0.38895837746E+03 -0.11429259282E+03 -0.57509339683E+03  0.70362193772E+03  0.00000000000E+00 0. -1.
         22    1    3    3    0    0 -0.31967529441E+03  0.14028596354E+02 -0.51964804483E+03  0.61026484895E+03  0.00000000000E+00 0. -1.
</event>
<event>
 7    1  0.2895750E-005  0.2758068E+03  0.7818608E-02  0.1193561E+00
          2   -1    0    0  502    0  0.00000000000E+00  0.00000000000E+00  0.14169821204E+04  0.14169821204E+04  0.00000000000E+00 0. -1.
          1   -1    0    0  501    0 -0.00000000000E+00 -0.00000000000E+00 -0.22794650590E+03  0.22794650590E+03  0.00000000000E+00 0. -1.
         25    2    1    2    0    0  0.26100171678E+03 -0.13070802157E+03 -0.71597800376E+02  0.32551103479E+03  0.12499882274E+03 0.  0.
          2    1    1    2  501    0 -0.63263730948E+02 -0.61128597818E+02  0.13943635877E+03  0.16486813904E+03  0.00000000000E+00 0. -1.
          1    1    1    2  502    0 -0.19773798583E+03  0.19183661939E+03  0.11211970562E+04  0.11545494525E+04  0.00000000000E+00 0. -1.
         22    1    3    3    0    0  0.10600448560E+03 -0.88534620691E+02 -0.88432631065E+02  0.16399896422E+03  0.00000000000E+00 0.  1.
         22    1    3    3    0    0  0.15499723118E+03 -0.42173400879E+02  0.16834830688E+02  0.16151207057E+03  0.00000000000E+00 0.  1.
</event>
<event>
 7    1  0.2895750E-005  0.4404204E+03  0.7818608E-02  0.1082092E+00
          2   -1    0    0  502    0  0.00000000000E+00  0.00000000000E+00  0.47358638766E+03  0.47358638766E+03  0.00000000000E+00 0. -1.
          1   -1    0    0  501    0 -0.00000000000E+00 -0.00000000000E+00 -0.11534538879E+04  0.11534538879E+04  0.00000000000E+00 0. -1.
         25    2    1    2    0    0  0.51140851854E+03  0.28082979768E+03 -0.29842630113E+03  0.66714769287E+03  0.12499495511E+03 0.  0.
          2    1    1    2  501    0 -0.37741245564E+03 -0.11507826328E+03 -0.55780351761E+03  0.68324807545E+03  0.00000000000E+00 0. -1.
          1    1    1    2  502    0 -0.13399606290E+03 -0.16575153440E+03  0.17636231846E+03  0.27664450727E+03  0.00000000000E+00 0. -1.
         22    1    3    3    0    0  0.25390620284E+03  0.75402566883E+02 -0.16291129105E+03  0.31095658167E+03  0.00000000000E+00 0. -1.
         22    1    3    3    0    0  0.25750231569E+03  0.20542723080E+03 -0.13551501008E+03  0.35619111120E+03  0.00000000000E+00 0. -1.
</event>
<event>
 7    1  0.2895750E-005  0.1076654E+03  0.7818608E-02  0.1363436E+00
          2   -1    0    0  502    0  0.00000000000E+00  0.00000000000E+00  0.21090175509E+04  0.21090175509E+04  0.00000000000E+00 0. -1.
          1   -1    0    0  501    0 -0.00000000000E+00 -0.00000000000E+00 -0.64619964665E+02  0.64619964665E+02  0.00000000000E+00 0. -1.
         25    2    1    2    0    0 -0.67539427391E+02  0.18938654071E+02  0.17940201460E+03  0.22962371219E+03  0.12498687725E+03 0.  0.
          2    1    1    2  501    0 -0.42436752160E+02 -0.12551877370E+02 -0.24988627420E+02  0.50821836446E+02  0.00000000000E+00 0. -1.
          1    1    1    2  502    0  0.10997617955E+03 -0.63867767003E+01  0.18899841991E+04  0.18931919669E+04  0.00000000000E+00 0. -1.
         22    1    3    3    0    0  0.21277522408E+00 -0.47036332349E+02  0.77041069494E+02  0.90265099695E+02  0.00000000000E+00 0. -1.
         22    1    3    3    0    0 -0.67752202615E+02  0.65974986419E+02  0.10236094511E+03  0.13935861249E+03  0.00000000000E+00 0. -1.
</event>
<event>
 7    1  0.2895750E-005  0.2508012E+03  0.7818608E-02  0.1203655E+00
          2   -1    0    0  502    0  0.00000000000E+00  0.00000000000E+00  0.16555762553E+04  0.16555762553E+04  0.00000000000E+00 0. -1.
          1   -1    0    0  501    0 -0.00000000000E+00 -0.00000000000E+00 -0.60006229293E+03  0.60006229293E+03  0.00000000000E+00 0. -1.
         25    2    1    2    0    0 -0.20885614901E+03  0.11936387057E+03 -0.23058563152E+03  0.35589714312E+03  0.12499767372E+03 0.  0.
          2    1    1    2  501    0  0.26194212003E+03 -0.50846549950E+02 -0.24735122158E+03  0.36384292312E+03  0.00000000000E+00 0. -1.
          1    1    1    2  502    0 -0.53085971023E+02 -0.68517320625E+02  0.15334508154E+04  0.15358984820E+04  0.00000000000E+00 0. -1.
         22    1    3    3    0    0  0.14408871942E+02  0.23799864644E+02 -0.17975589735E+02  0.33123571276E+02  0.00000000000E+00 0. -1.
         22    1    3    3    0    0 -0.22326502095E+03  0.95564005931E+02 -0.21261004179E+03  0.32277357184E+03  0.00000000000E+00 0. -1.
</event>
<event>
 7    1  0.2895750E-005  0.3180485E+03  0.7818608E-02  0.1099722E+00
          2   -1    0    0  502    0  0.00000000000E+00  0.00000000000E+00  0.59387255087E+03  0.59387255087E+03  0.00000000000E+00 0. -1.
          1   -1    0    0  501    0 -0.00000000000E+00 -0.00000000000E+00 -0.44044446504E+03  0.44044446504E+03  0.00000000000E+00 0. -1.
         25    2    1    2    0    0 -0.85682339088E+02 -0.34367883832E+03  0.23825013142E+03  0.44479748036E+03  0.12500026508E+03 0.  0.
          2    1    1    2  501    0 -0.14280622619E+03  0.29373183504E+03 -0.12961306797E+03  0.35138519682E+03  0.00000000000E+00 0. -1.
          1    1    1    2  502    0  0.22848856528E+03  0.49947003282E+02  0.44791022380E+02  0.23813433874E+03  0.00000000000E+00 0. -1.
         22    1    3    3    0    0 -0.52702194953E+02 -0.32329890724E+03  0.23985905148E+03  0.40599515927E+03  0.00000000000E+00 0. -1.
         22    1    3    3    0    0 -0.32980144135E+02 -0.20379931080E+02 -0.16089200545E+01  0.38802321087E+02  0.00000000000E+00 0. -1.
</event>
<event>
 7    1  0.2895750E-005  0.2961101E+03  0.7818608E-02  0.1140031E+00
          2   -1    0    0  502    0  0.00000000000E+00  0.00000000000E+00  0.12453812863E+04  0.12453812863E+04  0.00000000000E+00 0. -1.
          1   -1    0    0  501    0 -0.00000000000E+00 -0.00000000000E+00 -0.69861879370E+03  0.69861879370E+03  0.00000000000E+00 0. -1.
         25    2    1    2    0    0  0.10640147634E+03  0.40533437631E+03  0.35911979880E+03  0.56586814615E+03  0.12498999219E+03 0.  0.
          2    1    1    2  501    0 -0.11185234487E+02 -0.28722415594E+03 -0.55239359376E+03  0.62270499247E+03  0.00000000000E+00 0. -1.
          1    1    1    2  502    0 -0.95216241854E+02 -0.11811022038E+03  0.74003628753E+03  0.75542694136E+03  0.00000000000E+00 0. -1.
         22    1    3    3    0    0  0.12318108904E+03  0.25887944542E+03  0.20391802332E+03  0.35181629893E+03  0.00000000000E+00 0. -1.
         22    1    3    3    0    0 -0.16779612702E+02  0.14645493089E+03  0.15520177548E+03  0.21405184721E+03  0.00000000000E+00 0. -1.
</event>
<event>
 7    1  0.2895750E-005  0.7687036E+03  0.7818608E-02  0.1018657E+00
          2   -1    0    0  502    0  0.00000000000E+00  0.00000000000E+00  0.11776586823E+04  0.11776586823E+04  0.00000000000E+00 0. -1.
          1   -1    0    0  501    0 -0.00000000000E+00 -0.00000000000E+00 -0.89452448726E+03  0.89452448726E+03  0.00000000000E+00 0. -1.
         25    2    1    2    0    0  0.12770230463E+03 -0.67622006395E+03 -0.16785342599E+03  0.71929356123E+03  0.12500800417E+03 0.  0.
          2    1    1    2  501    0 -0.29421915979E+03  0.92805404824E+03  0.34064788479E+03  0.10314505378E+04  0.00000000000E+00 0. -1.
          1    1    1    2  502    0  0.16651685516E+03 -0.25183398429E+03  0.11033973624E+03  0.32143907057E+03  0.00000000000E+00 0. -1.
         22    1    3    3    0    0  0.13644470483E+02 -0.55794976735E+02 -0.52891260266E+02  0.78081601009E+02  0.00000000000E+00 0. -1.
         22    1    3    3    0    0  0.11405783415E+03 -0.62042508722E+03 -0.11496216573E+03  0.64121196022E+03  0.00000000000E+00 0. -1.
</event>
<event>
 7    1  0.2895750E-005  0.1412159E+03  0.7818608E-02  0.1247432E+00
          2   -1    0    0  502    0  0.00000000000E+00  0.00000000000E+00  0.24786590189E+03  0.24786590189E+03  0.00000000000E+00 0. -1.
          1   -1    0    0  501    0 -0.00000000000E+00 -0.00000000000E+00 -0.74646971078E+03  0.74646971078E+03  0.00000000000E+00 0. -1.
         25    2    1    2    0    0 -0.61739196916E+02 -0.63862175198E+02 -0.10488848716E+03  0.18578413298E+03  0.12499617383E+03 0.  0.
          2    1    1    2  501    0 -0.90676370797E+02  0.36152115963E+02 -0.56744753831E+03  0.57578284834E+03  0.00000000000E+00 0. -1.
          1    1    1    2  502    0  0.15241556771E+03  0.27710059234E+02  0.17373221658E+03  0.23276863135E+03  0.00000000000E+00 0. -1.
         22    1    3    3    0    0 -0.30160555155E+02  0.36946105383E+02 -0.33661552710E+02  0.58376141711E+02  0.00000000000E+00 0. -1.
         22    1    3    3    0    0 -0.31578641761E+02 -0.10080828058E+03 -0.71226934451E+02  0.12740799127E+03  0.00000000000E+00 0. -1.
</event>
<event>
 7    1  0.2895750E-005  0.1946794E+03  0.7818608E-02  0.1205832E+00
          2   -1    0    0  502    0  0.00000000000E+00  0.00000000000E+00  0.20980746777E+04  0.20980746777E+04  0.00000000000E+00 0. -1.
          1   -1    0    0  501    0 -0.00000000000E+00 -0.00000000000E+00 -0.36366744016E+02  0.36366744016E+02  0.00000000000E+00 0. -1.
         25    2    1    2    0    0 -0.85993602787E+02  0.15331883339E+03  0.76242808684E+03  0.79235316629E+03  0.12500155253E+03 0.  0.
          2    1    1    2  501    0  0.85113589381E+02  0.68211927291E+02  0.32052740804E+03  0.33857792224E+03  0.00000000000E+00 0. -1.
          1    1    1    2  502    0  0.88001340588E+00 -0.22153076068E+03  0.97875243884E+03  0.10035103332E+04  0.00000000000E+00 0. -1.
         22    1    3    3    0    0 -0.28731047868E+02 -0.13657630086E+02  0.58074121902E+02  0.66216369621E+02  0.00000000000E+00 0.  1.
         22    1    3    3    0    0 -0.57262554919E+02  0.16697646348E+03  0.70435396494E+03  0.72613679667E+03  0.00000000000E+00 0.  1.
</event>
<event>
 7    1  0.2895750E-005  0.9121967E+02  0.7818608E-02  0.1353936E+00
          2   -1    0    0  502    0  0.00000000000E+00  0.00000000000E+00  0.24859386494E+03  0.24859386494E+03  0.00000000000E+00 0. -1.
          1   -1    0    0  501    0 -0.00000000000E+00 -0.00000000000E+00 -0.23970637129E+04  0.23970637129E+04  0.00000000000E+00 0. -1.
         25    2    1    2    0    0 -0.10898316023E+02  0.75892941001E+02 -0.59126644603E+03  0.60917949546E+03  0.12500054280E+03 0.  0.
          2    1    1    2  501    0 -0.45126783241E+02 -0.83813721773E+02 -0.17922199808E+04  0.17947461174E+04  0.00000000000E+00 0. -1.
          1    1    1    2  502    0  0.56025099264E+02  0.79207807721E+01  0.23501657889E+03  0.24173196492E+03  0.00000000000E+00 0. -1.
         22    1    3    3    0    0  0.18607533027E+02  0.10071254739E+03 -0.34391020075E+03  0.35883629090E+03  0.00000000000E+00 0. -1.
         22    1    3    3    0    0 -0.29505849049E+02 -0.24819606391E+02 -0.24735624528E+03  0.25034320455E+03  0.00000000000E+00 0. -1.
</event>
<event>
 7    1  0.2895750E-005  0.1032851E+03  0.7818608E-02  0.1322115E+00
          2   -1    0    0  502    0  0.00000000000E+00  0.00000000000E+00  0.17330850059E+03  0.17330850059E+03  0.00000000000E+00 0. -1.
          1   -1    0    0  501    0 -0.00000000000E+00 -0.00000000000E+00 -0.13912234177E+04  0.13912234177E+04  0.00000000000E+00 0. -1.
         25    2    1    2    0    0  0.64942961939E+01  0.89678386638E+02 -0.74755378667E+02  0.17116537556E+03  0.12499932095E+03 0.  0.
          2    1    1    2  501    0  0.59311571432E+02 -0.86338635498E+02 -0.12572553629E+04  0.12616113784E+04  0.00000000000E+00 0. -1.
          1    1    1    2  502    0 -0.65805867625E+02 -0.33397511401E+01  0.11409582451E+03  0.13175516431E+03  0.00000000000E+00 0. -1.
         22    1    3    3    0    0  0.46172462291E+02 -0.56534639535E+01 -0.42437497230E+02  0.62966650696E+02  0.00000000000E+00 0.  1.
         22    1    3    3    0    0 -0.39678166097E+02  0.95331850591E+02 -0.32317881437E+02  0.10819872487E+03  0.00000000000E+00 0.  1.
</event>
<event>
 7    1  0.2895750E-005  0.4977513E+03  0.7818608E-02  0.1159417E+00
          2   -1    0    0  502    0  0.00000000000E+00  0.00000000000E+00  0.31988460069E+03  0.31988460069E+03  0.00000000000E+00 0. -1.
          1   -1    0    0  501    0 -0.00000000000E+00 -0.00000000000E+00 -0.22859156252E+04  0.22859156252E+04  0.00000000000E+00 0. -1.
         25    2    1    2    0    0 -0.40047721317E+03  0.23309648676E+03 -0.18824614216E+04  0.19426790569E+04  0.12499977650E+03 0.  0.
          2    1    1    2  501    0  0.13990267377E+01  0.71709041235E+02 -0.14049140266E+03  0.15774022345E+03  0.00000000000E+00 0. -1.
          1    1    1    2  502    0  0.39907818643E+03 -0.30480552800E+03  0.56921799741E+02  0.50538094549E+03  0.00000000000E+00 0. -1.
         22    1    3    3    0    0 -0.22390601843E+02  0.31346829987E+02 -0.32704709045E+03  0.32930800503E+03  0.00000000000E+00 0.  1.
         22    1    3    3    0    0 -0.37808661132E+03  0.20174965677E+03 -0.15554143311E+04  0.16133710519E+04  0.00000000000E+00 0.  1.
</event>
<event>
 7    1  0.2895750E-005  0.5120045E+03  0.7818608E-02  0.1170942E+00
          2   -1    0    0  502    0  0.00000000000E+00  0.00000000000E+00  0.35249468413E+03  0.35249468413E+03  0.00000000000E+00 0. -1.
          1   -1    0    0  501    0 -0.00000000000E+00 -0.00000000000E+00 -0.15615894421E+04  0.15615894421E+04  0.00000000000E+00 0. -1.
         25    2    1    2    0    0  0.19679726342E+03  0.48890562270E+03 -0.60502406532E+03  0.81205422727E+03  0.12498030892E+03 0.  0.
          2    1    1    2  501    0  0.43995924827E+02 -0.42321246784E+02 -0.59136345552E+03  0.59450606881E+03  0.00000000000E+00 0. -1.
          1    1    1    2  502    0 -0.24079318825E+03 -0.44658437591E+03 -0.12707237158E+02  0.50752383018E+03  0.00000000000E+00 0. -1.
         22    1    3    3    0    0  0.19528567989E+03  0.33915646345E+03 -0.42131160697E+03  0.57503658461E+03  0.00000000000E+00 0.  1.
         22    1    3    3    0    0  0.15115835307E+01  0.14974915925E+03 -0.18371245835E+03  0.23701764266E+03  0.00000000000E+00 0.  1.
</event>
<event>
 7    1  0.2895750E-005  0.6684059E+02  0.7818608E-02  0.1442415E+00
          2   -1    0    0  502    0  0.00000000000E+00  0.00000000000E+00  0.32027257735E+04  0.32027257735E+04  0.00000000000E+00 0. -1.
          1   -1    0    0  501    0 -0.00000000000E+00 -0.00000000000E+00 -0.13427808650E+03  0.13427808650E+03  0.00000000000E+00 0. -1.
         25    2    1    2    0    0 -0.46418191088E+02 -0.15530877521E+01  0.91324132601E+02  0.16161531507E+03  0.12498940885E+03 0.  0.
          2    1    1    2  501    0 -0.10799300633E+02  0.36667464163E+02 -0.95067326254E+02  0.10246425886E+03  0.00000000000E+00 0. -1.
          1    1    1    2  502    0  0.57217491721E+02 -0.35114376410E+02  0.30721908806E+04  0.30729242860E+04  0.00000000000E+00 0. -1.
         22    1    3    3    0    0  0.23638849135E+02  0.18433125718E+02 -0.14372667343E+02  0.33243779549E+02  0.00000000000E+00 0.  1.
         22    1    3    3    0    0 -0.70057040223E+02 -0.19986213470E+02  0.10569679994E+03  0.12837153552E+03  0.00000000000E+00 0.  1.
</event>
<event>
 7    1  0.2895750E-005  0.1753254E+03  0.7818608E-02  0.1329839E+00
          2   -1    0    0  502    0  0.00000000000E+00  0.00000000000E+00  0.49859644950E+02  0.49859644950E+02  0.00000000000E+00 0. -1.
          1   -1    0    0  501    0 -0.00000000000E+00 -0.00000000000E+00 -0.19143691519E+04  0.19143691519E+04  0.00000000000E+00 0. -1.
         25    2    1    2    0    0 -0.58769631123E+02  0.13880160268E+03 -0.57089861797E+03  0.60354828129E+03  0.12500216556E+03 0.  0.
          2    1    1    2  501    0 -0.66762472831E+01  0.35631346351E+02 -0.10656762022E+04  0.10662926113E+04  0.00000000000E+00 0. -1.
          1    1    1    2  502    0  0.65445878406E+02 -0.17443294903E+03 -0.22793468684E+03  0.29438790426E+03  0.00000000000E+00 0. -1.
         22    1    3    3    0    0 -0.79379052157E+01  0.41203721339E+02 -0.38679449252E+03  0.38906392333E+03  0.00000000000E+00 0. -1.
         22    1    3    3    0    0 -0.50831725907E+02  0.97597881342E+02 -0.18410412545E+03  0.21448435796E+03  0.00000000000E+00 0. -1.
</event>
<event>
 7    1  0.3332769E-005  0.1524714E+03  0.7818608E-02  0.1231048E+00
          2   -1    0    0  502    0  0.00000000000E+00  0.00000000000E+00  0.33940268668E+04  0.33940268668E+04  0.00000000000E+00 0. -1.
          1   -1    0    0  501    0 -0.00000000000E+00 -0.00000000000E+00 -0.15769302787E+04  0.15769302787E+04  0.00000000000E+00 0. -1.
         25    2    1    2    0    0 -0.23390248559E+03  0.20654250340E+02 -0.27939657421E+03  0.38578317437E+03  0.12501696333E+03 0.  0.
          2    1    1    2  501    0  0.14252421841E+03  0.34629350506E+02 -0.12391607404E+04  0.12478107570E+04  0.00000000000E+00 0. -1.
          1    1    1    2  502    0  0.91378267179E+02 -0.55283600846E+02  0.33356539028E+04  0.33373632142E+04  0.00000000000E+00 0. -1.
         22    1    3    3    0    0 -0.11010894180E+02  0.18729931474E+02 -0.92136212880E+02  0.94663255002E+02  0.00000000000E+00 0. -1.
         22    1    3    3    0    0 -0.22289159141E+03  0.19243188658E+01 -0.18726036133E+03  0.29111991937E+03  0.00000000000E+00 0. -1.
</event>
<event>
 7    1  0.2895750E-005  0.6824113E+03  0.7818608E-02  0.1052685E+00
          2   -1    0    0  502    0  0.00000000000E+00  0.00000000000E+00  0.64521949606E+03  0.64521949606E+03  0.00000000000E+00 0. -1.
          1   -1    0    0  501    0 -0.00000000000E+00 -0.00000000000E+00 -0.17884454306E+04  0.17884454306E+04  0.00000000000E+00 0. -1.
         25    2    1    2    0    0 -0.40774123513E+03 -0.40325093421E+03 -0.39597048318E+03  0.70801013533E+03  0.12498598884E+03 0.  0.
          2    1    1    2  501    0 -0.17853058780E+02 -0.20562532657E+03 -0.93656601261E+03  0.95903931234E+03  0.00000000000E+00 0. -1.
          1    1    1    2  502    0  0.42559429391E+03  0.60887626079E+03  0.18931056129E+03  0.76661547896E+03  0.00000000000E+00 0. -1.
         22    1    3    3    0    0 -0.33420860361E+03 -0.27887474793E+03 -0.34277869515E+03  0.55404309363E+03  0.00000000000E+00 0.  1.
         22    1    3    3    0    0 -0.73532631524E+02 -0.12437618628E+03 -0.53191788030E+02  0.15396704169E+03  0.00000000000E+00 0.  1.
</event>
<event>
 7    1  0.2895750E-005  0.1517282E+03  0.7818608E-02  0.1246593E+00
          2   -1    0    0  502    0  0.00000000000E+00  0.00000000000E+00  0.10123345329E+03  0.10123345329E+03  0.00000000000E+00 0. -1.
          1   -1    0    0  501    0 -0.00000000000E+00 -0.00000000000E+00 -0.64617636810E+03  0.64617636810E+03  0.00000000000E+00 0. -1.
         25    2    1    2    0    0  0.14912653054E+03 -0.57174045604E+01 -0.29902155027E+03  0.35680618376E+03  0.12500141767E+03 0.  0.
          2    1    1    2  501    0 -0.14230117165E+03 -0.85649958995E+02 -0.24855946902E+03  0.29894372140E+03  0.00000000000E+00 0. -1.
          1    1    1    2  502    0 -0.68253588933E+01  0.91367363555E+02  0.26381044747E+01  0.91659916224E+02  0.00000000000E+00 0. -1.
         22    1    3    3    0    0  0.17338385268E+01 -0.33748204229E+02 -0.11230355846E+03  0.11727760540E+03  0.00000000000E+00 0.  1.
         22    1    3    3    0    0  0.14739269201E+03  0.28030799669E+02 -0.18671799181E+03  0.23952857837E+03  0.00000000000E+00 0.  1.
</event>
<event>
 7    1  0.2895750E-005  0.1421958E+03  0.7818608E-02  0.1284389E+00
          2   -1    0    0  502    0  0.00000000000E+00  0.00000000000E+00  0.58356363393E+03  0.58356363393E+03  0.00000000000E+00 0. -1.
          1   -1    0    0  501    0 -0.00000000000E+00 -0.00000000000E+00 -0.75786281613E+02  0.75786281613E+02  0.00000000000E+00 0. -1.
         25    2    1    2    0    0  0.83903983295E+02 -0.16111911177E+03  0.32092766036E+03  0.38938060000E+03  0.12499376735E+03 0.  0.
          2    1    1    2  501    0 -0.10509045000E+02  0.66827688917E+02  0.33287157355E+02  0.75395058708E+02  0.00000000000E+00 0. -1.
          1    1    1    2  502    0 -0.73394938294E+02  0.94291422855E+02  0.15356253460E+03  0.19457425683E+03  0.00000000000E+00 0. -1.
         22    1    3    3    0    0  0.38034633366E+02 -0.26558930137E+02  0.19179063762E+03  0.19732120713E+03  0.00000000000E+00 0.  1.
         22    1    3    3    0    0  0.45869349929E+02 -0.13456018163E+03  0.12913702274E+03  0.19205939286E+03  0.00000000000E+00 0.  1.
</event>
<event>
 7    1  0.2895750E-005  0.1162474E+03  0.7818608E-02  0.1320625E+00
          2   -1    0    0  502    0  0.00000000000E+00  0.00000000000E+00  0.40432005768E+03  0.40432005768E+03  0.00000000000E+00 0. -1.
          1   -1    0    0  501    0 -0.00000000000E+00 -0.00000000000E+00 -0.33348117608E+03  0.33348117608E+03  0.00000000000E+00 0. -1.
         25    2    1    2    0    0 -0.12508062711E+03 -0.67369152447E+02 -0.18857584394E+03  0.26715039129E+03  0.12499886668E+03 0.  0.
          2    1    1    2  501    0  0.66734258979E+02  0.78107096030E+02 -0.77415162185E+02  0.12863625892E+03  0.00000000000E+00 0. -1.
          1    1    1    2  502    0  0.58346368126E+02 -0.10737943582E+02  0.33682988772E+03  0.34201458356E+03  0.00000000000E+00 0. -1.
         22    1    3    3    0    0 -0.38583298619E+02 -0.16603729941E+02 -0.15621660928E+03  0.16176521195E+03  0.00000000000E+00 0.  1.
         22    1    3    3    0    0 -0.86497328486E+02 -0.50765422506E+02 -0.32359234653E+02  0.10538517934E+03  0.00000000000E+00 0.  1.
</event>
<event>
 7    1  0.3840828E-005  0.8982455E+02  0.7818608E-02  0.1319450E+00
          2   -1    0    0  502    0  0.00000000000E+00  0.00000000000E+00  0.10066487340E+04  0.10066487340E+04  0.00000000000E+00 0. -1.
          1   -1    0    0  501    0 -0.00000000000E+00 -0.00000000000E+00 -0.12447311164E+04  0.12447311164E+04  0.00000000000E+00 0. -1.
         25    2    1    2    0    0  0.10440511975E+01  0.16541948529E+03 -0.15610845243E+03  0.25953652587E+03  0.12499865271E+03 0.  0.
          2    1    1    2  501    0  0.96501110914E+01 -0.76985459427E+02 -0.10333737865E+04  0.10362824269E+04  0.00000000000E+00 0. -1.
          1    1    1    2  502    0 -0.10694162289E+02 -0.88434025868E+02  0.95139985659E+03  0.95556089767E+03  0.00000000000E+00 0. -1.
         22    1    3    3    0    0  0.11541802267E+02  0.17999242717E+03 -0.11300120374E+03  0.21283740058E+03  0.00000000000E+00 0.  1.
         22    1    3    3    0    0 -0.10497751069E+02 -0.14572941879E+02 -0.43107248695E+02  0.46699125287E+02  0.00000000000E+00 0.  1.
</event>
<event>
 7    1  0.2895750E-005  0.3058815E+02  0.7818608E-02  0.1593682E+00
          2   -1    0    0  502    0  0.00000000000E+00  0.00000000000E+00  0.18287554396E+04  0.18287554396E+04  0.00000000000E+00 0. -1.
          1   -1    0    0  501    0 -0.00000000000E+00 -0.00000000000E+00 -0.18761594894E+04  0.18761594894E+04  0.00000000000E+00 0. -1.
         25    2    1    2    0    0  0.54909168519E+02  0.54936786169E+01  0.20679662661E+03  0.24786057161E+03  0.12499928356E+03 0.  0.
          2    1    1    2  501    0 -0.26381679741E+02 -0.15458936646E+02 -0.18553589831E+04  0.18556109312E+04  0.00000000000E+00 0. -1.
          1    1    1    2  502    0 -0.28527488778E+02  0.99652580294E+01  0.16011583068E+04  0.16014434262E+04  0.00000000000E+00 0. -1.
         22    1    3    3    0    0 -0.46452838307E+00 -0.42880842202E+02  0.14687809077E+03  0.15301031325E+03  0.00000000000E+00 0.  1.
         22    1    3    3    0    0  0.55373696902E+02  0.48374520819E+02  0.59918535840E+02  0.94850258357E+02  0.00000000000E+00 0.  1.
</event>
<event>
 7    1  0.2895750E-005  0.1461788E+03  0.7818608E-02  0.1312152E+00
          2   -1    0    0  502    0  0.00000000000E+00  0.00000000000E+00  0.44642700325E+03  0.44642700325E+03  0.00000000000E+00 0. -1.
          1   -1    0    0  501    0 -0.00000000000E+00 -0.00000000000E+00 -0.34649626877E+03  0.34649626877E+03  0.00000000000E+00 0. -1.
         25    2    1    2    0    0  0.15981289341E+03  0.50012709257E+01  0.66074880469E+02  0.21343997938E+03  0.12500224541E+03 0.  0.
          2    1    1    2  501    0 -0.13632068440E+03 -0.50167129533E+02 -0.25106052487E+03  0.29005423118E+03  0.00000000000E+00 0. -1.
          1    1    1    2  502    0 -0.23492209008E+02  0.45165858608E+02  0.28491637887E+03  0.28942906146E+03  0.00000000000E+00 0. -1.
         22    1    3    3    0    0 -0.49293428124E+01 -0.31782657297E+02 -0.19054104567E-01  0.32162650520E+02  0.00000000000E+00 0.  1.
         22    1    3    3    0    0  0.16474223622E+03  0.36783928222E+02  0.66093934573E+02  0.18127732886E+03  0.00000000000E+00 0.  1.
</event>
<event>
 7    1  0.2895750E-005  0.2756050E+03  0.7818608E-02  0.1153480E+00
          2   -1    0    0  502    0  0.00000000000E+00  0.00000000000E+00  0.32964903593E+03  0.32964903593E+03  0.00000000000E+00 0. -1.
          1   -1    0    0  501    0 -0.00000000000E+00 -0.00000000000E+00 -0.10111568344E+04  0.10111568344E+04  0.00000000000E+00 0. -1.
         25    2    1    2    0    0 -0.53274593876E+02  0.39809406587E+03 -0.80252774282E+03  0.90608666119E+03  0.12500076784E+03 0.  0.
          2    1    1    2  501    0  0.30942058563E+02 -0.13536925613E+03 -0.12028439643E+02  0.13938052178E+03  0.00000000000E+00 0. -1.
          1    1    1    2  502    0  0.22332535314E+02 -0.26272480974E+03  0.13304838397E+03  0.29533868738E+03  0.00000000000E+00 0. -1.
         22    1    3    3    0    0  0.68676489017E+01  0.16254218157E+03 -0.21014536349E+03  0.26575966433E+03  0.00000000000E+00 0.  1.
         22    1    3    3    0    0 -0.60142242778E+02  0.23555188430E+03 -0.59238237933E+03  0.64032699686E+03  0.00000000000E+00 0.  1.
</event>
<event>
 7    1  0.2895750E-005  0.8330184E+02  0.7818608E-02  0.1372276E+00
          2   -1    0    0  502    0  0.00000000000E+00  0.00000000000E+00  0.18332309494E+04  0.18332309494E+04  0.00000000000E+00 0. -1.
          1   -1    0    0  501    0 -0.00000000000E+00 -0.00000000000E+00 -0.51198061096E+03  0.51198061096E+03  0.00000000000E+00 0. -1.
         25    2    1    2    0    0  0.10992265329E+03 -0.62728441265E+02 -0.10632537637E+03  0.20723921142E+03  0.12500063215E+03 0.  0.
          2    1    1    2  501    0 -0.76940454429E+02  0.21051660474E+02 -0.35031769609E+03  0.35928469788E+03  0.00000000000E+00 0. -1.
          1    1    1    2  502    0 -0.32982198863E+02  0.41676780791E+02  0.17778934109E+04  0.17786876511E+04  0.00000000000E+00 0. -1.
         22    1    3    3    0    0  0.28609750926E+02  0.78620746779E+01  0.24016111943E+02  0.38172027706E+02  0.00000000000E+00 0.  1.
         22    1    3    3    0    0  0.81312902366E+02 -0.70590515943E+02 -0.13034148831E+03  0.16906718371E+03  0.00000000000E+00 0.  1.
</event>
<event>
 7    1  0.2895750E-005  0.1461507E+03  0.7818608E-02  0.1233101E+00
          2   -1    0    0  502    0  0.00000000000E+00  0.00000000000E+00  0.72794398741E+03  0.72794398741E+03  0.00000000000E+00 0. -1.
          1   -1    0    0  501    0 -0.00000000000E+00 -0.00000000000E+00 -0.52689735162E+03  0.52689735162E+03  0.00000000000E+00 0. -1.
         25    2    1    2    0    0  0.17763500762E+03  0.16248382806E+03  0.21176039685E+03  0.34410705358E+03  0.12494802255E+03 0.  0.
          2    1    1    2  501    0 -0.77174995165E+02 -0.11995788257E+03 -0.44273880748E+03  0.46514892789E+03  0.00000000000E+00 0. -1.
          1    1    1    2  502    0 -0.10046001245E+03 -0.42525945486E+02  0.43202504641E+03  0.44558535755E+03  0.00000000000E+00 0. -1.
         22    1    3    3    0    0  0.19008087669E+03  0.12111491524E+03  0.15855060645E+03  0.27556824415E+03  0.00000000000E+00 0. -1.
         22    1    3    3    0    0 -0.12445869069E+02  0.41368912816E+02  0.53209790401E+02  0.68538809437E+02  0.00000000000E+00 0. -1.
</event>
<event>
 7    1  0.3047415E-005  0.1229560E+03  0.7818608E-02  0.1323836E+00
          2   -1    0    0  502    0  0.00000000000E+00  0.00000000000E+00  0.17918733148E+04  0.17918733148E+04  0.00000000000E+00 0. -1.
          1   -1    0    0  501    0 -0.00000000000E+00 -0.00000000000E+00 -0.47277851015E+03  0.47277851015E+03  0.00000000000E+00 0. -1.
         25    2    1    2    0    0  0.14143305398E+03 -0.58364949950E+02 -0.22340576972E+03  0.29823545686E+03  0.12499789455E+03 0.  0.
          2    1    1    2  501    0 -0.11177252599E+03  0.12632622165E+02 -0.19657717576E+03  0.22648458389E+03  0.00000000000E+00 0. -1.
          1    1    1    2  502    0 -0.29660527992E+02  0.45732327785E+02  0.17390777501E+04  0.17399317842E+04  0.00000000000E+00 0. -1.
         22    1    3    3    0    0 -0.11401880460E+02  0.10397621375E+02  0.38145796017E+01  0.15895421536E+02  0.00000000000E+00 0.  1.
         22    1    3    3    0    0  0.15283493444E+03 -0.68762571325E+02 -0.22722034932E+03  0.28234003532E+03  0.00000000000E+00 0.  1.
</event>
<event>
 7    1  0.2895750E-005  0.6917117E+03  0.7818608E-02  0.1219642E+00
          2   -1    0    0  502    0  0.00000000000E+00  0.00000000000E+00  0.18205439574E+04  0.18205439574E+04  0.00000000000E+00 0. -1.
          1   -1    0    0  501    0 -0.00000000000E+00 -0.00000000000E+00 -0.10889556901E+04  0.10889556901E+04  0.00000000000E+00 0. -1.
         25    2    1    2    0    0  0.15626452093E+03  0.68642396734E+03 -0.46573545316E+02  0.71650967469E+03  0.12498222015E+03 0.  0.
          2    1    1    2  501    0 -0.13367469050E+03 -0.67255416172E+03 -0.54108176337E+03  0.87348010738E+03  0.00000000000E+00 0. -1.
          1    1    1    2  502    0 -0.22589830431E+02 -0.13869805620E+02  0.13192435760E+04  0.13195098654E+04  0.00000000000E+00 0. -1.
         22    1    3    3    0    0  0.10663719341E+03  0.56972608765E+03 -0.80637607982E+02  0.58520229818E+03  0.00000000000E+00 0. -1.
         22    1    3    3    0    0  0.49627327517E+02  0.11669787969E+03  0.34064062667E+02  0.13130737651E+03  0.00000000000E+00 0. -1.
</event>
<event>
 7    1  0.2895750E-005  0.2071126E+03  0.7818608E-02  0.1222788E+00
          2   -1    0    0  502    0  0.00000000000E+00  0.00000000000E+00  0.76707458548E+03  0.76707458548E+03  0.00000000000E+00 0. -1.
          1   -1    0    0  501    0 -0.00000000000E+00 -0.00000000000E+00 -0.11909535680E+04  0.11909535680E+04  0.00000000000E+00 0. -1.
         25    2    1    2    0    0  0.18960055304E+03  0.17003651486E+03  0.92654863959E+02  0.29844601307E+03  0.12499725119E+03 0.  0.
          2    1    1    2  501    0 -0.78773625721E+01 -0.85297616055E+02 -0.10687050394E+04  0.10721325466E+04  0.00000000000E+00 0. -1.
          1    1    1    2  502    0 -0.18172319047E+03 -0.84738898805E+02  0.55217119297E+03  0.58744959381E+03  0.00000000000E+00 0. -1.
         22    1    3    3    0    0  0.89838788118E+00  0.18047757015E+02  0.49025572120E+02  0.52249740246E+02  0.00000000000E+00 0.  1.
         22    1    3    3    0    0  0.18870216516E+03  0.15198875785E+03  0.43629291839E+02  0.24619627283E+03  0.00000000000E+00 0.  1.
</event>
<event>
 7    1  0.2895750E-005  0.4232763E+03  0.7818608E-02  0.1172361E+00
          2   -1    0    0  502    0  0.00000000000E+00  0.00000000000E+00  0.21567968870E+03  0.21567968870E+03  0.00000000000E+00 0. -1.
          1   -1    0    0  501    0 -0.00000000000E+00 -0.00000000000E+00 -0.14477583705E+04  0.14477583705E+04  0.00000000000E+00 0. -1.
         25    2    1    2    0    0 -0.47613548136E+03 -0.29076823901E+02 -0.88153707656E+03  0.10100904005E+04  0.12499816652E+03 0.  0.
          2    1    1    2  501    0  0.71261889103E+02 -0.14176728108E+02 -0.21061885015E+03  0.22279931889E+03  0.00000000000E+00 0. -1.
          1    1    1    2  502    0  0.40487359225E+03  0.43253552010E+02 -0.13992275506E+03  0.43054833974E+03  0.00000000000E+00 0. -1.
         22    1    3    3    0    0 -0.12077408484E+03 -0.43669103115E+02 -0.32681860980E+03  0.35114637097E+03  0.00000000000E+00 0. -1.
         22    1    3    3    0    0 -0.35536139652E+03  0.14592279214E+02 -0.55471846676E+03  0.65894402957E+03  0.00000000000E+00 0. -1.
</event>
<event>
 7    1  0.2895750E-005  0.3521232E+03  0.7818608E-02  0.1122078E+00
          2   -1    0    0  502    0  0.00000000000E+00  0.00000000000E+00  0.13937585759E+04  0.13937585759E+04  0.00000000000E+00 0. -1.
          1   -1    0    0  501    0 -0.00000000000E+00 -0.00000000000E+00 -0.57417832623E+03  0.57417832623E+03  0.00000000000E+00 0. -1.
         25    2    1    2    0    0 -0.45739912340E+03  0.96334746164E+02 -0.41293285287E+03  0.63610839117E+03  0.12500401164E+03 0.  0.
          2    1    1    2  501    0  0.14818904108E+03  0.57571128205E+02  0.40944120895E+03  0.43922264318E+03  0.00000000000E+00 0. -1.
          1    1    1    2  502    0  0.30921008233E+03 -0.15390587437E+03  0.82307189363E+03  0.89260586781E+03  0.00000000000E+00 0. -1.
         22    1    3    3    0    0 -0.14744740807E+03 -0.26650092293E+02 -0.11400409470E+03  0.18827612481E+03  0.00000000000E+00 0.  1.
         22    1    3    3    0    0 -0.30995171534E+03  0.12298483846E+03 -0.29892875818E+03  0.44783226636E+03  0.00000000000E+00 0.  1.
</event>
<event>
 7    1  0.2895750E-005  0.3252061E+03  0.7818608E-02  0.1104802E+00
          2   -1    0    0  502    0  0.00000000000E+00  0.00000000000E+00  0.15844350743E+04  0.15844350743E+04  0.00000000000E+00 0. -1.
          1   -1    0    0  501    0 -0.00000000000E+00 -0.00000000000E+00 -0.46789047156E+03  0.46789047156E+03  0.00000000000E+00 0. -1.
         25    2    1    2    0    0 -0.29881679957E+03  0.15301720041E+03  0.11304475865E+04  0.11858543063E+04  0.12503178228E+03 0.  0.
          2    1    1    2  501    0  0.32288934736E+03  0.59834151884E+02 -0.34232460652E+03  0.47436672797E+03  0.00000000000E+00 0. -1.
          1    1    1    2  502    0 -0.24072547785E+02 -0.21285135229E+03  0.32842162278E+03  0.39210451163E+03  0.00000000000E+00 0. -1.
         22    1    3    3    0    0 -0.25738895373E+03  0.74448353365E+02  0.79999440397E+03  0.84367213845E+03  0.00000000000E+00 0. -1.
         22    1    3    3    0    0 -0.41427845846E+02  0.78568847042E+02  0.33045318250E+03  0.34218216780E+03  0.00000000000E+00 0. -1.
</event>
<event>
 7    1  0.2895750E-005  0.2494672E+03  0.7818608E-02  0.1136230E+00
          2   -1    0    0  502    0  0.00000000000E+00  0.00000000000E+00  0.87337336447E+03  0.87337336447E+03  0.00000000000E+00 0. -1.
          1   -1    0    0  501    0 -0.00000000000E+00 -0.00000000000E+00 -0.78616574060E+03  0.78616574060E+03  0.00000000000E+00 0. -1.
         25    2    1    2    0    0  0.25113158964E+03  0.33185117080E+03 -0.41767926351E+03  0.60272229885E+03  0.12500370994E+03 0.  0.
          2    1    1    2  501    0 -0.62638178333E+02 -0.17784362486E+03 -0.22141041410E+03  0.29081689731E+03  0.00000000000E+00 0. -1.
          1    1    1    2  502    0 -0.18849341130E+03 -0.15400754594E+03  0.72629730148E+03  0.76599990891E+03  0.00000000000E+00 0. -1.
         22    1    3    3    0    0  0.10602169690E+02  0.95844693929E+02 -0.75474884687E+02  0.12245435711E+03  0.00000000000E+00 0.  1.
         22    1    3    3    0    0  0.24052941995E+03  0.23600647687E+03 -0.34220437882E+03  0.48026794175E+03  0.00000000000E+00 0.  1.
</event>
<event>
 7    1  0.2895750E-005  0.2784179E+03  0.7818608E-02  0.1143449E+00
          2   -1    0    0  502    0  0.00000000000E+00  0.00000000000E+00  0.13119750595E+04  0.13119750595E+04  0.00000000000E+00 0. -1.
          1   -1    0    0  501    0 -0.00000000000E+00 -0.00000000000E+00 -0.16924178680E+03  0.16924178680E+03  0.00000000000E+00 0. -1.
         25    2    1    2    0    0  0.51274423668E+02 -0.31671684966E+03  0.29230975319E+03  0.45167194030E+03  0.12499568178E+03 0.  0.
          2    1    1    2  501    0 -0.14371836589E+03  0.57661953644E+02  0.21699302530E+02  0.15636728981E+03  0.00000000000E+00 0. -1.
          1    1    1    2  502    0  0.92443942226E+02  0.25905489602E+03  0.82872421702E+03  0.87317761623E+03  0.00000000000E+00 0. -1.
         22    1    3    3    0    0 -0.87355038652E+01 -0.13758287488E+03  0.55193092470E+02  0.14849792573E+03  0.00000000000E+00 0. -1.
         22    1    3    3    0    0  0.60009927533E+02 -0.17913397478E+03  0.23711666072E+03  0.30317401458E+03  0.00000000000E+00 0. -1.
</event>
<event>
 7    1  0.2895750E-005  0.8338004E+02  0.7818608E-02  0.1351451E+00
          2   -1    0    0  502    0  0.00000000000E+00  0.00000000000E+00  0.21135829672E+04  0.21135829672E+04  0.00000000000E+00 0. -1.
          1   -1    0    0  501    0 -0.00000000000E+00 -0.00000000000E+00 -0.12856539994E+03  0.12856539994E+03  0.00000000000E+00 0. -1.
         25    2    1    2    0    0  0.11381703795E+02  0.24981712990E+02  0.83306857699E+03  0.84284828630E+03  0.12504539413E+03 0.  0.
          2    1    1    2  501    0 -0.71260727233E+02 -0.45270260344E+02 -0.10838263571E+03  0.13738370879E+03  0.00000000000E+00 0. -1.
          1    1    1    2  502    0  0.59879023438E+02  0.20288547354E+02  0.12603316260E+04  0.12619163720E+04  0.00000000000E+00 0. -1.
         22    1    3    3    0    0  0.35688418530E+02  0.61527372267E+02  0.67697479968E+03  0.68070122680E+03  0.00000000000E+00 0. -1.
         22    1    3    3    0    0 -0.24306714735E+02 -0.36545659277E+02  0.15609377730E+03  0.16214705951E+03  0.00000000000E+00 0. -1.
</event>
<event>
 7    1  0.2895750E-005  0.1061003E+03  0.7818608E-02  0.1358315E+00
          2   -1    0    0  502    0  0.00000000000E+00  0.00000000000E+00  0.13395472272E+04  0.13395472272E+04  0.00000000000E+00 0. -1.
          1   -1    0    0  501    0 -0.00000000000E+00 -0.00000000000E+00 -0.46819554403E+03  0.46819554403E+03  0.00000000000E+00 0. -1.
         25    2    1    2    0    0  0.80244295886E+02 -0.12721963247E+03  0.42230211882E+02  0.20009412027E+03  0.12502113526E+03 0.  0.
          2    1    1    2  501    0 -0.56683300605E+02  0.86691971777E+02 -0.38191180801E+03  0.39570838207E+03  0.00000000000E+00 0. -1.
          1    1    1    2  502    0 -0.23560995281E+02  0.40527660696E+02  0.12110332793E+04  0.12119402689E+04  0.00000000000E+00 0. -1.
         22    1    3    3    0    0  0.15500420552E+02  0.19737684503E+02  0.29896833357E+02  0.39034086023E+02  0.00000000000E+00 0.  1.
         22    1    3    3    0    0  0.64743875334E+02 -0.14695731698E+03  0.12333378525E+02  0.16106003425E+03  0.00000000000E+00 0.  1.
</event>
<event>
 7    1  0.2895750E-005  0.2512631E+03  0.7818608E-02  0.1303890E+00
          2   -1    0    0  502    0  0.00000000000E+00  0.00000000000E+00  0.30692269177E+04  0.30692269177E+04  0.00000000000E+00 0. -1.
          1   -1    0    0  501    0 -0.00000000000E+00 -0.00000000000E+00 -0.82087758106E+03  0.82087758106E+03  0.00000000000E+00 0. -1.
         25    2    1    2    0    0 -0.12055042756E+03  0.19778762583E+03  0.11343419139E+03  0.28660795060E+03  0.12499780419E+03 0.  0.
          2    1    1    2  501    0  0.11192529763E+02  0.29905854260E+02 -0.72838089414E+03  0.72908048924E+03  0.00000000000E+00 0. -1.
          1    1    1    2  502    0  0.10935789780E+03 -0.22769348009E+03  0.28632960393E+04  0.28744160589E+04  0.00000000000E+00 0. -1.
         22    1    3    3    0    0 -0.29627025061E+02  0.73521261364E+02  0.10612057338E+03  0.13245645541E+03  0.00000000000E+00 0.  1.
         22    1    3    3    0    0 -0.90923402503E+02  0.12426636447E+03  0.73136180177E+01  0.15415149519E+03  0.00000000000E+00 0.  1.
</event>
<event>
 7    1  0.3334557E-005  0.1683336E+03  0.7818608E-02  0.1379597E+00
          2   -1    0    0  502    0  0.00000000000E+00  0.00000000000E+00  0.10241011844E+04  0.10241011844E+04  0.00000000000E+00 0. -1.
          1   -1    0    0  501    0 -0.00000000000E+00 -0.00000000000E+00 -0.15531390063E+04  0.15531390063E+04  0.00000000000E+00 0. -1.
         25    2    1    2    0    0  0.15172718187E+03  0.28140681067E+02 -0.60772191141E+03  0.63934581771E+03  0.12499646941E+03 0.  0.
          2    1    1    2  501    0  0.16500699905E+02 -0.18470953442E+02 -0.92239757264E+03  0.92273004244E+03  0.00000000000E+00 0. -1.
          1    1    1    2  502    0 -0.16822788177E+03 -0.96697276247E+01  0.10010816621E+04  0.10151643306E+04  0.00000000000E+00 0. -1.
         22    1    3    3    0    0  0.44993484228E+02 -0.38651604267E+02 -0.31742593120E+03  0.32292039566E+03  0.00000000000E+00 0.  1.
         22    1    3    3    0    0  0.10673369764E+03  0.66792285334E+02 -0.29029598021E+03  0.31642542205E+03  0.00000000000E+00 0.  1.
</event>
<event>
 7    1  0.2895750E-005  0.9890967E+02  0.7818608E-02  0.1295196E+00
          2   -1    0    0  502    0  0.00000000000E+00  0.00000000000E+00  0.32678983942E+02  0.32678983942E+02  0.00000000000E+00 0. -1.
          1   -1    0    0  501    0 -0.00000000000E+00 -0.00000000000E+00 -0.20608464800E+04  0.20608464800E+04  0.00000000000E+00 0. -1.
         25    2    1    2    0    0 -0.37511659259E+02 -0.45412370409E+02 -0.55169908240E+03  0.56874085587E+03  0.12499950262E+03 0.  0.
          2    1    1    2  501    0 -0.51757155584E+02  0.88005820345E+02 -0.13890002754E+04  0.13927474978E+04  0.00000000000E+00 0. -1.
          1    1    1    2  502    0  0.89268814843E+02 -0.42593449936E+02 -0.87468138303E+02  0.13203711031E+03  0.00000000000E+00 0. -1.
         22    1    3    3    0    0 -0.32832394674E+02 -0.82740175975E+02 -0.47550765126E+03  0.48376794981E+03  0.00000000000E+00 0.  1.
         22    1    3    3    0    0 -0.46792645846E+01  0.37327805566E+02 -0.76191431135E+02  0.84972906057E+02  0.00000000000E+00 0.  1.
</event>
<event>
 7    1  0.2895750E-005  0.1276146E+03  0.7818608E-02  0.1282545E+00
          2   -1    0    0  502    0  0.00000000000E+00  0.00000000000E+00  0.25488109942E+04  0.25488109942E+04  0.00000000000E+00 0. -1.
          1   -1    0    0  501    0 -0.00000000000E+00 -0.00000000000E+00 -0.65638008106E+02  0.65638008106E+02  0.00000000000E+00 0. -1.
         25    2    1    2    0    0 -0.10899401292E+03 -0.33639626075E+02  0.15620307003E+04  0.15711703205E+04  0.12499979223E+03 0.  0.
          2    1    1    2  501    0 -0.43978850323E+02  0.62846035510E+02 -0.27840636681E+02  0.81601865823E+02  0.00000000000E+00 0. -1.
          1    1    1    2  502    0  0.15297286324E+03 -0.29206409434E+02  0.94898292245E+03  0.96167681595E+03  0.00000000000E+00 0. -1.
         22    1    3    3    0    0  0.44183619287E+01 -0.32379877543E+02  0.11092249179E+03  0.11563640247E+03  0.00000000000E+00 0. -1.
         22    1    3    3    0    0 -0.11341237485E+03 -0.12597485319E+01  0.14511082085E+04  0.14555339181E+04  0.00000000000E+00 0. -1.
</event>
<event>
 7    1  0.2895750E-005  0.7623762E+03  0.7818608E-02  0.1008409E+00
          2   -1    0    0  502    0  0.00000000000E+00  0.00000000000E+00  0.20176219965E+04  0.20176219965E+04  0.00000000000E+00 0. -1.
          1   -1    0    0  501    0 -0.00000000000E+00 -0.00000000000E+00 -0.10686746684E+04  0.10686746684E+04  0.00000000000E+00 0. -1.
         25    2    1    2    0    0 -0.79858508000E+03  0.45336044158E+03  0.94446224909E+02  0.93156816820E+03  0.12500137043E+03 0.  0.
          2    1    1    2  501    0  0.70774788785E+03 -0.10893006128E+03 -0.42083103951E+03  0.83058509186E+03  0.00000000000E+00 0. -1.
          1    1    1    2  502    0  0.90837192148E+02 -0.34443038031E+03  0.12753321427E+04  0.13241434049E+04  0.00000000000E+00 0. -1.
         22    1    3    3    0    0 -0.27769827265E+03  0.16089061395E+03 -0.26631752048E+02  0.32204249799E+03  0.00000000000E+00 0. -1.
         22    1    3    3    0    0 -0.52088680735E+03  0.29246982763E+03  0.12107797696E+03  0.60952567021E+03  0.00000000000E+00 0. -1.
</event>
<event>
 7    1  0.2895750E-005  0.3417832E+02  0.7818608E-02  0.1589485E+00
          2   -1    0    0  502    0  0.00000000000E+00  0.00000000000E+00  0.59313691425E+03  0.59313691425E+03  0.00000000000E+00 0. -1.
          1   -1    0    0  501    0 -0.00000000000E+00 -0.00000000000E+00 -0.59101859755E+02  0.59101859755E+02  0.00000000000E+00 0. -1.
         25    2    1    2    0    0 -0.13033629753E+01  0.16196319226E+02  0.43463385180E+03  0.45254244501E+03  0.12499623950E+03 0.  0.
          2    1    1    2  501    0  0.28920986884E+02 -0.18831126207E+02 -0.42705338281E+02  0.54907018807E+02  0.00000000000E+00 0. -1.
          1    1    1    2  502    0 -0.27617623909E+02  0.26348069808E+01  0.14210654097E+03  0.14478931019E+03  0.00000000000E+00 0. -1.
         22    1    3    3    0    0  0.16626257261E+02  0.11530578149E+02  0.29336442382E+01  0.20444875433E+02  0.00000000000E+00 0. -1.
         22    1    3    3    0    0 -0.17929620236E+02  0.46657410773E+01  0.43170020756E+03  0.43209756957E+03  0.00000000000E+00 0. -1.
</event>
<event>
 7    1  0.2895750E-005  0.4447393E+03  0.7818608E-02  0.1066038E+00
          2   -1    0    0  502    0  0.00000000000E+00  0.00000000000E+00  0.22063039637E+04  0.22063039637E+04  0.00000000000E+00 0. -1.
          1   -1    0    0  501    0 -0.00000000000E+00 -0.00000000000E+00 -0.21404308378E+04  0.21404308378E+04  0.00000000000E+00 0. -1.
         25    2    1    2    0    0  0.34414002994E+03  0.13717431807E+03 -0.20881342094E+01  0.39099756646E+03  0.12500233169E+03 0.  0.
          2    1    1    2  501    0 -0.87073025447E+02  0.24781187449E+03 -0.19081421142E+04  0.19261357078E+04  0.00000000000E+00 0. -1.
          1    1    1    2  502    0 -0.25706700449E+03 -0.38498619256E+03  0.19761033743E+04  0.20296015272E+04  0.00000000000E+00 0. -1.
         22    1    3    3    0    0  0.68623463909E+02  0.80986887383E+02 -0.24422905936E+02  0.10892444198E+03  0.00000000000E+00 0. -1.
         22    1    3    3    0    0  0.27551656603E+03  0.56187430687E+02  0.22334771727E+02  0.28207312447E+03  0.00000000000E+00 0. -1.
</event>
<event>
 7    1  0.2895750E-005  0.1966541E+03  0.7818608E-02  0.1233930E+00
          2   -1    0    0  502    0  0.00000000000E+00  0.00000000000E+00  0.10946342772E+04  0.10946342772E+04  0.00000000000E+00 0. -1.
          1   -1    0    0  501    0 -0.00000000000E+00 -0.00000000000E+00 -0.26281973804E+03  0.26281973804E+03  0.00000000000E+00 0. -1.
         25    2    1    2    0    0 -0.18161303943E+03 -0.50042163301E+02 -0.16446052915E+03  0.27957057867E+03  0.12499971445E+03 0.  0.
          2    1    1    2  501    0  0.24465055020E+03  0.99926211375E+02  0.42136713183E+03  0.49738254816E+03  0.00000000000E+00 0. -1.
          1    1    1    2  502    0 -0.63037510774E+02 -0.49884048074E+02  0.57490793645E+03  0.58050088838E+03  0.00000000000E+00 0. -1.
         22    1    3    3    0    0 -0.10571960180E+03 -0.86981929448E+02 -0.12870798012E+03  0.18790485465E+03  0.00000000000E+00 0.  1.
         22    1    3    3    0    0 -0.75893437629E+02  0.36939766146E+02 -0.35752549032E+02  0.91665724021E+02  0.00000000000E+00 0.  1.
</event>
<event>
 7    1  0.2895750E-005  0.3222698E+03  0.7818608E-02  0.1097878E+00
          2   -1    0    0  502    0  0.00000000000E+00  0.00000000000E+00  0.70932137898E+03  0.70932137898E+03  0.00000000000E+00 0. -1.
          1   -1    0    0  501    0 -0.00000000000E+00 -0.00000000000E+00 -0.11059273869E+04  0.11059273869E+04  0.00000000000E+00 0. -1.
         25    2    1    2    0    0  0.36463151663E+03 -0.34939284811E+03 -0.36681712028E+03  0.63656226613E+03  0.12500085482E+03 0.  0.
          2    1    1    2  501    0 -0.16341103524E+03  0.22527214123E+03 -0.54493073706E+03  0.61188251507E+03  0.00000000000E+00 0. -1.
          1    1    1    2  502    0 -0.20122048139E+03  0.12412070688E+03  0.51514184943E+03  0.56680398467E+03  0.00000000000E+00 0. -1.
         22    1    3    3    0    0  0.35113263392E+03 -0.33082032261E+03 -0.30533775179E+03  0.57093550873E+03  0.00000000000E+00 0.  1.
         22    1    3    3    0    0  0.13498882706E+02 -0.18572525496E+02 -0.61479368486E+02  0.65626757402E+02  0.00000000000E+00 0.  1.
</event>
<event>
 7    1  0.2895750E-005  0.3711101E+03  0.7818608E-02  0.1075026E+00
          2   -1    0    0  502    0  0.00000000000E+00  0.00000000000E+00  0.11347654069E+04  0.11347654069E+04  0.00000000000E+00 0. -1.
          1   -1    0    0  501    0 -0.00000000000E+00 -0.00000000000E+00 -0.93244060794E+03  0.93244060794E+03  0.00000000000E+00 0. -1.
         25    2    1    2    0    0  0.59070798794E+03 -0.44816278177E+02 -0.68492862767E+03  0.91416427037E+03  0.12499864963E+03 0.  0.
          2    1    1    2  501    0 -0.25958178144E+03 -0.10026958448E+03  0.11642443679E+03  0.30164770894E+03  0.00000000000E+00 0. -1.
          1    1    1    2  502    0 -0.33112620650E+03  0.14508586266E+03  0.77082898983E+03  0.85139403553E+03  0.00000000000E+00 0. -1.
         22    1    3    3    0    0  0.53817581788E+03 -0.64586185983E+02 -0.57183814761E+03  0.78791081566E+03  0.00000000000E+00 0.  1.
         22    1    3    3    0    0  0.52532170061E+02  0.19769907807E+02 -0.11309048005E+03  0.12625345470E+03  0.00000000000E+00 0.  1.
</event>
<event>
 7    1  0.2895750E-005  0.1310249E+03  0.7818608E-02  0.1237050E+00
          2   -1    0    0  502    0  0.00000000000E+00  0.00000000000E+00  0.42000416308E+03  0.42000416308E+03  0.00000000000E+00 0. -1.
          1   -1    0    0  501    0 -0.00000000000E+00 -0.00000000000E+00 -0.17554129604E+04  0.17554129604E+04  0.00000000000E+00 0. -1.
         25    2    1    2    0    0  0.18766439428E+03 -0.78000859290E+02 -0.39904336763E+03  0.46493751926E+03  0.12501691337E+03 0.  0.
          2    1    1    2  501    0 -0.11330831359E+03 -0.28599549145E+02 -0.13098364470E+04  0.13150392489E+04  0.00000000000E+00 0. -1.
          1    1    1    2  502    0 -0.74356080693E+02  0.10660040844E+03  0.37347101736E+03  0.39544035533E+03  0.00000000000E+00 0. -1.
         22    1    3    3    0    0  0.12849222547E+03 -0.31534152836E+02 -0.12966673005E+03  0.18525149307E+03  0.00000000000E+00 0.  1.
         22    1    3    3    0    0  0.59172168813E+02 -0.46466706454E+02 -0.26937663758E+03  0.27968602619E+03  0.00000000000E+00 0.  1.
</event>
<event>
 7    1  0.2895750E-005  0.1488361E+03  0.7818608E-02  0.1261624E+00
          2   -1    0    0  502    0  0.00000000000E+00  0.00000000000E+00  0.42889856304E+03  0.42889856304E+03  0.00000000000E+00 0. -1.
          1   -1    0    0  501    0 -0.00000000000E+00 -0.00000000000E+00 -0.83669434306E+03  0.83669434306E+03  0.00000000000E+00 0. -1.
         25    2    1    2    0    0  0.14365089078E+03  0.61031182996E+02  0.20991650766E+03  0.28991426224E+03  0.12499982215E+03 0.  0.
          2    1    1    2  501    0  0.76579439892E+01 -0.80095909584E+02 -0.76170125505E+03  0.76593916259E+03  0.00000000000E+00 0. -1.
          1    1    1    2  502    0 -0.15130883477E+03  0.19064726589E+02  0.14398896737E+03  0.20973948127E+03  0.00000000000E+00 0. -1.
         22    1    3    3    0    0  0.53635666957E+02  0.79191991475E+02  0.56421066217E+02  0.11104725569E+03  0.00000000000E+00 0. -1.
         22    1    3    3    0    0  0.90015223825E+02 -0.18160808479E+02  0.15349544145E+03  0.17886700654E+03  0.00000000000E+00 0. -1.
</event>
<event>
 7    1  0.2895750E-005  0.1051367E+03  0.7818608E-02  0.1360031E+00
          2   -1    0    0  502    0  0.00000000000E+00  0.00000000000E+00  0.11859566865E+03  0.11859566865E+03  0.00000000000E+00 0. -1.
          1   -1    0    0  501    0 -0.00000000000E+00 -0.00000000000E+00 -0.95594602656E+03  0.95594602656E+03  0.00000000000E+00 0. -1.
         25    2    1    2    0    0  0.21670055192E+02 -0.10506349424E+03 -0.16183003043E+02  0.16551610249E+03  0.12500304590E+03 0.  0.
          2    1    1    2  501    0 -0.63413941259E+02  0.84283151747E+02 -0.84846303134E+03  0.85499385563E+03  0.00000000000E+00 0. -1.
          1    1    1    2  502    0  0.41743886067E+02  0.20780342488E+02  0.27295676476E+02  0.54031737083E+02  0.00000000000E+00 0. -1.
         22    1    3    3    0    0 -0.39221948327E+01 -0.74852628812E+01  0.46160594125E+02  0.46927744701E+02  0.00000000000E+00 0.  1.
         22    1    3    3    0    0  0.25592250024E+02 -0.97578231354E+02 -0.62343597169E+02  0.11858835779E+03  0.00000000000E+00 0.  1.
</event>
<event>
 7    1  0.2895750E-005  0.4097617E+03  0.7818608E-02  0.1079463E+00
          2   -1    0    0  502    0  0.00000000000E+00  0.00000000000E+00  0.12556905790E+04  0.12556905790E+04  0.00000000000E+00 0. -1.
          1   -1    0    0  501    0 -0.00000000000E+00 -0.00000000000E+00 -0.61144156450E+03  0.61144156450E+03  0.00000000000E+00 0. -1.
         25    2    1    2    0    0 -0.39924958292E+03  0.32312624279E+03  0.16534870324E+03  0.55387519332E+03  0.12500695133E+03 0.  0.
          2    1    1    2  501    0  0.23457707374E+03  0.36065616421E+02 -0.33380906792E+03  0.40957981644E+03  0.00000000000E+00 0. -1.
          1    1    1    2  502    0  0.16467250918E+03 -0.35919185921E+03  0.81270937914E+03  0.90367713368E+03  0.00000000000E+00 0. -1.
         22    1    3    3    0    0 -0.87666879124E+02  0.70551158737E+02 -0.16046720475E+02  0.11366813508E+03  0.00000000000E+00 0.  1.
         22    1    3    3    0    0 -0.31158270379E+03  0.25257508405E+03  0.18139542371E+03  0.44020705824E+03  0.00000000000E+00 0.  1.
</event>
<event>
 7    1  0.2895750E-005  0.4718704E+03  0.7818608E-02  0.1227265E+00
          2   -1    0    0  502    0  0.00000000000E+00  0.00000000000E+00  0.11926642348E+04  0.11926642348E+04  0.00000000000E+00 0. -1.
          1   -1    0    0  501    0 -0.00000000000E+00 -0.00000000000E+00 -0.67310835612E+03  0.67310835612E+03  0.00000000000E+00 0. -1.
         25    2    1    2    0    0  0.44381860030E+03  0.12864535658E+03  0.55176475305E+03  0.73047520013E+03  0.12500039018E+03 0.  0.
          2    1    1    2  501    0 -0.44399250320E+03 -0.16453062657E+03 -0.48691330632E+03  0.67917909115E+03  0.00000000000E+00 0. -1.
          1    1    1    2  502    0  0.17390289814E+00  0.35885269997E+02  0.45470443191E+03  0.45611829962E+03  0.00000000000E+00 0. -1.
         22    1    3    3    0    0  0.24218566138E+03  0.54380089435E+02  0.20219888547E+03  0.32014914960E+03  0.00000000000E+00 0.  1.
         22    1    3    3    0    0  0.20163293892E+03  0.74265267141E+02  0.34956586758E+03  0.41032605053E+03  0.00000000000E+00 0.  1.
</event>
<event>
 7    1  0.2895750E-005  0.4231453E+03  0.7818608E-02  0.1205836E+00
          2   -1    0    0  502    0  0.00000000000E+00  0.00000000000E+00  0.36975564083E+03  0.36975564083E+03  0.00000000000E+00 0. -1.
          1   -1    0    0  501    0 -0.00000000000E+00 -0.00000000000E+00 -0.18751303509E+04  0.18751303509E+04  0.00000000000E+00 0. -1.
         25    2    1    2    0    0 -0.29300294793E+03  0.25834771239E+03 -0.48311030832E+03  0.63373148618E+03  0.12500303430E+03 0.  0.
          2    1    1    2  501    0 -0.11637806557E+02  0.48812340272E+02 -0.11569681434E+04  0.11580558570E+04  0.00000000000E+00 0. -1.
          1    1    1    2  502    0  0.30464075448E+03 -0.30716005266E+03  0.13470374169E+03  0.45309864850E+03  0.00000000000E+00 0. -1.
         22    1    3    3    0    0 -0.78763089558E+02  0.14723854724E+03 -0.16857825346E+03  0.23727924816E+03  0.00000000000E+00 0. -1.
         22    1    3    3    0    0 -0.21423985837E+03  0.11110916515E+03 -0.31453205487E+03  0.39645223802E+03  0.00000000000E+00 0. -1.
</event>
<event>
 7    1  0.2895750E-005  0.8796824E+02  0.7818608E-02  0.1313251E+00
          2   -1    0    0  502    0  0.00000000000E+00  0.00000000000E+00  0.31289523880E+03  0.31289523880E+03  0.00000000000E+00 0. -1.
          1   -1    0    0  501    0 -0.00000000000E+00 -0.00000000000E+00 -0.37061542547E+03  0.37061542547E+03  0.00000000000E+00 0. -1.
         25    2    1    2    0    0 -0.84973257943E+02  0.40548473369E+02 -0.24155742590E+03  0.28781970937E+03  0.12500224732E+03 0.  0.
          2    1    1    2  501    0  0.91276370934E+02  0.42976524224E+02 -0.73657335457E+02  0.12491501348E+03  0.00000000000E+00 0. -1.
          1    1    1    2  502    0 -0.63031129908E+01 -0.83524997593E+02  0.25749457469E+03  0.27077594142E+03  0.00000000000E+00 0. -1.
         22    1    3    3    0    0 -0.11649890213E+03  0.39270387853E+02 -0.20903552348E+03  0.24250774758E+03  0.00000000000E+00 0. -1.
         22    1    3    3    0    0  0.31525644188E+02  0.12780855159E+01 -0.32521902424E+02  0.45311961791E+02  0.00000000000E+00 0. -1.
</event>
<event>
 7    1  0.2895750E-005  0.1895860E+03  0.7818608E-02  0.1159174E+00
          2   -1    0    0  502    0  0.00000000000E+00  0.00000000000E+00  0.97592794846E+03  0.97592794846E+03  0.00000000000E+00 0. -1.
          1   -1    0    0  501    0 -0.00000000000E+00 -0.00000000000E+00 -0.32407816542E+03  0.32407816542E+03  0.00000000000E+00 0. -1.
         25    2    1    2    0    0 -0.43874559027E+02 -0.20489170880E+03  0.20238834630E+01  0.24400532182E+03  0.12501564585E+03 0.  0.
          2    1    1    2  501    0 -0.13677177804E+03  0.13128714182E+03 -0.14430850153E+03  0.23825989274E+03  0.00000000000E+00 0. -1.
          1    1    1    2  502    0  0.18064633706E+03  0.73604566982E+02  0.79413440112E+03  0.81774089931E+03  0.00000000000E+00 0. -1.
         22    1    3    3    0    0 -0.85619402200E+02 -0.12186048736E+03 -0.14416574539E+02  0.14962786516E+03  0.00000000000E+00 0. -1.
         22    1    3    3    0    0  0.41744843173E+02 -0.83031221441E+02  0.16440458002E+02  0.94377456655E+02  0.00000000000E+00 0. -1.
</event>
<event>
 7    1  0.2895750E-005  0.1672751E+03  0.7818608E-02  0.1190734E+00
          2   -1    0    0  502    0  0.00000000000E+00  0.00000000000E+00  0.11451763593E+04  0.11451763593E+04  0.00000000000E+00 0. -1.
          1   -1    0    0  501    0 -0.00000000000E+00 -0.00000000000E+00 -0.42546243367E+03  0.42546243367E+03  0.00000000000E+00 0. -1.
         25    2    1    2    0    0  0.16002791041E+03 -0.28621004489E+02 -0.14964401325E+03  0.25386238172E+03  0.12499873655E+03 0.  0.
          2    1    1    2  501    0 -0.15855057867E+03 -0.12100529066E+03 -0.17282210147E+03  0.26390916074E+03  0.00000000000E+00 0. -1.
          1    1    1    2  502    0 -0.14773317445E+01  0.14962629515E+03  0.10421800404E+04  0.10528672505E+04  0.00000000000E+00 0. -1.
         22    1    3    3    0    0  0.16586625791E+03 -0.31244420565E+02 -0.85139659986E+02  0.18904124162E+03  0.00000000000E+00 0. -1.
         22    1    3    3    0    0 -0.58383474984E+01  0.26234160761E+01 -0.64504353265E+02  0.64821140098E+02  0.00000000000E+00 0. -1.
</event>
<event>
 7    1  0.2895750E-005  0.1032814E+03  0.7818608E-02  0.1374322E+00
          2   -1    0    0  502    0  0.00000000000E+00  0.00000000000E+00  0.27964482569E+04  0.27964482569E+04  0.00000000000E+00 0. -1.
          1   -1    0    0  501    0 -0.00000000000E+00 -0.00000000000E+00 -0.46204946948E+03  0.46204946948E+03  0.00000000000E+00 0. -1.
         25    2    1    2    0    0  0.78791804421E+02  0.79333700308E+02  0.58711501782E+03  0.61059800272E+03  0.12499556926E+03 0.  0.
          2    1    1    2  501    0  0.16140259545E+02 -0.38938184597E+02 -0.44810753717E+03  0.45008560860E+03  0.00000000000E+00 0. -1.
          1    1    1    2  502    0 -0.94932063966E+02 -0.40395515711E+02  0.21953913068E+04  0.21978141150E+04  0.00000000000E+00 0. -1.
         22    1    3    3    0    0  0.55062576937E+02  0.11334197133E+03  0.42752793097E+03  0.44571114144E+03  0.00000000000E+00 0.  1.
         22    1    3    3    0    0  0.23729227484E+02 -0.34008271025E+02  0.15958708685E+03  0.16488686128E+03  0.00000000000E+00 0.  1.
</event>
<event>
 7    1  0.5368898E-005  0.1690559E+03  0.7818608E-02  0.1226714E+00
          2   -1    0    0  502    0  0.00000000000E+00  0.00000000000E+00  0.19780046193E+04  0.19780046193E+04  0.00000000000E+00 0. -1.
          1   -1    0    0  501    0 -0.00000000000E+00 -0.00000000000E+00 -0.17434150889E+04  0.17434150889E+04  0.00000000000E+00 0. -1.
         25    2    1    2    0    0 -0.62089503917E+02 -0.19065068863E+03 -0.53851197317E+03  0.58806649773E+03  0.12499707567E+03 0.  0.
          2    1    1    2  501    0 -0.34770724778E+02  0.16296418306E+03 -0.11729344223E+04  0.11847115629E+04  0.00000000000E+00 0. -1.
          1    1    1    2  502    0  0.96860228695E+02  0.27686505574E+02  0.19460359258E+04  0.19486416477E+04  0.00000000000E+00 0. -1.
         22    1    3    3    0    0 -0.25791357354E+02 -0.94384914662E+02 -0.41945480903E+03  0.43071573346E+03  0.00000000000E+00 0.  1.
         22    1    3    3    0    0 -0.36298146563E+02 -0.96265773971E+02 -0.11905716414E+03  0.15735076427E+03  0.00000000000E+00 0.  1.
</event>
<event>
 7    1  0.2895750E-005  0.1485131E+03  0.7818608E-02  0.1205087E+00
          2   -1    0    0  502    0  0.00000000000E+00  0.00000000000E+00  0.52911070075E+03  0.52911070075E+03  0.00000000000E+00 0. -1.
          1   -1    0    0  501    0 -0.00000000000E+00 -0.00000000000E+00 -0.11748405515E+04  0.11748405515E+04  0.00000000000E+00 0. -1.
         25    2    1    2    0    0  0.21834252716E+03  0.16088070274E+03 -0.49047034356E+03  0.57423259990E+03  0.12500344469E+03 0.  0.
          2    1    1    2  501    0 -0.77427605008E+02 -0.12156851388E+03 -0.62309235968E+03  0.63954517141E+03  0.00000000000E+00 0. -1.
          1    1    1    2  502    0 -0.14091492216E+03 -0.39312188861E+02  0.46783285253E+03  0.49017348091E+03  0.00000000000E+00 0. -1.
         22    1    3    3    0    0  0.13623958592E+03  0.13984110457E+03 -0.23752595840E+03  0.30746599846E+03  0.00000000000E+00 0.  1.
         22    1    3    3    0    0  0.82102941242E+02  0.21039598176E+02 -0.25294438517E+03  0.26676660143E+03  0.00000000000E+00 0.  1.
</event>
<event>
 7    1  0.2895750E-005  0.4537744E+03  0.7818608E-02  0.1063912E+00
          2   -1    0    0  502    0  0.00000000000E+00  0.00000000000E+00  0.87267529521E+03  0.87267529521E+03  0.00000000000E+00 0. -1.
          1   -1    0    0  501    0 -0.00000000000E+00 -0.00000000000E+00 -0.14242633058E+04  0.14242633058E+04  0.00000000000E+00 0. -1.
         25    2    1    2    0    0 -0.26226690418E+03 -0.44892799306E+03 -0.13900261498E+03  0.55252010618E+03  0.12504586672E+03 0.  0.
          2    1    1    2  501    0 -0.28503438238E+01  0.45182019953E+03 -0.10014280088E+04  0.10986390099E+04  0.00000000000E+00 0. -1.
          1    1    1    2  502    0  0.26511724800E+03 -0.28922064711E+01  0.58884261322E+03  0.64577948495E+03  0.00000000000E+00 0. -1.
         22    1    3    3    0    0 -0.14567611391E+03 -0.25324989300E+03 -0.14173572348E+03  0.32472458142E+03  0.00000000000E+00 0.  1.
         22    1    3    3    0    0 -0.11659079027E+03 -0.19567810006E+03  0.27331085039E+01  0.22779552476E+03  0.00000000000E+00 0.  1.
</event>
<event>
 7    1  0.2895750E-005  0.4284819E+02  0.7818608E-02  0.1603239E+00
          2   -1    0    0  502    0  0.00000000000E+00  0.00000000000E+00  0.70249397893E+03  0.70249397893E+03  0.00000000000E+00 0. -1.
          1   -1    0    0  501    0 -0.00000000000E+00 -0.00000000000E+00 -0.79839328186E+02  0.79839328186E+02  0.00000000000E+00 0. -1.
         25    2    1    2    0    0  0.15657539124E+01 -0.56744879884E+02  0.33037809891E+03  0.35776568887E+03  0.12499666762E+03 0.  0.
          2    1    1    2  501    0  0.11252275135E+02  0.16972889273E+02 -0.63325281947E+02  0.66519049900E+02  0.00000000000E+00 0. -1.
          1    1    1    2  502    0 -0.12818029048E+02  0.39771990612E+02  0.35560183378E+03  0.35804856834E+03  0.00000000000E+00 0. -1.
         22    1    3    3    0    0 -0.28049506784E+02 -0.87782447390E+02  0.25345557403E+03  0.26968919316E+03  0.00000000000E+00 0. -1.
         22    1    3    3    0    0  0.29615260696E+02  0.31037567506E+02  0.76922524885E+02  0.88076495715E+02  0.00000000000E+00 0. -1.
</event>
<event>
 7    1  0.2895750E-005  0.2427840E+03  0.7818608E-02  0.1150590E+00
          2   -1    0    0  502    0  0.00000000000E+00  0.00000000000E+00  0.36294759914E+03  0.36294759914E+03  0.00000000000E+00 0. -1.
          1   -1    0    0  501    0 -0.00000000000E+00 -0.00000000000E+00 -0.56449537431E+03  0.56449537431E+03  0.00000000000E+00 0. -1.
         25    2    1    2    0    0  0.33110758060E+03 -0.17304886030E+03  0.13622090563E+03  0.41684467353E+03  0.12500083494E+03 0.  0.
          2    1    1    2  501    0 -0.20878083907E+03  0.65166452856E+02 -0.17423968221E+03  0.27963471208E+03  0.00000000000E+00 0. -1.
          1    1    1    2  502    0 -0.12232674154E+03  0.10788240744E+03 -0.16352899859E+03  0.23096358784E+03  0.00000000000E+00 0. -1.
         22    1    3    3    0    0  0.10487148588E+03 -0.10204573566E+03  0.62862338550E+01  0.14646118070E+03  0.00000000000E+00 0. -1.
         22    1    3    3    0    0  0.22623609473E+03 -0.71003124640E+02  0.12993467177E+03  0.27038349283E+03  0.00000000000E+00 0. -1.
</event>
<event>
 7    1  0.2895750E-005  0.6504446E+02  0.7818608E-02  0.1411100E+00
          2   -1    0    0  502    0  0.00000000000E+00  0.00000000000E+00  0.35242769664E+03  0.35242769664E+03  0.00000000000E+00 0. -1.
          1   -1    0    0  501    0 -0.00000000000E+00 -0.00000000000E+00 -0.60918276631E+03  0.60918276631E+03  0.00000000000E+00 0. -1.
         25    2    1    2    0    0 -0.43273051761E+02  0.78015776733E+01  0.21518916789E+03  0.25271075482E+03  0.12499170373E+03 0.  0.
          2    1    1    2  501    0 -0.24794248898E+02  0.43259637587E+02 -0.57392238521E+03  0.57608424320E+03  0.00000000000E+00 0. -1.
          1    1    1    2  502    0  0.68067300659E+02 -0.51061215260E+02  0.10197814765E+03  0.13281546492E+03  0.00000000000E+00 0. -1.
         22    1    3    3    0    0 -0.42258273494E+02  0.57812961093E+02  0.74240929579E+02  0.10314948266E+03  0.00000000000E+00 0.  1.
         22    1    3    3    0    0 -0.10147782671E+01 -0.50011383420E+02  0.14094823831E+03  0.14956127216E+03  0.00000000000E+00 0.  1.
</event>
<event>
 7    1  0.2895750E-005  0.2416444E+03  0.7818608E-02  0.1246230E+00
          2   -1    0    0  502    0  0.00000000000E+00  0.00000000000E+00  0.80869016279E+03  0.80869016279E+03  0.00000000000E+00 0. -1.
          1   -1    0    0  501    0 -0.00000000000E+00 -0.00000000000E+00 -0.85785889323E+03  0.85785889323E+03  0.00000000000E+00 0. -1.
         25    2    1    2    0    0 -0.19289093008E+03 -0.14083547678E+03  0.47714628669E+03  0.54802850822E+03  0.12500049795E+03 0.  0.
          2    1    1    2  501    0 -0.37384111102E+02  0.44003125527E+02 -0.76845426257E+03  0.77062039973E+03  0.00000000000E+00 0. -1.
          1    1    1    2  502    0  0.23027504119E+03  0.96832351256E+02  0.24213924544E+03  0.34790014807E+03  0.00000000000E+00 0. -1.
         22    1    3    3    0    0 -0.12848049913E+03 -0.17410569948E+02  0.21051943547E+03  0.24724238979E+03  0.00000000000E+00 0. -1.
         22    1    3    3    0    0 -0.64410430955E+02 -0.12342490683E+03  0.26662685122E+03  0.30078611842E+03  0.00000000000E+00 0. -1.
</event>
<event>
 7    1  0.2895750E-005  0.1161637E+03  0.7818608E-02  0.1340708E+00
          2   -1    0    0  502    0  0.00000000000E+00  0.00000000000E+00  0.13187112366E+03  0.13187112366E+03  0.00000000000E+00 0. -1.
          1   -1    0    0  501    0 -0.00000000000E+00 -0.00000000000E+00 -0.21777723257E+04  0.21777723257E+04  0.00000000000E+00 0. -1.
         25    2    1    2    0    0  0.20426052604E+01  0.72898205964E+02 -0.24801369159E+03  0.28714812975E+03  0.12499974613E+03 0.  0.
          2    1    1    2  501    0  0.15007690129E+02  0.47446617459E+02 -0.18768772272E+04  0.18775368274E+04  0.00000000000E+00 0. -1.
          1    1    1    2  502    0 -0.17050295389E+02 -0.12034482342E+03  0.78989716776E+02  0.14495849218E+03  0.00000000000E+00 0. -1.
         22    1    3    3    0    0  0.57660783700E+02  0.26381678115E+02 -0.67475630261E+02  0.92594382099E+02  0.00000000000E+00 0. -1.
         22    1    3    3    0    0 -0.55618178440E+02  0.46516527849E+02 -0.18053806133E+03  0.19455374765E+03  0.00000000000E+00 0. -1.
</event>
<event>
 7    1  0.2895750E-005  0.1950240E+03  0.7818608E-02  0.1158260E+00
          2   -1    0    0  502    0  0.00000000000E+00  0.00000000000E+00  0.14504234288E+04  0.14504234288E+04  0.00000000000E+00 0. -1.
          1   -1    0    0  501    0 -0.00000000000E+00 -0.00000000000E+00 -0.84885058901E+02  0.84885058901E+02  0.00000000000E+00 0. -1.
         25    2    1    2    0    0  0.96419602258E+02 -0.41611797454E+02  0.13404960023E+03  0.21124409520E+03  0.12500596404E+03 0.  0.
          2    1    1    2  501    0  0.90068679945E+02  0.17297970105E+03  0.25357574414E+03  0.31989842466E+03  0.00000000000E+00 0. -1.
          1    1    1    2  502    0 -0.18648828220E+03 -0.13136790359E+03  0.97791302557E+03  0.10041659679E+04  0.00000000000E+00 0. -1.
         22    1    3    3    0    0  0.87394066860E+02  0.19256412268E+02  0.38110673644E+02  0.97267444612E+02  0.00000000000E+00 0.  1.
         22    1    3    3    0    0  0.90255353988E+01 -0.60868209722E+02  0.95938926586E+02  0.11397665058E+03  0.00000000000E+00 0.  1.
</event>
<event>
 7    1  0.2895750E-005  0.6600987E+03  0.7818608E-02  0.1003829E+00
          2   -1    0    0  502    0  0.00000000000E+00  0.00000000000E+00  0.20116955555E+04  0.20116955555E+04  0.00000000000E+00 0. -1.
          1   -1    0    0  501    0 -0.00000000000E+00 -0.00000000000E+00 -0.10476075501E+04  0.10476075501E+04  0.00000000000E+00 0. -1.
         25    2    1    2    0    0 -0.49015303681E+03  0.22700730033E+03  0.16866967014E+03  0.57953230124E+03  0.12500366659E+03 0.  0.
          2    1    1    2  501    0  0.12532577554E+03  0.42364451519E+03 -0.68899261404E+03  0.81846933202E+03  0.00000000000E+00 0. -1.
          1    1    1    2  502    0  0.36482726128E+03 -0.65065181552E+03  0.14844109493E+04  0.16613014723E+04  0.00000000000E+00 0. -1.
         22    1    3    3    0    0 -0.17425474751E+03  0.50556532042E+02  0.11215954616E+03  0.21330833026E+03  0.00000000000E+00 0. -1.
         22    1    3    3    0    0 -0.31589828930E+03  0.17645076829E+03  0.56510123984E+02  0.36622397099E+03  0.00000000000E+00 0. -1.
</event>
<event>
 7    1  0.2895750E-005  0.3730053E+03  0.7818608E-02  0.1193025E+00
          2   -1    0    0  502    0  0.00000000000E+00  0.00000000000E+00  0.59030164308E+03  0.59030164308E+03  0.00000000000E+00 0. -1.
          1   -1    0    0  501    0 -0.00000000000E+00 -0.00000000000E+00 -0.13623916470E+04  0.13623916470E+04  0.00000000000E+00 0. -1.
         25    2    1    2    0    0 -0.14958514849E+03  0.39958078392E+03 -0.14780352482E+03  0.46852063644E+03  0.12500074118E+03 0.  0.
          2    1    1    2  501    0  0.13848526805E+03 -0.33509686190E+03 -0.10202889549E+04  0.10828008256E+04  0.00000000000E+00 0. -1.
          1    1    1    2  502    0  0.11099880437E+02 -0.64483922020E+02  0.39600247580E+03  0.40137182809E+03  0.00000000000E+00 0. -1.
         22    1    3    3    0    0 -0.98928871187E+00  0.10059886466E+03 -0.78317090249E+02  0.12749383078E+03  0.00000000000E+00 0.  1.
         22    1    3    3    0    0 -0.14859585978E+03  0.29898191926E+03 -0.69486434569E+02  0.34102680566E+03  0.00000000000E+00 0.  1.
</event>
<event>
 7    1  0.2895750E-005  0.1498463E+03  0.7818608E-02  0.1333730E+00
          2   -1    0    0  502    0  0.00000000000E+00  0.00000000000E+00  0.44528673463E+03  0.44528673463E+03  0.00000000000E+00 0. -1.
          1   -1    0    0  501    0 -0.00000000000E+00 -0.00000000000E+00 -0.17496502858E+03  0.17496502858E+03  0.00000000000E+00 0. -1.
         25    2    1    2    0    0  0.14589755156E+03 -0.14826402446E+02  0.55696080927E+02  0.20058045974E+03  0.12499819854E+03 0.  0.
          2    1    1    2  501    0 -0.46521797350E+01 -0.40727042202E+02 -0.79076484450E+02  0.89069776781E+02  0.00000000000E+00 0. -1.
          1    1    1    2  502    0 -0.14124537183E+03  0.55553444647E+02  0.29370210958E+03  0.33060152668E+03  0.00000000000E+00 0. -1.
         22    1    3    3    0    0  0.79270622508E+02  0.54010579404E+02  0.17811222828E+02  0.97561334242E+02  0.00000000000E+00 0.  1.
         22    1    3    3    0    0  0.66626929056E+02 -0.68836981849E+02  0.37884858098E+02  0.10301912550E+03  0.00000000000E+00 0.  1.
</event>
<event>
 7    1  0.2895750E-005  0.6110587E+02  0.7818608E-02  0.1401728E+00
          2   -1    0    0  502    0  0.00000000000E+00  0.00000000000E+00  0.10999364620E+04  0.10999364620E+04  0.00000000000E+00 0. -1.
          1   -1    0    0  501    0 -0.00000000000E+00 -0.00000000000E+00 -0.18211997184E+03  0.18211997184E+03  0.00000000000E+00 0. -1.
         25    2    1    2    0    0 -0.50046715822E+02  0.24484860797E+02  0.18836694951E+03  0.23283174945E+03  0.12499733481E+03 0.  0.
          2    1    1    2  501    0  0.42900760632E+02  0.37718209816E+02 -0.15364128560E+03  0.16391700111E+03  0.00000000000E+00 0. -1.
          1    1    1    2  502    0  0.71459551899E+01 -0.62203070613E+02  0.88309082629E+03  0.88530768333E+03  0.00000000000E+00 0. -1.
         22    1    3    3    0    0 -0.99460898558E+01 -0.11951642544E+02 -0.15459795553E+02  0.21926507735E+02  0.00000000000E+00 0.  1.
         22    1    3    3    0    0 -0.40100625966E+02  0.36436503342E+02  0.20382674506E+03  0.21090524171E+03  0.00000000000E+00 0.  1.
</event>
<event>
 7    1  0.2895750E-005  0.2831430E+03  0.7818608E-02  0.1167017E+00
          2   -1    0    0  502    0  0.00000000000E+00  0.00000000000E+00  0.13484151376E+04  0.13484151376E+04  0.00000000000E+00 0. -1.
          1   -1    0    0  501    0 -0.00000000000E+00 -0.00000000000E+00 -0.20763213390E+03  0.20763213390E+03  0.00000000000E+00 0. -1.
         25    2    1    2    0    0 -0.17893703108E+03 -0.24223985039E+03  0.51869971373E+03  0.61267730537E+03  0.12500192512E+03 0.  0.
          2    1    1    2  501    0 -0.62087583706E+02  0.97354794108E+02 -0.10978707754E+03  0.15932992933E+03  0.00000000000E+00 0. -1.
          1    1    1    2  502    0  0.24102461478E+03  0.14488505628E+03  0.73187036756E+03  0.78404003684E+03  0.00000000000E+00 0. -1.
         22    1    3    3    0    0 -0.12786561169E+03 -0.23646894181E+03  0.47223934813E+03  0.54339412677E+03  0.00000000000E+00 0. -1.
         22    1    3    3    0    0 -0.51071419388E+02 -0.57709085736E+01  0.46460365604E+02  0.69283178594E+02  0.00000000000E+00 0. -1.
</event>
<event>
 7    1  0.2895750E-005  0.3951477E+03  0.7818608E-02  0.1070654E+00
          2   -1    0    0  502    0  0.00000000000E+00  0.00000000000E+00  0.16760643696E+04  0.16760643696E+04  0.00000000000E+00 0. -1.
          1   -1    0    0  501    0 -0.00000000000E+00 -0.00000000000E+00 -0.47498624466E+03  0.47498624466E+03  0.00000000000E+00 0. -1.
         25    2    1    2    0    0  0.56781730520E+03 -0.24151412893E+03  0.29882978797E+03  0.69690223474E+03  0.12501166371E+03 0.  0.
          2    1    1    2  501    0 -0.27639887836E+03  0.23834732753E+02 -0.16762363384E+03  0.32413286946E+03  0.00000000000E+00 0. -1.
          1    1    1    2  502    0 -0.29141842684E+03  0.21767939617E+03  0.10698719709E+04  0.11300155101E+04  0.00000000000E+00 0. -1.
         22    1    3    3    0    0  0.53163852524E+03 -0.24713181908E+03  0.30319437588E+03  0.66003067132E+03  0.00000000000E+00 0. -1.
         22    1    3    3    0    0  0.36178779954E+02  0.56176901522E+01 -0.43645879098E+01  0.36871563423E+02  0.00000000000E+00 0. -1.
</event>
<event>
 7    1  0.2895750E-005  0.2698245E+03  0.7818608E-02  0.1117469E+00
          2   -1    0    0  502    0  0.00000000000E+00  0.00000000000E+00  0.17126088158E+04  0.17126088158E+04  0.00000000000E+00 0. -1.
          1   -1    0    0  501    0 -0.00000000000E+00 -0.00000000000E+00 -0.45476143985E+03  0.45476143985E+03  0.00000000000E+00 0. -1.
         25    2    1    2    0    0  0.83540209764E+02  0.13876716722E+03  0.40929029301E+03  0.45757905392E+03  0.12499901313E+03 0.  0.
          2    1    1    2  501    0  0.89868585932E+02 -0.27379957523E+03 -0.37146141941E+03  0.47013418961E+03  0.00000000000E+00 0. -1.
          1    1    1    2  502    0 -0.17340879570E+03  0.13503240801E+03  0.12200185024E+04  0.12396570122E+04  0.00000000000E+00 0. -1.
         22    1    3    3    0    0 -0.19269936917E+02  0.81104166452E+02  0.12999642565E+03  0.15442890586E+03  0.00000000000E+00 0. -1.
         22    1    3    3    0    0  0.10281014668E+03  0.57663000765E+02  0.27929386737E+03  0.30315014806E+03  0.00000000000E+00 0. -1.
</event>
<event>
 7    1  0.2895750E-005  0.4738596E+02  0.7818608E-02  0.1464483E+00
          2   -1    0    0  502    0  0.00000000000E+00  0.00000000000E+00  0.32529060171E+03  0.32529060171E+03  0.00000000000E+00 0. -1.
          1   -1    0    0  501    0 -0.00000000000E+00 -0.00000000000E+00 -0.35369266818E+03  0.35369266818E+03  0.00000000000E+00 0. -1.
         25    2    1    2    0    0 -0.11716342357E+02  0.54982986750E+01  0.99752754708E+01  0.12606291165E+03  0.12499939042E+03 0.  0.
          2    1    1    2  501    0 -0.24282758916E+02 -0.38907737943E+02 -0.29149545032E+03  0.29508144979E+03  0.00000000000E+00 0. -1.
          1    1    1    2  502    0  0.35999101273E+02  0.33409439268E+02  0.25311810838E+03  0.25783890845E+03  0.00000000000E+00 0. -1.
         22    1    3    3    0    0 -0.51099590918E+02  0.84544075388E+01  0.48452268202E+02  0.70924378691E+02  0.00000000000E+00 0. -1.
         22    1    3    3    0    0  0.39383248561E+02 -0.29561088638E+01 -0.38476992732E+02  0.55138532955E+02  0.00000000000E+00 0. -1.
</event>
<event>
 7    1  0.2895750E-005  0.9300023E+02  0.7818608E-02  0.1386993E+00
          2   -1    0    0  502    0  0.00000000000E+00  0.00000000000E+00  0.29429618662E+04  0.29429618662E+04  0.00000000000E+00 0. -1.
          1   -1    0    0  501    0 -0.00000000000E+00 -0.00000000000E+00 -0.20303063069E+03  0.20303063069E+03  0.00000000000E+00 0. -1.
         25    2    1    2    0    0 -0.92943632010E+02  0.12123585242E+02  0.34692065858E+03  0.38047917850E+03  0.12499984750E+03 0.  0.
          2    1    1    2  501    0  0.88370311585E+02  0.29847075731E+02 -0.17438894355E+03  0.19776668964E+03  0.00000000000E+00 0. -1.
          1    1    1    2  502    0  0.45733204246E+01 -0.41970660974E+02  0.25673995204E+04  0.25677466287E+04  0.00000000000E+00 0. -1.
         22    1    3    3    0    0 -0.76982276522E+02  0.35011455967E+01  0.73616333141E+02  0.10657341800E+03  0.00000000000E+00 0.  1.
         22    1    3    3    0    0 -0.15961355488E+02  0.86224396455E+01  0.27330432544E+03  0.27390576051E+03  0.00000000000E+00 0.  1.
</event>
<event>
 7    1  0.2895750E-005  0.1980864E+03  0.7818608E-02  0.1335928E+00
          2   -1    0    0  502    0  0.00000000000E+00  0.00000000000E+00  0.12957867605E+03  0.12957867605E+03  0.00000000000E+00 0. -1.
          1   -1    0    0  501    0 -0.00000000000E+00 -0.00000000000E+00 -0.10797231556E+04  0.10797231556E+04  0.00000000000E+00 0. -1.
         25    2    1    2    0    0  0.14702006272E+03 -0.13185983442E+03 -0.42590809129E+03  0.48582983946E+03  0.12502406134E+03 0.  0.
          2    1    1    2  501    0 -0.16687195869E+03  0.10881057037E+03 -0.60511400979E+03  0.63706275646E+03  0.00000000000E+00 0. -1.
          1    1    1    2  502    0  0.19851895968E+02  0.23049264046E+02  0.80877621558E+02  0.86409235707E+02  0.00000000000E+00 0. -1.
         22    1    3    3    0    0  0.27364514517E+02 -0.92230528458E+02 -0.11250675414E+03  0.14803059401E+03  0.00000000000E+00 0. -1.
         22    1    3    3    0    0  0.11965554820E+03 -0.39629305960E+02 -0.31340133715E+03  0.33779924546E+03  0.00000000000E+00 0. -1.
</event>
<event>
 7    1  0.2895750E-005  0.3690157E+02  0.7818608E-02  0.1589680E+00
          2   -1    0    0  502    0  0.00000000000E+00  0.00000000000E+00  0.53487406837E+02  0.53487406837E+02  0.00000000000E+00 0. -1.
          1   -1    0    0  501    0 -0.00000000000E+00 -0.00000000000E+00 -0.11267935463E+04  0.11267935463E+04  0.00000000000E+00 0. -1.
         25    2    1    2    0    0  0.39743675846E+01  0.49473478204E+02 -0.65127383185E+02  0.14942826236E+03  0.12499523554E+03 0.  0.
          2    1    1    2  501    0  0.15431343340E+02 -0.20507722339E+02 -0.99214552538E+03  0.99247742371E+03  0.00000000000E+00 0. -1.
          1    1    1    2  502    0 -0.19405710925E+02 -0.28965755864E+02 -0.16033230884E+02  0.38375267059E+02  0.00000000000E+00 0. -1.
         22    1    3    3    0    0  0.26772438255E+02 -0.20884627885E+02 -0.67361017652E+02  0.75434990761E+02  0.00000000000E+00 0.  1.
         22    1    3    3    0    0 -0.22798070670E+02  0.70358106089E+02  0.22336344666E+01  0.73993271597E+02  0.00000000000E+00 0.  1.
</event>
<event>
 7    1  0.2895750E-005  0.2560684E+03  0.7818608E-02  0.1234270E+00
          2   -1    0    0  502    0  0.00000000000E+00  0.00000000000E+00  0.14175143933E+04  0.14175143933E+04  0.00000000000E+00 0. -1.
          1   -1    0    0  501    0 -0.00000000000E+00 -0.00000000000E+00 -0.20518958491E+03  0.20518958491E+03  0.00000000000E+00 0. -1.
         25    2    1    2    0    0 -0.14886323133E+02  0.26971869710E+03 -0.43838150309E+02  0.30085933199E+03  0.12499910417E+03 0.  0.
          2    1    1    2  501    0  0.39523713550E+02 -0.21334666280E+03  0.33817499608E+03  0.40179752417E+03  0.00000000000E+00 0. -1.
          1    1    1    2  502    0 -0.24637390417E+02 -0.56372034300E+02  0.91798796262E+03  0.92004712204E+03  0.00000000000E+00 0. -1.
         22    1    3    3    0    0  0.11479239347E+02  0.71219129397E+02 -0.68034772621E+02  0.99159808460E+02  0.00000000000E+00 0. -1.
         22    1    3    3    0    0 -0.26365562480E+02  0.19849956770E+03  0.24196622312E+02  0.20169952353E+03  0.00000000000E+00 0. -1.
</event>
<event>
 7    1  0.2895750E-005  0.2366659E+03  0.7818608E-02  0.1242925E+00
          2   -1    0    0  502    0  0.00000000000E+00  0.00000000000E+00  0.93008142562E+03  0.93008142562E+03  0.00000000000E+00 0. -1.
          1   -1    0    0  501    0 -0.00000000000E+00 -0.00000000000E+00 -0.72784260284E+03  0.72784260284E+03  0.00000000000E+00 0. -1.
         25    2    1    2    0    0  0.25496557230E+03  0.10848480114E+03  0.30104690452E+03  0.42781768565E+03  0.12498935272E+03 0.  0.
          2    1    1    2  501    0 -0.41163789671E+02 -0.44951032931E+02 -0.64096811781E+03  0.64385959727E+03  0.00000000000E+00 0. -1.
          1    1    1    2  502    0 -0.21380178263E+03 -0.63533768210E+02  0.54216003607E+03  0.58624674555E+03  0.00000000000E+00 0. -1.
         22    1    3    3    0    0  0.11071211286E+03  0.67718549143E+02  0.57753253628E+02  0.14205073789E+03  0.00000000000E+00 0. -1.
         22    1    3    3    0    0  0.14425345944E+03  0.40766251998E+02  0.24329365089E+03  0.28576694776E+03  0.00000000000E+00 0. -1.
</event>
<event>
 7    1  0.2895750E-005  0.2528233E+03  0.7818608E-02  0.1304448E+00
          2   -1    0    0  502    0  0.00000000000E+00  0.00000000000E+00  0.54274707967E+03  0.54274707967E+03  0.00000000000E+00 0. -1.
          1   -1    0    0  501    0 -0.00000000000E+00 -0.00000000000E+00 -0.16369517727E+03  0.16369517727E+03  0.00000000000E+00 0. -1.
         25    2    1    2    0    0 -0.19429998630E+02 -0.25417896962E+03  0.10715707573E+03  0.30346389421E+03  0.12499289084E+03 0.  0.
          2    1    1    2  501    0  0.31494737416E+02  0.22195783466E+01  0.80094442013E+02  0.86092767724E+02  0.00000000000E+00 0. -1.
          1    1    1    2  502    0 -0.12064738786E+02  0.25195939128E+03  0.19180038465E+03  0.31688559501E+03  0.00000000000E+00 0. -1.
         22    1    3    3    0    0 -0.30697886297E+02 -0.14083488500E+03  0.12168623619E+03  0.18863818578E+03  0.00000000000E+00 0.  1.
         22    1    3    3    0    0  0.11267887666E+02 -0.11334408463E+03 -0.14529160459E+02  0.11482570843E+03  0.00000000000E+00 0.  1.
</event>
<event>
 7    1  0.2895750E-005  0.1196159E+03  0.7818608E-02  0.1316768E+00
          2   -1    0    0  502    0  0.00000000000E+00  0.00000000000E+00  0.65269853481E+02  0.65269853481E+02  0.00000000000E+00 0. -1.
          1   -1    0    0  501    0 -0.00000000000E+00 -0.00000000000E+00 -0.16306271744E+04  0.16306271744E+04  0.00000000000E+00 0. -1.
         25    2    1    2    0    0 -0.92467039428E+02 -0.12196782004E+03 -0.38879467551E+03  0.43613439166E+03  0.12500242149E+03 0.  0.
          2    1    1    2  501    0 -0.35544293122E+01  0.59575244617E+02 -0.11370653381E+04  0.11386305050E+04  0.00000000000E+00 0. -1.
          1    1    1    2  502    0  0.96021468740E+02  0.62392575421E+02 -0.39497307248E+02  0.12113213119E+03  0.00000000000E+00 0. -1.
         22    1    3    3    0    0 -0.10028279022E+01 -0.50882760912E+02 -0.25104547789E+03  0.25615208957E+03  0.00000000000E+00 0. -1.
         22    1    3    3    0    0 -0.91464211526E+02 -0.71085059127E+02 -0.13774919762E+03  0.17998230209E+03  0.00000000000E+00 0. -1.
</event>
<event>
 7    1  0.2895750E-005  0.2439969E+03  0.7818608E-02  0.1272292E+00
          2   -1    0    0  502    0  0.00000000000E+00  0.00000000000E+00  0.10068366065E+04  0.10068366065E+04  0.00000000000E+00 0. -1.
          1   -1    0    0  501    0 -0.00000000000E+00 -0.00000000000E+00 -0.34567618515E+03  0.34567618515E+03  0.00000000000E+00 0. -1.
         25    2    1    2    0    0 -0.20310537039E+03 -0.57637281109E+02  0.72835400204E+02  0.25593980081E+03  0.12500535373E+03 0.  0.
          2    1    1    2  501    0 -0.43144751323E+02  0.98174485258E+01 -0.23332504692E+03  0.23748353497E+03  0.00000000000E+00 0. -1.
          1    1    1    2  502    0  0.24625012171E+03  0.47819832583E+02  0.82165006806E+03  0.85908945586E+03  0.00000000000E+00 0. -1.
         22    1    3    3    0    0 -0.10742169933E+03  0.13863001032E+02 -0.12657685592E+02  0.10904962764E+03  0.00000000000E+00 0. -1.
         22    1    3    3    0    0 -0.95683671060E+02 -0.71500282141E+02  0.85493085796E+02  0.14689017317E+03  0.00000000000E+00 0. -1.
</event>
<event>
 7    1  0.2895750E-005  0.4826461E+03  0.7818608E-02  0.1041007E+00
          2   -1    0    0  502    0  0.00000000000E+00  0.00000000000E+00  0.31490873772E+04  0.31490873772E+04  0.00000000000E+00 0. -1.
          1   -1    0    0  501    0 -0.00000000000E+00 -0.00000000000E+00 -0.17623907376E+04  0.17623907376E+04  0.00000000000E+00 0. -1.
         25    2    1    2    0    0 -0.48342215005E+03  0.59479134999E+02  0.27246366195E+03  0.57192253488E+03  0.12499678458E+03 0.  0.
          2    1    1    2  501    0  0.15016804319E+03  0.31069821998E+03 -0.15710326169E+04  0.16084860299E+04  0.00000000000E+00 0. -1.
          1    1    1    2  502    0  0.33325410686E+03 -0.37017735498E+03  0.26852655945E+04  0.27310695500E+04  0.00000000000E+00 0. -1.
         22    1    3    3    0    0 -0.16803047936E+03 -0.37849120682E+02  0.10612901737E+03  0.20231205169E+03  0.00000000000E+00 0. -1.
         22    1    3    3    0    0 -0.31539167069E+03  0.97328255681E+02  0.16633464458E+03  0.36961048319E+03  0.00000000000E+00 0. -1.
</event>
<event>
 7    1  0.2895750E-005  0.1080026E+03  0.7818608E-02  0.1332845E+00
          2   -1    0    0  502    0  0.00000000000E+00  0.00000000000E+00  0.43544884150E+03  0.43544884150E+03  0.00000000000E+00 0. -1.
          1   -1    0    0  501    0 -0.00000000000E+00 -0.00000000000E+00 -0.12379134074E+04  0.12379134074E+04  0.00000000000E+00 0. -1.
         25    2    1    2    0    0  0.11177359448E+03 -0.89356919341E+02 -0.96777394342E+03  0.98624995991E+03  0.12499832966E+03 0.  0.
          2    1    1    2  501    0 -0.57200670209E+02 -0.36340504832E+01 -0.25079721404E+03  0.25726322233E+03  0.00000000000E+00 0. -1.
          1    1    1    2  502    0 -0.54572924272E+02  0.92990969824E+02  0.41610659158E+03  0.42984906664E+03  0.00000000000E+00 0. -1.
         22    1    3    3    0    0  0.27758457133E+02 -0.10135402735E+03 -0.54693388479E+03  0.55693791857E+03  0.00000000000E+00 0.  1.
         22    1    3    3    0    0  0.84015137348E+02  0.11997108007E+02 -0.42084005862E+03  0.42931204135E+03  0.00000000000E+00 0.  1.
</event>
<event>
 7    1  0.2895750E-005  0.8915604E+02  0.7818608E-02  0.1417732E+00
          2   -1    0    0  502    0  0.00000000000E+00  0.00000000000E+00  0.92245715042E+03  0.92245715042E+03  0.00000000000E+00 0. -1.
          1   -1    0    0  501    0 -0.00000000000E+00 -0.00000000000E+00 -0.52394068913E+03  0.52394068913E+03  0.00000000000E+00 0. -1.
         25    2    1    2    0    0  0.49899474015E+02 -0.75126796371E+02  0.48640947969E+03  0.51024779107E+03  0.12499853327E+03 0.  0.
          2    1    1    2  501    0 -0.73770755844E+02  0.50144576629E+02 -0.50742095883E+03  0.51520154546E+03  0.00000000000E+00 0. -1.
          1    1    1    2  502    0  0.23871281829E+02  0.24982219742E+02  0.41952794043E+03  0.42094850303E+03  0.00000000000E+00 0. -1.
         22    1    3    3    0    0  0.82185860936E+02 -0.79979029569E+02  0.43041188618E+03  0.44542738204E+03  0.00000000000E+00 0.  1.
         22    1    3    3    0    0 -0.32286386922E+02  0.48522331976E+01  0.55997593504E+02  0.64820409022E+02  0.00000000000E+00 0.  1.
</event>
<event>
 7    1  0.2895750E-005  0.6570067E+03  0.7818608E-02  0.1031921E+00
          2   -1    0    0  502    0  0.00000000000E+00  0.00000000000E+00  0.21415568760E+04  0.21415568760E+04  0.00000000000E+00 0. -1.
          1   -1    0    0  501    0 -0.00000000000E+00 -0.00000000000E+00 -0.69091992221E+03  0.69091992221E+03  0.00000000000E+00 0. -1.
         25    2    1    2    0    0  0.35182279194E+03  0.79985720690E+03  0.59671695842E+03  0.10654796578E+04  0.12499977702E+03 0.  0.
          2    1    1    2  501    0 -0.60476055175E+02 -0.28321097953E+03 -0.33228204070E+03  0.44076883596E+03  0.00000000000E+00 0. -1.
          1    1    1    2  502    0 -0.29134673677E+03 -0.51664622737E+03  0.11862020361E+04  0.13262283045E+04  0.00000000000E+00 0. -1.
         22    1    3    3    0    0  0.11004961980E+03  0.28786949767E+03  0.28174987408E+03  0.41756766883E+03  0.00000000000E+00 0. -1.
         22    1    3    3    0    0  0.24177317214E+03  0.51198770923E+03  0.31496708433E+03  0.64791198892E+03  0.00000000000E+00 0. -1.
</event>
<event>
 7    1  0.2895750E-005  0.5926165E+02  0.7818608E-02  0.1516353E+00
          2   -1    0    0  502    0  0.00000000000E+00  0.00000000000E+00  0.89091545256E+02  0.89091545256E+02  0.00000000000E+00 0. -1.
          1   -1    0    0  501    0 -0.00000000000E+00 -0.00000000000E+00 -0.84471907282E+03  0.84471907282E+03  0.00000000000E+00 0. -1.
         25    2    1    2    0    0  0.71576522189E+02  0.43984827381E+02 -0.99475792448E+02  0.18049341368E+03  0.12499830211E+03 0.  0.
          2    1    1    2  501    0 -0.50600355666E+02 -0.29390426252E+02 -0.70006695740E+03  0.70250831881E+03  0.00000000000E+00 0. -1.
          1    1    1    2  502    0 -0.20976166522E+02 -0.14594401129E+02  0.43915222286E+02  0.50808885588E+02  0.00000000000E+00 0. -1.
         22    1    3    3    0    0 -0.21135283087E+02 -0.43010161448E+01  0.14384961323E+02  0.25925393793E+02  0.00000000000E+00 0. -1.
         22    1    3    3    0    0  0.92711805275E+02  0.48285843526E+02 -0.11386075377E+03  0.15456801989E+03  0.00000000000E+00 0. -1.
</event>
<event>
 7    1  0.2895750E-005  0.2830049E+03  0.7818608E-02  0.1146815E+00
          2   -1    0    0  502    0  0.00000000000E+00  0.00000000000E+00  0.17677425104E+03  0.17677425104E+03  0.00000000000E+00 0. -1.
          1   -1    0    0  501    0 -0.00000000000E+00 -0.00000000000E+00 -0.89620345815E+03  0.89620345815E+03  0.00000000000E+00 0. -1.
         25    2    1    2    0    0  0.36861044359E+02 -0.25328534049E+03 -0.16026096288E+03  0.32683199366E+03  0.12499350208E+03 0.  0.
          2    1    1    2  501    0  0.13901237505E+03 -0.45722780917E+02 -0.18557861257E+03  0.23633542806E+03  0.00000000000E+00 0. -1.
          1    1    1    2  502    0 -0.17587341941E+03  0.29900812141E+03 -0.37358963166E+03  0.50981028746E+03  0.00000000000E+00 0. -1.
         22    1    3    3    0    0  0.60575639181E+02 -0.47801807736E+02 -0.54859367328E+02  0.94678250241E+02  0.00000000000E+00 0. -1.
         22    1    3    3    0    0 -0.23714594822E+02 -0.20548353275E+03 -0.10540159555E+03  0.23215374342E+03  0.00000000000E+00 0. -1.
</event>
<event>
 7    1  0.2895750E-005  0.1877865E+03  0.7818608E-02  0.1197001E+00
          2   -1    0    0  502    0  0.00000000000E+00  0.00000000000E+00  0.25530793587E+03  0.25530793587E+03  0.00000000000E+00 0. -1.
          1   -1    0    0  501    0 -0.00000000000E+00 -0.00000000000E+00 -0.31678094151E+04  0.31678094151E+04  0.00000000000E+00 0. -1.
         25    2    1    2    0    0  0.12365236882E+03 -0.32545894157E+02 -0.29210405452E+03  0.34249207647E+03  0.12500760071E+03 0.  0.
          2    1    1    2  501    0 -0.87781407134E+00 -0.12442848275E+03 -0.28057256950E+04  0.28084835576E+04  0.00000000000E+00 0. -1.
          1    1    1    2  502    0 -0.12277455475E+03  0.15697437690E+03  0.18532827029E+03  0.27214171688E+03  0.00000000000E+00 0. -1.
         22    1    3    3    0    0  0.70650157350E+02 -0.78399921968E+02 -0.14289177108E+03  0.17764022838E+03  0.00000000000E+00 0.  1.
         22    1    3    3    0    0  0.53002211474E+02  0.45854027811E+02 -0.14921228344E+03  0.16485184809E+03  0.00000000000E+00 0.  1.
</event>
<event>
 7    1  0.2895750E-005  0.1444328E+03  0.7818608E-02  0.1241703E+00
          2   -1    0    0  502    0  0.00000000000E+00  0.00000000000E+00  0.17748843253E+04  0.17748843253E+04  0.00000000000E+00 0. -1.
          1   -1    0    0  501    0 -0.00000000000E+00 -0.00000000000E+00 -0.72118915955E+02  0.72118915955E+02  0.00000000000E+00 0. -1.
         25    2    1    2    0    0 -0.11456318828E+03 -0.68406839732E+01  0.17206016625E+03  0.24166051839E+03  0.12499434496E+03 0.  0.
          2    1    1    2  501    0 -0.30396163203E+01  0.10107085520E+03  0.42760552437E+02  0.10978625544E+03  0.00000000000E+00 0. -1.
          1    1    1    2  502    0  0.11760280460E+03 -0.94230171226E+02  0.14879446907E+04  0.14955564675E+04  0.00000000000E+00 0. -1.
         22    1    3    3    0    0 -0.87521089562E+02 -0.55997852835E+01  0.18994615372E+03  0.20921481790E+03  0.00000000000E+00 0.  1.
         22    1    3    3    0    0 -0.27042098717E+02 -0.12408986897E+01 -0.17885987471E+02  0.32445700491E+02  0.00000000000E+00 0.  1.
</event>
<event>
 7    1  0.2895750E-005  0.2117870E+03  0.7818608E-02  0.1187630E+00
          2   -1    0    0  502    0  0.00000000000E+00  0.00000000000E+00  0.11791675385E+04  0.11791675385E+04  0.00000000000E+00 0. -1.
          1   -1    0    0  501    0 -0.00000000000E+00 -0.00000000000E+00 -0.10964260260E+04  0.10964260260E+04  0.00000000000E+00 0. -1.
         25    2    1    2    0    0  0.22760793573E+03 -0.17803398620E+03  0.49662572583E+02  0.31873663212E+03  0.12500078756E+03 0.  0.
          2    1    1    2  501    0 -0.12231320481E+03 -0.21783095175E+00 -0.94714436380E+03  0.95500943106E+03  0.00000000000E+00 0. -1.
          1    1    1    2  502    0 -0.10529473092E+03  0.17825181715E+03  0.98022330379E+03  0.10018475014E+04  0.00000000000E+00 0. -1.
         22    1    3    3    0    0  0.24016122707E+03 -0.18081545157E+03  0.53448183858E+02  0.30533318011E+03  0.00000000000E+00 0. -1.
         22    1    3    3    0    0 -0.12553291341E+02  0.27814653774E+01 -0.37856112750E+01  0.13403452013E+02  0.00000000000E+00 0. -1.
</event>
<event>
 7    1  0.2895750E-005  0.8485689E+02  0.7818608E-02  0.1341107E+00
          2   -1    0    0  502    0  0.00000000000E+00  0.00000000000E+00  0.62366164255E+03  0.62366164255E+03  0.00000000000E+00 0. -1.
          1   -1    0    0  501    0 -0.00000000000E+00 -0.00000000000E+00 -0.50490862782E+03  0.50490862782E+03  0.00000000000E+00 0. -1.
         25    2    1    2    0    0 -0.13667639449E+03  0.28843675269E+02 -0.13607915535E+02  0.18794452694E+03  0.12500230169E+03 0.  0.
          2    1    1    2  501    0  0.81803778543E+02  0.11128857402E+02 -0.39772868218E+03  0.40620661525E+03  0.00000000000E+00 0. -1.
          1    1    1    2  502    0  0.54872615945E+02 -0.39972532671E+02  0.53008961244E+03  0.53441912818E+03  0.00000000000E+00 0. -1.
         22    1    3    3    0    0 -0.98640786725E+01 -0.12980176493E+02  0.40660343850E+02  0.43806946845E+02  0.00000000000E+00 0. -1.
         22    1    3    3    0    0 -0.12681231582E+03  0.41823851763E+02 -0.54268259384E+02  0.14413758009E+03  0.00000000000E+00 0. -1.
</event>
<event>
 7    1  0.2895750E-005  0.3177703E+03  0.7818608E-02  0.1208539E+00
          2   -1    0    0  502    0  0.00000000000E+00  0.00000000000E+00  0.25140851614E+04  0.25140851614E+04  0.00000000000E+00 0. -1.
          1   -1    0    0  501    0 -0.00000000000E+00 -0.00000000000E+00 -0.47940921110E+03  0.47940921110E+03  0.00000000000E+00 0. -1.
         25    2    1    2    0    0 -0.11601473539E+03  0.30098549240E+03 -0.29833347211E+03  0.45681587123E+03  0.12500477656E+03 0.  0.
          2    1    1    2  501    0  0.16610389610E+03 -0.25969941830E+03  0.13305172684E+03  0.33576339018E+03  0.00000000000E+00 0. -1.
          1    1    1    2  502    0 -0.50089160710E+02 -0.41286074100E+02  0.21999576955E+04  0.22009151110E+04  0.00000000000E+00 0. -1.
         22    1    3    3    0    0 -0.78000789481E+02  0.29773567692E+03 -0.26644820609E+03  0.40709372754E+03  0.00000000000E+00 0.  1.
         22    1    3    3    0    0 -0.38013945909E+02  0.32498154807E+01 -0.31885266015E+02  0.49722143689E+02  0.00000000000E+00 0.  1.
</event>
<event>
 7    1  0.2895750E-005  0.6080036E+03  0.7818608E-02  0.1123693E+00
          2   -1    0    0  502    0  0.00000000000E+00  0.00000000000E+00  0.39163575577E+04  0.39163575577E+04  0.00000000000E+00 0. -1.
          1   -1    0    0  501    0 -0.00000000000E+00 -0.00000000000E+00 -0.29031725362E+03  0.29031725362E+03  0.00000000000E+00 0. -1.
         25    2    1    2    0    0  0.25886825953E+03  0.52607548637E+03  0.89118782528E+03  0.10740617751E+04  0.12499905449E+03 0.  0.
          2    1    1    2  501    0 -0.19453104384E+03 -0.58935355924E+03  0.28817079733E+03  0.68426774967E+03  0.00000000000E+00 0. -1.
          1    1    1    2  502    0 -0.64337215684E+02  0.63278072870E+02  0.24466816815E+04  0.24483452866E+04  0.00000000000E+00 0. -1.
         22    1    3    3    0    0  0.23748521933E+02  0.61298649891E+02  0.42481480193E+02  0.78270000203E+02  0.00000000000E+00 0.  1.
         22    1    3    3    0    0  0.23511973759E+03  0.46477683648E+03  0.84870634509E+03  0.99579177488E+03  0.00000000000E+00 0.  1.
</event>
<event>
 7    1  0.2895750E-005  0.5300013E+02  0.7818608E-02  0.1479691E+00
          2   -1    0    0  502    0  0.00000000000E+00  0.00000000000E+00  0.16853958268E+03  0.16853958268E+03  0.00000000000E+00 0. -1.
          1   -1    0    0  501    0 -0.00000000000E+00 -0.00000000000E+00 -0.73707610175E+03  0.73707610175E+03  0.00000000000E+00 0. -1.
         25    2    1    2    0    0  0.79430623103E+02 -0.10243321658E+02 -0.39371413806E+03  0.42077326050E+03  0.12500065887E+03 0.  0.
          2    1    1    2  501    0 -0.44579638243E+02  0.22013950898E+02 -0.32573689647E+03  0.32950945950E+03  0.00000000000E+00 0. -1.
          1    1    1    2  502    0 -0.34850984861E+02 -0.11770629240E+02  0.15091451546E+03  0.15533296442E+03  0.00000000000E+00 0. -1.
         22    1    3    3    0    0  0.53153373297E+01 -0.47013879562E+02 -0.25424918840E+03  0.25861401255E+03  0.00000000000E+00 0.  1.
         22    1    3    3    0    0  0.74115285774E+02  0.36770557904E+02 -0.13946494966E+03  0.16215924796E+03  0.00000000000E+00 0.  1.
</event>
<event>
 7    1  0.2895750E-005  0.6568183E+03  0.7818608E-02  0.9854224E-01
          2   -1    0    0  502    0  0.00000000000E+00  0.00000000000E+00  0.25733671816E+04  0.25733671816E+04  0.00000000000E+00 0. -1.
          1   -1    0    0  501    0 -0.00000000000E+00 -0.00000000000E+00 -0.17000573671E+04  0.17000573671E+04  0.00000000000E+00 0. -1.
         25    2    1    2    0    0  0.26236227067E+03 -0.78573252631E+03  0.13664496687E+03  0.84882599291E+03  0.12499662111E+03 0.  0.
          2    1    1    2  501    0 -0.56259509957E+03  0.19469863062E+03 -0.12206391527E+04  0.13580798002E+04  0.00000000000E+00 0. -1.
          1    1    1    2  502    0  0.30023282890E+03  0.59103389570E+03  0.19573040003E+04  0.20665187556E+04  0.00000000000E+00 0. -1.
         22    1    3    3    0    0  0.16895016360E+03 -0.38732869936E+03  0.11999330578E+03  0.43927903724E+03  0.00000000000E+00 0.  1.
         22    1    3    3    0    0  0.93412107070E+02 -0.39840382695E+03  0.16651661090E+02  0.40954695567E+03  0.00000000000E+00 0.  1.
</event>
<event>
 7    1  0.2895750E-005  0.2739612E+03  0.7818608E-02  0.1133784E+00
          2   -1    0    0  502    0  0.00000000000E+00  0.00000000000E+00  0.15423641124E+04  0.15423641124E+04  0.00000000000E+00 0. -1.
          1   -1    0    0  501    0 -0.00000000000E+00 -0.00000000000E+00 -0.11719833322E+03  0.11719833322E+03  0.00000000000E+00 0. -1.
         25    2    1    2    0    0  0.42123999628E+02  0.32281868344E+03  0.33775834478E+03  0.48548192722E+03  0.12500267383E+03 0.  0.
          2    1    1    2  501    0  0.10021431418E+03 -0.21780933267E+03  0.41983561854E+03  0.48347260601E+03  0.00000000000E+00 0. -1.
          1    1    1    2  502    0 -0.14233831381E+03 -0.10500935077E+03  0.66757181585E+03  0.69060791238E+03  0.00000000000E+00 0. -1.
         22    1    3    3    0    0 -0.29863305256E+01 -0.91886867833E+01 -0.88636606406E-01  0.96621939154E+01  0.00000000000E+00 0. -1.
         22    1    3    3    0    0  0.45110330154E+02  0.33200737022E+03  0.33784698139E+03  0.47581973331E+03  0.00000000000E+00 0. -1.
</event>
<event>
 7    1  0.2895750E-005  0.2715174E+03  0.7818608E-02  0.1168061E+00
          2   -1    0    0  502    0  0.00000000000E+00  0.00000000000E+00  0.56726996205E+03  0.56726996205E+03  0.00000000000E+00 0. -1.
          1   -1    0    0  501    0 -0.00000000000E+00 -0.00000000000E+00 -0.67002062005E+03  0.67002062005E+03  0.00000000000E+00 0. -1.
         25    2    1    2    0    0 -0.29373833683E+03  0.16102639222E+03  0.99077158719E+02  0.37100805412E+03  0.12497593097E+03 0.  0.
          2    1    1    2  501    0  0.11740095212E+03  0.19302159918E+02 -0.47781671015E+03  0.49240670734E+03  0.00000000000E+00 0. -1.
          1    1    1    2  502    0  0.17633738471E+03 -0.18032855214E+03  0.27598889343E+03  0.37387582064E+03  0.00000000000E+00 0. -1.
         22    1    3    3    0    0 -0.21685466618E+03  0.15237430983E+03  0.11988660171E+03  0.29088945290E+03  0.00000000000E+00 0.  1.
         22    1    3    3    0    0 -0.76883670651E+02  0.86520823893E+01 -0.20809442992E+02  0.80118601212E+02  0.00000000000E+00 0.  1.
</event>
<event>
 7    1  0.2895750E-005  0.1172889E+03  0.7818608E-02  0.1381883E+00
          2   -1    0    0  502    0  0.00000000000E+00  0.00000000000E+00  0.10837172329E+04  0.10837172329E+04  0.00000000000E+00 0. -1.
          1   -1    0    0  501    0 -0.00000000000E+00 -0.00000000000E+00 -0.14339541195E+04  0.14339541195E+04  0.00000000000E+00 0. -1.
         25    2    1    2    0    0 -0.40435687595E+02 -0.76425033327E+02 -0.10692064658E+04  0.10799554076E+04  0.12500154113E+03 0.  0.
          2    1    1    2  501    0  0.28395782031E+01 -0.34775292616E+02 -0.35532168710E+03  0.35703065065E+03  0.00000000000E+00 0. -1.
          1    1    1    2  502    0  0.37596109392E+02  0.11120032594E+03  0.10742912664E+04  0.10806852941E+04  0.00000000000E+00 0. -1.
         22    1    3    3    0    0  0.43259740972E+02 -0.43231865599E+02 -0.37941535778E+03  0.38431291042E+03  0.00000000000E+00 0. -1.
         22    1    3    3    0    0 -0.83695428567E+02 -0.33193167728E+02 -0.68979110804E+03  0.69564249718E+03  0.00000000000E+00 0. -1.
</event>
<event>
 7    1  0.2895750E-005  0.1446705E+03  0.7818608E-02  0.1303305E+00
          2   -1    0    0  502    0  0.00000000000E+00  0.00000000000E+00  0.25429630634E+03  0.25429630634E+03  0.00000000000E+00 0. -1.
          1   -1    0    0  501    0 -0.00000000000E+00 -0.00000000000E+00 -0.35387103218E+03  0.35387103218E+03  0.00000000000E+00 0. -1.
         25    2    1    2    0    0  0.79022873648E+02 -0.12478785697E+03 -0.63826422930E+02  0.20375308340E+03  0.12499953170E+03 0.  0.
          2    1    1    2  501    0 -0.52521391982E+02 -0.18716861405E+02 -0.18646645184E+03  0.19462413822E+03  0.00000000000E+00 0. -1.
          1    1    1    2  502    0 -0.26501481666E+02  0.14350471838E+03  0.15071814894E+03  0.20979011689E+03  0.00000000000E+00 0. -1.
         22    1    3    3    0    0 -0.24168554229E+02 -0.72314970756E+02 -0.37776392982E+02  0.85091890775E+02  0.00000000000E+00 0.  1.
         22    1    3    3    0    0  0.10319142788E+03 -0.52472886216E+02 -0.26050029947E+02  0.11866119263E+03  0.00000000000E+00 0.  1.
</event>
<event>
 7    1  0.2895750E-005  0.6995993E+02  0.7818608E-02  0.1399078E+00
          2   -1    0    0  502    0  0.00000000000E+00  0.00000000000E+00  0.73143177231E+03  0.73143177231E+03  0.00000000000E+00 0. -1.
          1   -1    0    0  501    0 -0.00000000000E+00 -0.00000000000E+00 -0.84626577339E+03  0.84626577339E+03  0.00000000000E+00 0. -1.
         25    2    1    2    0    0  0.96951496539E+02  0.12677611746E+02  0.11830636806E+03  0.19795884971E+03  0.12502397743E+03 0.  0.
          2    1    1    2  501    0 -0.41846805105E+02  0.29067148991E+02 -0.80354566149E+03  0.80515941548E+03  0.00000000000E+00 0. -1.
          1    1    1    2  502    0 -0.55104691434E+02 -0.41744760737E+02  0.57040529234E+03  0.57457928051E+03  0.00000000000E+00 0. -1.
         22    1    3    3    0    0  0.25643878334E+02  0.53660408200E+02  0.95680032387E+02  0.11265751862E+03  0.00000000000E+00 0.  1.
         22    1    3    3    0    0  0.71307618205E+02 -0.40982796453E+02  0.22626335676E+02  0.85301331088E+02  0.00000000000E+00 0.  1.
</event>
<event>
 7    1  0.2895750E-005  0.1611566E+03  0.7818608E-02  0.1289031E+00
          2   -1    0    0  502    0  0.00000000000E+00  0.00000000000E+00  0.12931639934E+04  0.12931639934E+04  0.00000000000E+00 0. -1.
          1   -1    0    0  501    0 -0.00000000000E+00 -0.00000000000E+00 -0.56370648074E+03  0.56370648074E+03  0.00000000000E+00 0. -1.
         25    2    1    2    0    0 -0.92967459556E+02 -0.95482574812E+02 -0.41392087428E+02  0.18734628225E+03  0.12500181576E+03 0.  0.
          2    1    1    2  501    0  0.76160323101E+02  0.15009260015E+03 -0.43287473212E+03  0.46444452536E+03  0.00000000000E+00 0. -1.
          1    1    1    2  502    0  0.16807136456E+02 -0.54610025335E+02  0.12037243322E+04  0.12050796665E+04  0.00000000000E+00 0. -1.
         22    1    3    3    0    0 -0.10039370348E+03 -0.15004337108E+02 -0.16975276288E+02  0.10291834547E+03  0.00000000000E+00 0. -1.
         22    1    3    3    0    0  0.74262439198E+01 -0.80478237704E+02 -0.24416811139E+02  0.84427936779E+02  0.00000000000E+00 0. -1.
</event>
<event>
 7    1  0.2895750E-005  0.4898304E+03  0.7818608E-02  0.1034565E+00
          2   -1    0    0  502    0  0.00000000000E+00  0.00000000000E+00  0.37964078202E+04  0.37964078202E+04  0.00000000000E+00 0. -1.
          1   -1    0    0  501    0 -0.00000000000E+00 -0.00000000000E+00 -0.43282919896E+03  0.43282919896E+03  0.00000000000E+00 0. -1.
         25    2    1    2    0    0 -0.46112051806E+03  0.43305507065E+03  0.13156497076E+04  0.14651718516E+04  0.12500230066E+03 0.  0.
          2    1    1    2  501    0 -0.65473271015E+01 -0.37352486914E+03 -0.22943848164E+03  0.43841271904E+03  0.00000000000E+00 0. -1.
          1    1    1    2  502    0  0.46766784516E+03 -0.59530201509E+02  0.22773673953E+04  0.23256524485E+04  0.00000000000E+00 0. -1.
         22    1    3    3    0    0 -0.37129983525E+03  0.37659173937E+03  0.11789435932E+04  0.12921272777E+04  0.00000000000E+00 0.  1.
         22    1    3    3    0    0 -0.89820682805E+02  0.56463331279E+02  0.13670611445E+03  0.17304457393E+03  0.00000000000E+00 0.  1.
</event>
<event>
 7    1  0.2895750E-005  0.3448824E+03  0.7818608E-02  0.1140086E+00
          2   -1    0    0  502    0  0.00000000000E+00  0.00000000000E+00  0.21927018676E+03  0.21927018676E+03  0.00000000000E+00 0. -1.
          1   -1    0    0  501    0 -0.00000000000E+00 -0.00000000000E+00 -0.12743350893E+04  0.12743350893E+04  0.00000000000E+00 0. -1.
         25    2    1    2    0    0  0.20261498682E+03 -0.20390775933E+03 -0.74290125785E+03  0.80632204804E+03  0.12498703550E+03 0.  0.
          2    1    1    2  501    0 -0.45110786573E+02 -0.12210307424E+03 -0.29771772865E+03  0.32493074610E+03  0.00000000000E+00 0. -1.
          1    1    1    2  502    0 -0.15750420024E+03  0.32601083357E+03 -0.14445916080E+02  0.36235248197E+03  0.00000000000E+00 0. -1.
         22    1    3    3    0    0  0.46378769455E+01  0.16097614000E+02 -0.53863246848E+02  0.56408265706E+02  0.00000000000E+00 0.  1.
         22    1    3    3    0    0  0.19797710987E+03 -0.22000537333E+03 -0.68903801100E+03  0.74991378233E+03  0.00000000000E+00 0.  1.
</event>
<event>
 7    1  0.2895750E-005  0.2191263E+03  0.7818608E-02  0.1269863E+00
          2   -1    0    0  502    0  0.00000000000E+00  0.00000000000E+00  0.75462225106E+03  0.75462225106E+03  0.00000000000E+00 0. -1.
          1   -1    0    0  501    0 -0.00000000000E+00 -0.00000000000E+00 -0.93755576733E+03  0.93755576733E+03  0.00000000000E+00 0. -1.
         25    2    1    2    0    0 -0.17441063140E+03 -0.41421156298E+02 -0.10211933952E+03  0.24122150197E+03  0.12499869189E+03 0.  0.
          2    1    1    2  501    0  0.22037241837E+03  0.62194606867E+02 -0.74779695565E+03  0.78206934398E+03  0.00000000000E+00 0. -1.
          1    1    1    2  502    0 -0.45961786969E+02 -0.20773450570E+02  0.66698277890E+03  0.66888717245E+03  0.00000000000E+00 0. -1.
         22    1    3    3    0    0 -0.29212451246E+02 -0.38215927472E+02 -0.81354169487E+02  0.94510979855E+02  0.00000000000E+00 0.  1.
         22    1    3    3    0    0 -0.14519818016E+03 -0.32052288260E+01 -0.20765170030E+02  0.14671052211E+03  0.00000000000E+00 0.  1.
</event>
<event>
 7    1  0.2895750E-005  0.7899115E+02  0.7818608E-02  0.1339822E+00
          2   -1    0    0  502    0  0.00000000000E+00  0.00000000000E+00  0.44648620478E+03  0.44648620478E+03  0.00000000000E+00 0. -1.
          1   -1    0    0  501    0 -0.00000000000E+00 -0.00000000000E+00 -0.11635996904E+03  0.11635996904E+03  0.00000000000E+00 0. -1.
         25    2    1    2    0    0  0.16422555886E+02 -0.13110902824E+03  0.12340123135E+03  0.21979964090E+03  0.12499896245E+03 0.  0.
          2    1    1    2  501    0 -0.41315437223E+02  0.61085225542E+02 -0.41026230579E+02  0.84389109060E+02  0.00000000000E+00 0. -1.
          1    1    1    2  502    0  0.24892881337E+02  0.70023802702E+02  0.24775123498E+03  0.25865742386E+03  0.00000000000E+00 0. -1.
         22    1    3    3    0    0  0.16453699171E+02  0.12764759168E+02 -0.10442100183E+02  0.23295938471E+02  0.00000000000E+00 0. -1.
         22    1    3    3    0    0 -0.31143284312E-01 -0.14387378741E+03  0.13384333153E+03  0.19650370243E+03  0.00000000000E+00 0. -1.
</event>
<event>
 7    1  0.2895750E-005  0.1303633E+03  0.7818608E-02  0.1431823E+00
          2   -1    0    0  502    0  0.00000000000E+00  0.00000000000E+00  0.54925951503E+03  0.54925951503E+03  0.00000000000E+00 0. -1.
          1   -1    0    0  501    0 -0.00000000000E+00 -0.00000000000E+00 -0.90554043209E+03  0.90554043209E+03  0.00000000000E+00 0. -1.
         25    2    1    2    0    0 -0.10179170786E+03  0.47455748427E+02  0.19634020377E+03  0.25843149899E+03  0.12499505672E+03 0.  0.
          2    1    1    2  501    0  0.11329555275E+03 -0.65287020555E+02 -0.86924961544E+03  0.87902967598E+03  0.00000000000E+00 0. -1.
          1    1    1    2  502    0 -0.11503844891E+02  0.17831272128E+02  0.31662849461E+03  0.31733877215E+03  0.00000000000E+00 0. -1.
         22    1    3    3    0    0 -0.29203506703E+02 -0.25817926016E+02  0.27461506477E+01  0.39076226160E+02  0.00000000000E+00 0. -1.
         22    1    3    3    0    0 -0.72588201156E+02  0.73273674443E+02  0.19359405312E+03  0.21935527283E+03  0.00000000000E+00 0. -1.
</event>
<event>
 7    1  0.2895750E-005  0.9409469E+02  0.7818608E-02  0.1319312E+00
          2   -1    0    0  502    0  0.00000000000E+00  0.00000000000E+00  0.24323959166E+04  0.24323959166E+04  0.00000000000E+00 0. -1.
          1   -1    0    0  501    0 -0.00000000000E+00 -0.00000000000E+00 -0.10651382373E+04  0.10651382373E+04  0.00000000000E+00 0. -1.
         25    2    1    2    0    0  0.84221973609E+02 -0.61227637557E+00  0.55854115902E+03  0.57852114434E+03  0.12499908962E+03 0.  0.
          2    1    1    2  501    0 -0.17587588593E+02 -0.72042225863E+02 -0.10525391409E+04  0.10551483539E+04  0.00000000000E+00 0. -1.
          1    1    1    2  502    0 -0.66634385016E+02  0.72654502238E+02  0.18612556612E+04  0.18638646556E+04  0.00000000000E+00 0. -1.
         22    1    3    3    0    0  0.84001206017E+02 -0.21864156226E+02  0.18473089502E+03  0.20410719613E+03  0.00000000000E+00 0. -1.
         22    1    3    3    0    0  0.22076759181E+00  0.21251879851E+02  0.37381026401E+03  0.37441394821E+03  0.00000000000E+00 0. -1.
</event>
<event>
 7    1  0.2895750E-005  0.1042934E+03  0.7818608E-02  0.1320894E+00
          2   -1    0    0  502    0  0.00000000000E+00  0.00000000000E+00  0.21586760025E+03  0.21586760025E+03  0.00000000000E+00 0. -1.
          1   -1    0    0  501    0 -0.00000000000E+00 -0.00000000000E+00 -0.35621038287E+03  0.35621038287E+03  0.00000000000E+00 0. -1.
         25    2    1    2    0    0 -0.24567995238E+02 -0.15382453087E+03 -0.14800740063E+03  0.24859056315E+03  0.12500201902E+03 0.  0.
          2    1    1    2  501    0  0.21323260049E+02  0.87936972175E+02 -0.13717617670E+03  0.16433166447E+03  0.00000000000E+00 0. -1.
          1    1    1    2  502    0  0.32447351891E+01  0.65887558694E+02  0.14484079470E+03  0.15915575549E+03  0.00000000000E+00 0. -1.
         22    1    3    3    0    0  0.19172806794E+02 -0.13737069803E+03 -0.14662845224E+03  0.20183708332E+03  0.00000000000E+00 0.  1.
         22    1    3    3    0    0 -0.43740802033E+02 -0.16453832842E+02 -0.13789483904E+01  0.46753479831E+02  0.00000000000E+00 0.  1.
</event>
<event>
 7    1  0.2895750E-005  0.6388827E+03  0.7818608E-02  0.1233196E+00
          2   -1    0    0  502    0  0.00000000000E+00  0.00000000000E+00  0.24476778564E+03  0.24476778564E+03  0.00000000000E+00 0. -1.
          1   -1    0    0  501    0 -0.00000000000E+00 -0.00000000000E+00 -0.18578522290E+04  0.18578522290E+04  0.00000000000E+00 0. -1.
         25    2    1    2    0    0  0.62339391479E+03  0.86808456315E+02 -0.66492411871E+03  0.92406945822E+03  0.12499839552E+03 0.  0.
          2    1    1    2  501    0 -0.63723006536E+03 -0.10754784367E+03 -0.95462440556E+03  0.11527950601E+04  0.00000000000E+00 0. -1.
          1    1    1    2  502    0  0.13836150576E+02  0.20739387359E+02  0.64640808865E+01  0.25755496355E+02  0.00000000000E+00 0. -1.
         22    1    3    3    0    0  0.29111029252E+03 -0.22176077806E+02 -0.29695145379E+03  0.41643384438E+03  0.00000000000E+00 0.  1.
         22    1    3    3    0    0  0.33228362226E+03  0.10898453412E+03 -0.36797266493E+03  0.50763561384E+03  0.00000000000E+00 0.  1.
</event>
<event>
 7    1  0.2895750E-005  0.1835319E+03  0.7818608E-02  0.1167747E+00
          2   -1    0    0  502    0  0.00000000000E+00  0.00000000000E+00  0.53546653940E+03  0.53546653940E+03  0.00000000000E+00 0. -1.
          1   -1    0    0  501    0 -0.00000000000E+00 -0.00000000000E+00 -0.17433784533E+04  0.17433784533E+04  0.00000000000E+00 0. -1.
         25    2    1    2    0    0 -0.99086816126E+02 -0.10529533148E+03  0.71905197199E+02  0.20420624401E+03  0.12499811498E+03 0.  0.
          2    1    1    2  501    0 -0.11196164886E+03  0.14542543447E+03 -0.16427064805E+04  0.16529272666E+04  0.00000000000E+00 0. -1.
          1    1    1    2  502    0  0.21104846498E+03 -0.40130102990E+02  0.36288936934E+03  0.42171148208E+03  0.00000000000E+00 0. -1.
         22    1    3    3    0    0 -0.70449763613E+02 -0.74778336559E+00  0.64558291599E+02  0.95558889630E+02  0.00000000000E+00 0. -1.
         22    1    3    3    0    0 -0.28637052513E+02 -0.10454754811E+03  0.73469056003E+01  0.10864735439E+03  0.00000000000E+00 0. -1.
</event>
<event>
 7    1  0.2895750E-005  0.1230454E+03  0.7818608E-02  0.1267408E+00
          2   -1    0    0  502    0  0.00000000000E+00  0.00000000000E+00  0.20622935079E+04  0.20622935079E+04  0.00000000000E+00 0. -1.
          1   -1    0    0  501    0 -0.00000000000E+00 -0.00000000000E+00 -0.10388994812E+03  0.10388994812E+03  0.00000000000E+00 0. -1.
         25    2    1    2    0    0 -0.22860354248E+02 -0.46732997359E+02  0.63422337369E+02  0.14951573980E+03  0.12500397887E+03 0.  0.
          2    1    1    2  501    0 -0.79130197931E+02  0.11556689510E+03  0.24554143167E+02  0.14219775460E+03  0.00000000000E+00 0. -1.
          1    1    1    2  502    0  0.10199055218E+03 -0.68833897741E+02  0.18704270792E+04  0.18744699616E+04  0.00000000000E+00 0. -1.
         22    1    3    3    0    0  0.27935136196E+02 -0.70751341132E+02  0.52100621354E+02  0.92198692245E+02  0.00000000000E+00 0.  1.
         22    1    3    3    0    0 -0.50795490444E+02  0.24018343773E+02  0.11321716015E+02  0.57317047557E+02  0.00000000000E+00 0.  1.
</event>
<event>
 7    1  0.2895750E-005  0.4015775E+03  0.7818608E-02  0.1082065E+00
          2   -1    0    0  502    0  0.00000000000E+00  0.00000000000E+00  0.52566240672E+03  0.52566240672E+03  0.00000000000E+00 0. -1.
          1   -1    0    0  501    0 -0.00000000000E+00 -0.00000000000E+00 -0.19525236562E+04  0.19525236562E+04  0.00000000000E+00 0. -1.
         25    2    1    2    0    0  0.10177115379E+03  0.57252328590E+03 -0.13650729808E+04  0.14890229749E+04  0.12499958495E+03 0.  0.
          2    1    1    2  501    0  0.73284697498E+02 -0.22206220028E+03 -0.40544159907E+03  0.46804397008E+03  0.00000000000E+00 0. -1.
          1    1    1    2  502    0 -0.17505585129E+03 -0.35046108562E+03  0.34365333038E+03  0.52111911794E+03  0.00000000000E+00 0. -1.
         22    1    3    3    0    0  0.10740268227E+03  0.24949572038E+03 -0.63519806241E+03  0.69084008941E+03  0.00000000000E+00 0.  1.
         22    1    3    3    0    0 -0.56315284815E+01  0.32302756552E+03 -0.72987491841E+03  0.79818288552E+03  0.00000000000E+00 0.  1.
</event>
<event>
 7    1  0.2895750E-005  0.1099250E+03  0.7818608E-02  0.1286329E+00
          2   -1    0    0  502    0  0.00000000000E+00  0.00000000000E+00  0.63953561536E+02  0.63953561536E+02  0.00000000000E+00 0. -1.
          1   -1    0    0  501    0 -0.00000000000E+00 -0.00000000000E+00 -0.24041878882E+04  0.24041878882E+04  0.00000000000E+00 0. -1.
         25    2    1    2    0    0  0.29111444844E+01  0.92697765126E+02 -0.29160075063E+03  0.33054006770E+03  0.12499755262E+03 0.  0.
          2    1    1    2  501    0  0.85312031493E+02 -0.10221161368E+02 -0.20084988470E+04  0.20103358509E+04  0.00000000000E+00 0. -1.
          1    1    1    2  502    0 -0.88223175977E+02 -0.82476603758E+02 -0.40134729005E+02  0.12726553115E+03  0.00000000000E+00 0. -1.
         22    1    3    3    0    0 -0.12073224722E+02  0.61877596084E+02 -0.35892513951E+02  0.72545656038E+02  0.00000000000E+00 0.  1.
         22    1    3    3    0    0  0.14984369206E+02  0.30820169042E+02 -0.25570823668E+03  0.25799441166E+03  0.00000000000E+00 0.  1.
</event>
<event>
 7    1  0.2895750E-005  0.1075132E+03  0.7818608E-02  0.1300146E+00
          2   -1    0    0  502    0  0.00000000000E+00  0.00000000000E+00  0.25360497846E+04  0.25360497846E+04  0.00000000000E+00 0. -1.
          1   -1    0    0  501    0 -0.00000000000E+00 -0.00000000000E+00 -0.20858457135E+03  0.20858457135E+03  0.00000000000E+00 0. -1.
         25    2    1    2    0    0 -0.75771315234E+02  0.14965074526E+03  0.12041745927E+04  0.12222128777E+04  0.12502492152E+03 0.  0.
          2    1    1    2  501    0  0.78619717764E+02 -0.72465263112E+02 -0.18402185748E+03  0.21282931756E+03  0.00000000000E+00 0. -1.
          1    1    1    2  502    0 -0.28484025303E+01 -0.77185482151E+02  0.13073124781E+04  0.13095921607E+04  0.00000000000E+00 0. -1.
         22    1    3    3    0    0 -0.72609908470E+02  0.17176530709E+03  0.10505904846E+04  0.10670125987E+04  0.00000000000E+00 0. -1.
         22    1    3    3    0    0 -0.31614067640E+01 -0.22114561827E+02  0.15358410809E+03  0.15520027898E+03  0.00000000000E+00 0. -1.
</event>
<event>
 7    1  0.2895750E-005  0.1211288E+04  0.7818608E-02  0.1007238E+00
          2   -1    0    0  502    0  0.00000000000E+00  0.00000000000E+00  0.17462684890E+04  0.17462684890E+04  0.00000000000E+00 0. -1.
          1   -1    0    0  501    0 -0.00000000000E+00 -0.00000000000E+00 -0.17054180386E+04  0.17054180386E+04  0.00000000000E+00 0. -1.
         25    2    1    2    0    0 -0.96786565908E+03 -0.79422165618E+03  0.67642556637E+03  0.14285410755E+04  0.12500433780E+03 0.  0.
          2    1    1    2  501    0 -0.50145797053E+02  0.22272815664E+03 -0.81105547126E+03  0.84257546261E+03  0.00000000000E+00 0. -1.
          1    1    1    2  502    0  0.10180114561E+04  0.57149349954E+03  0.17548035529E+03  0.11805699894E+04  0.00000000000E+00 0. -1.
         22    1    3    3    0    0 -0.60113931201E+03 -0.52132241185E+03  0.36507250912E+03  0.87545614765E+03  0.00000000000E+00 0. -1.
         22    1    3    3    0    0 -0.36672634707E+03 -0.27289924434E+03  0.31135305726E+03  0.55308492789E+03  0.00000000000E+00 0. -1.
</event>
<event>
 7    1  0.2895750E-005  0.5592731E+03  0.7818608E-02  0.1092536E+00
          2   -1    0    0  502    0  0.00000000000E+00  0.00000000000E+00  0.18958632995E+04  0.18958632995E+04  0.00000000000E+00 0. -1.
          1   -1    0    0  501    0 -0.00000000000E+00 -0.00000000000E+00 -0.24249479721E+03  0.24249479721E+03  0.00000000000E+00 0. -1.
         25    2    1    2    0    0  0.64253346684E+03  0.70956702031E+02  0.86336945363E+03  0.10857789683E+04  0.12500017957E+03 0.  0.
          2    1    1    2  501    0 -0.51017012543E+03 -0.91069975435E+01  0.44168400363E+03  0.67486387765E+03  0.00000000000E+00 0. -1.
          1    1    1    2  502    0 -0.13236334140E+03 -0.61849704488E+02  0.34831504502E+03  0.37771525079E+03  0.00000000000E+00 0. -1.
         22    1    3    3    0    0  0.15526718790E+03 -0.24710400694E+02  0.15571605318E+03  0.22128260835E+03  0.00000000000E+00 0.  1.
         22    1    3    3    0    0  0.48726627894E+03  0.95667102725E+02  0.70765340045E+03  0.86449635991E+03  0.00000000000E+00 0.  1.
</event>
<event>
 7    1  0.2895750E-005  0.1311834E+04  0.7818608E-02  0.1077468E+00
          2   -1    0    0  502    0  0.00000000000E+00  0.00000000000E+00  0.20219989749E+04  0.20219989749E+04  0.00000000000E+00 0. -1.
          1   -1    0    0  501    0 -0.00000000000E+00 -0.00000000000E+00 -0.26044560041E+04  0.26044560041E+04  0.00000000000E+00 0. -1.
         25    2    1    2    0    0  0.10216087300E+04 -0.79289562895E+03 -0.14536508996E+04  0.19496393705E+04  0.12499944581E+03 0.  0.
          2    1    1    2  501    0 -0.10975294101E+04  0.78689740291E+03 -0.39599953913E+03  0.14073357680E+04  0.00000000000E+00 0. -1.
          1    1    1    2  502    0  0.75920680080E+02  0.59982260348E+01  0.12671934095E+04  0.12694798405E+04  0.00000000000E+00 0. -1.
         22    1    3    3    0    0  0.10138931269E+04 -0.79289026900E+03 -0.14261767434E+04  0.19211023801E+04  0.00000000000E+00 0. -1.
         22    1    3    3    0    0  0.77156030841E+01 -0.53599442434E-02 -0.27474156277E+02  0.28536990430E+02  0.00000000000E+00 0. -1.
</event>
<event>
 7    1  0.2895750E-005  0.2984671E+03  0.7818608E-02  0.1251738E+00
          2   -1    0    0  502    0  0.00000000000E+00  0.00000000000E+00  0.29659921146E+04  0.29659921146E+04  0.00000000000E+00 0. -1.
          1   -1    0    0  501    0 -0.00000000000E+00 -0.00000000000E+00 -0.19158546250E+03  0.19158546250E+03  0.00000000000E+00 0. -1.
         25    2    1    2    0    0 -0.12421742433E+03 -0.28855611154E+03  0.14807605264E+03  0.36911491320E+03  0.12499881507E+03 0.  0.
          2    1    1    2  501    0 -0.28906232218E+02  0.33490895066E+02 -0.66158744418E+02  0.79587623261E+02  0.00000000000E+00 0. -1.
          1    1    1    2  502    0  0.15312365655E+03  0.25506521647E+03  0.26924893439E+04  0.27088750407E+04  0.00000000000E+00 0. -1.
         22    1    3    3    0    0 -0.97159343340E+02 -0.25620139807E+03  0.73917108924E+02  0.28380069303E+03  0.00000000000E+00 0. -1.
         22    1    3    3    0    0 -0.27058080988E+02 -0.32354713464E+02  0.74158943712E+02  0.85314220166E+02  0.00000000000E+00 0. -1.
</event>
<event>
 7    1  0.2895750E-005  0.3969566E+03  0.7818608E-02  0.1108432E+00
          2   -1    0    0  502    0  0.00000000000E+00  0.00000000000E+00  0.27100754188E+04  0.27100754188E+04  0.00000000000E+00 0. -1.
          1   -1    0    0  501    0 -0.00000000000E+00 -0.00000000000E+00 -0.50889024929E+03  0.50889024929E+03  0.00000000000E+00 0. -1.
         25    2    1    2    0    0 -0.19519749368E+03  0.21800140988E+03  0.26079805625E+03  0.41141890047E+03  0.12499283688E+03 0.  0.
          2    1    1    2  501    0  0.36136498410E+03 -0.23918621615E+03 -0.32142193906E+03  0.53954310360E+03  0.00000000000E+00 0. -1.
          1    1    1    2  502    0 -0.16616749042E+03  0.21184806269E+02  0.22618090523E+04  0.22680036640E+04  0.00000000000E+00 0. -1.
         22    1    3    3    0    0 -0.18330440343E+03  0.13732441629E+03  0.22902297628E+03  0.32389816808E+03  0.00000000000E+00 0.  1.
         22    1    3    3    0    0 -0.11893090256E+02  0.80676993590E+02  0.31775079974E+02  0.87520732389E+02  0.00000000000E+00 0.  1.
</event>
<event>
 7    1  0.2895750E-005  0.3224074E+02  0.7818608E-02  0.1603094E+00
          2   -1    0    0  502    0  0.00000000000E+00  0.00000000000E+00  0.36178750269E+04  0.36178750269E+04  0.00000000000E+00 0. -1.
          1   -1    0    0  501    0 -0.00000000000E+00 -0.00000000000E+00 -0.12553307756E+02  0.12553307756E+02  0.00000000000E+00 0. -1.
         25    2    1    2    0    0 -0.40778626508E+02 -0.22759008043E+02  0.12826623613E+04  0.12895845981E+04  0.12499933527E+03 0.  0.
          2    1    1    2  501    0  0.88780581196E+01  0.25591251869E+02  0.11442746626E+02  0.29405246786E+02  0.00000000000E+00 0. -1.
          1    1    1    2  502    0  0.31900568388E+02 -0.28322438256E+01  0.23112166113E+04  0.23114384898E+04  0.00000000000E+00 0. -1.
         22    1    3    3    0    0 -0.74094845489E+02  0.11291330233E+02  0.51264074622E+03  0.51809079798E+03  0.00000000000E+00 0. -1.
         22    1    3    3    0    0  0.33316218982E+02 -0.34050338277E+02  0.77002161503E+03  0.77149380011E+03  0.00000000000E+00 0. -1.
</event>
<event>
 7    1  0.2895750E-005  0.5014113E+03  0.7818608E-02  0.1154221E+00
          2   -1    0    0  502    0  0.00000000000E+00  0.00000000000E+00  0.26522995613E+04  0.26522995613E+04  0.00000000000E+00 0. -1.
          1   -1    0    0  501    0 -0.00000000000E+00 -0.00000000000E+00 -0.27132392030E+03  0.27132392030E+03  0.00000000000E+00 0. -1.
         25    2    1    2    0    0 -0.24476031104E+03 -0.49550149247E+03  0.98679228252E+03  0.11378987977E+04  0.12500130411E+03 0.  0.
          2    1    1    2  501    0  0.32248395918E+02  0.68447312644E+02 -0.15083372503E+03  0.16874775925E+03  0.00000000000E+00 0. -1.
          1    1    1    2  502    0  0.21251191512E+03  0.42705417983E+03  0.15450170836E+04  0.16169769247E+04  0.00000000000E+00 0. -1.
         22    1    3    3    0    0 -0.12798773937E+03 -0.16363923226E+03  0.45612509884E+03  0.50120730797E+03  0.00000000000E+00 0.  1.
         22    1    3    3    0    0 -0.11677257166E+03 -0.33186226021E+03  0.53066718367E+03  0.63669148971E+03  0.00000000000E+00 0.  1.
</event>
<event>
 7    1  0.2895750E-005  0.1807410E+03  0.7818608E-02  0.1197039E+00
          2   -1    0    0  502    0  0.00000000000E+00  0.00000000000E+00  0.15630549751E+03  0.15630549751E+03  0.00000000000E+00 0. -1.
          1   -1    0    0  501    0 -0.00000000000E+00 -0.00000000000E+00 -0.81492330272E+03  0.81492330272E+03  0.00000000000E+00 0. -1.
         25    2    1    2    0    0 -0.25325029369E+02  0.22511477314E+03 -0.82338995378E+02  0.27151448259E+03  0.12498954317E+03 0.  0.
          2    1    1    2  501    0 -0.80314969294E+02 -0.10123964507E+03 -0.50625917854E+03  0.52249240749E+03  0.00000000000E+00 0. -1.
          1    1    1    2  502    0  0.10563999866E+03 -0.12387512806E+03 -0.70019631294E+02  0.17722191015E+03  0.00000000000E+00 0. -1.
         22    1    3    3    0    0  0.30715277588E+02  0.33722242096E+02 -0.53022686118E+02  0.69942999167E+02  0.00000000000E+00 0. -1.
         22    1    3    3    0    0 -0.56040306957E+02  0.19139253104E+03 -0.29316309260E+02  0.20157148343E+03  0.00000000000E+00 0. -1.
</event>
<event>
 7    1  0.2895750E-005  0.1385705E+03  0.7818608E-02  0.1319450E+00
          2   -1    0    0  502    0  0.00000000000E+00  0.00000000000E+00  0.87177895176E+03  0.87177895176E+03  0.00000000000E+00 0. -1.
          1   -1    0    0  501    0 -0.00000000000E+00 -0.00000000000E+00 -0.54787149172E+02  0.54787149172E+02  0.00000000000E+00 0. -1.
         25    2    1    2    0    0 -0.12657368896E+03 -0.54949217098E+02  0.17853335382E+03  0.25795328209E+03  0.12500168847E+03 0.  0.
          2    1    1    2  501    0 -0.13642955972E+02  0.48408379655E+02  0.97100674257E+02  0.10935283448E+03  0.00000000000E+00 0. -1.
          1    1    1    2  502    0  0.14021664494E+03  0.65408374429E+01  0.54135777452E+03  0.55925998436E+03  0.00000000000E+00 0. -1.
         22    1    3    3    0    0 -0.25589814040E+02  0.39524451441E+02  0.35215915771E+02  0.58797802407E+02  0.00000000000E+00 0.  1.
         22    1    3    3    0    0 -0.10098387492E+03 -0.94473668539E+02  0.14331743805E+03  0.19915547969E+03  0.00000000000E+00 0.  1.
</event>
<event>
 7    1  0.2895750E-005  0.2331829E+03  0.7818608E-02  0.1143221E+00
          2   -1    0    0  502    0  0.00000000000E+00  0.00000000000E+00  0.30438292030E+04  0.30438292030E+04  0.00000000000E+00 0. -1.
          1   -1    0    0  501    0 -0.00000000000E+00 -0.00000000000E+00 -0.31164129959E+04  0.31164129959E+04  0.00000000000E+00 0. -1.
         25    2    1    2    0    0 -0.94181546090E+02 -0.18771365445E+03  0.14791804172E+04  0.14992352320E+04  0.12499997752E+03 0.  0.
          2    1    1    2  501    0 -0.17572019116E+03  0.59127336147E+02 -0.30892070972E+04  0.30947655997E+04  0.00000000000E+00 0. -1.
          1    1    1    2  502    0  0.26990173725E+03  0.12858631830E+03  0.15374428872E+04  0.15662413672E+04  0.00000000000E+00 0. -1.
         22    1    3    3    0    0 -0.24361605504E+01 -0.26282771991E+02  0.60390271036E+03  0.60447928216E+03  0.00000000000E+00 0. -1.
         22    1    3    3    0    0 -0.91745385539E+02 -0.16143088246E+03  0.87527770684E+03  0.89475594979E+03  0.00000000000E+00 0. -1.
</event>
<event>
 7    1  0.2895750E-005  0.1945386E+03  0.7818608E-02  0.1201607E+00
          2   -1    0    0  502    0  0.00000000000E+00  0.00000000000E+00  0.33176809640E+03  0.33176809640E+03  0.00000000000E+00 0. -1.
          1   -1    0    0  501    0 -0.00000000000E+00 -0.00000000000E+00 -0.65563251120E+03  0.65563251120E+03  0.00000000000E+00 0. -1.
         25    2    1    2    0    0  0.98846731660E+02  0.13852457468E+03 -0.78693559550E+02  0.22533690280E+03  0.12499723717E+03 0.  0.
          2    1    1    2  501    0  0.95041477036E+02 -0.63396496223E+02 -0.45353075361E+03  0.46769877332E+03  0.00000000000E+00 0. -1.
          1    1    1    2  502    0 -0.19388820870E+03 -0.75128078460E+02  0.20835989836E+03  0.29436493148E+03  0.00000000000E+00 0. -1.
         22    1    3    3    0    0  0.95845290888E+02  0.93951020333E+02  0.72563338900E+00  0.13421490435E+03  0.00000000000E+00 0. -1.
         22    1    3    3    0    0  0.30014407721E+01  0.44573554350E+02 -0.79419192939E+02  0.91121998448E+02  0.00000000000E+00 0. -1.
</event>
<event>
 7    1  0.2895750E-005  0.3149531E+03  0.7818608E-02  0.1136546E+00
          2   -1    0    0  502    0  0.00000000000E+00  0.00000000000E+00  0.26102452393E+04  0.26102452393E+04  0.00000000000E+00 0. -1.
          1   -1    0    0  501    0 -0.00000000000E+00 -0.00000000000E+00 -0.13853444781E+03  0.13853444781E+03  0.00000000000E+00 0. -1.
         25    2    1    2    0    0  0.19888368831E+03  0.31171743659E+03  0.14956238326E+04  0.15457150968E+04  0.12498811899E+03 0.  0.
          2    1    1    2  501    0  0.29793107817E+02 -0.14576157504E+03 -0.35338146515E+02  0.15291452067E+03  0.00000000000E+00 0. -1.
          1    1    1    2  502    0 -0.22867679613E+03 -0.16595586155E+03  0.10114251054E+04  0.10501500697E+04  0.00000000000E+00 0. -1.
         22    1    3    3    0    0  0.15720371331E+03  0.31002641983E+03  0.13666200477E+04  0.14101346543E+04  0.00000000000E+00 0.  1.
         22    1    3    3    0    0  0.41679975001E+02  0.16910167568E+01  0.12900378489E+03  0.13558044243E+03  0.00000000000E+00 0.  1.
</event>
<event>
 7    1  0.2895750E-005  0.2828338E+02  0.7818608E-02  0.1648503E+00
          2   -1    0    0  502    0  0.00000000000E+00  0.00000000000E+00  0.14019370379E+04  0.14019370379E+04  0.00000000000E+00 0. -1.
          1   -1    0    0  501    0 -0.00000000000E+00 -0.00000000000E+00 -0.16579309564E+03  0.16579309564E+03  0.00000000000E+00 0. -1.
         25    2    1    2    0    0 -0.14486957422E+02 -0.31799329226E+00 -0.11107775618E+02  0.12633059451E+03  0.12500425343E+03 0.  0.
          2    1    1    2  501    0  0.16410719721E+02  0.23943709515E+02 -0.94796879780E+02  0.99141622758E+02  0.00000000000E+00 0. -1.
          1    1    1    2  502    0 -0.19237622989E+01 -0.23625716223E+02  0.13420485977E+04  0.13422579163E+04  0.00000000000E+00 0. -1.
         22    1    3    3    0    0  0.49595649351E+02 -0.26452259659E+02  0.18021080790E+00  0.56209278162E+02  0.00000000000E+00 0. -1.
         22    1    3    3    0    0 -0.64082606773E+02  0.26134266366E+02 -0.11287986425E+02  0.70121316352E+02  0.00000000000E+00 0. -1.
</event>
<event>
 7    1  0.2895750E-005  0.2803811E+03  0.7818608E-02  0.1102704E+00
          2   -1    0    0  502    0  0.00000000000E+00  0.00000000000E+00  0.79858119445E+03  0.79858119445E+03  0.00000000000E+00 0. -1.
          1   -1    0    0  501    0 -0.00000000000E+00 -0.00000000000E+00 -0.35430583071E+03  0.35430583071E+03  0.00000000000E+00 0. -1.
         25    2    1    2    0    0 -0.28805015017E+03  0.12447887408E+03  0.45699589427E+03  0.56827723323E+03  0.12500354922E+03 0.  0.
          2    1    1    2  501    0  0.85329670881E+02 -0.27959628026E+03 -0.10872856401E+03  0.31189282341E+03  0.00000000000E+00 0. -1.
          1    1    1    2  502    0  0.20272047929E+03  0.15511740618E+03  0.96008033477E+02  0.27271696851E+03  0.00000000000E+00 0. -1.
         22    1    3    3    0    0 -0.25165331271E+03  0.83999105649E+02  0.43509397254E+03  0.50959984742E+03  0.00000000000E+00 0.  1.
         22    1    3    3    0    0 -0.36396837461E+02  0.40479768432E+02  0.21901921726E+02  0.58677385804E+02  0.00000000000E+00 0.  1.
</event>
<event>
 7    1  0.2895750E-005  0.9158335E+03  0.7818608E-02  0.1099544E+00
          2   -1    0    0  502    0  0.00000000000E+00  0.00000000000E+00  0.27559592446E+04  0.27559592446E+04  0.00000000000E+00 0. -1.
          1   -1    0    0  501    0 -0.00000000000E+00 -0.00000000000E+00 -0.18924752563E+04  0.18924752563E+04  0.00000000000E+00 0. -1.
         25    2    1    2    0    0 -0.74424669844E+03  0.49720944689E+03 -0.11864775768E+04  0.14914676566E+04  0.12500539275E+03 0.  0.
          2    1    1    2  501    0  0.82047894791E+03 -0.52578024413E+03 -0.12323032812E+03  0.98225062120E+03  0.00000000000E+00 0. -1.
          1    1    1    2  502    0 -0.76232249475E+02  0.28570797241E+02  0.21731918932E+04  0.21747162231E+04  0.00000000000E+00 0. -1.
         22    1    3    3    0    0 -0.23817466458E+03  0.13250714630E+03 -0.45228224816E+03  0.52805733275E+03  0.00000000000E+00 0. -1.
         22    1    3    3    0    0 -0.50607203385E+03  0.36470230058E+03 -0.73419532869E+03  0.96341032389E+03  0.00000000000E+00 0. -1.
</event>
<event>
 7    1  0.2895750E-005  0.1253935E+03  0.7818608E-02  0.1354771E+00
          2   -1    0    0  502    0  0.00000000000E+00  0.00000000000E+00  0.93505423878E+03  0.93505423878E+03  0.00000000000E+00 0. -1.
          1   -1    0    0  501    0 -0.00000000000E+00 -0.00000000000E+00 -0.30171876998E+04  0.30171876998E+04  0.00000000000E+00 0. -1.
         25    2    1    2    0    0  0.82389992162E+02 -0.13585768960E+03  0.32881478982E+03  0.38599180437E+03  0.12500033764E+03 0.  0.
          2    1    1    2  501    0 -0.24692122682E+02  0.32569506738E+02 -0.29823997654E+04  0.29826798075E+04  0.00000000000E+00 0. -1.
          1    1    1    2  502    0 -0.57697869480E+02  0.10328818286E+03  0.57145151447E+03  0.58357032674E+03  0.00000000000E+00 0. -1.
         22    1    3    3    0    0 -0.19421051945E+02  0.71884191890E+01  0.71819488877E+02  0.74745498939E+02  0.00000000000E+00 0.  1.
         22    1    3    3    0    0  0.10181104411E+03 -0.14304610878E+03  0.25699530094E+03  0.31124630543E+03  0.00000000000E+00 0.  1.
</event>
<event>
 7    1  0.2895750E-005  0.6164387E+03  0.7818608E-02  0.1028047E+00
          2   -1    0    0  502    0  0.00000000000E+00  0.00000000000E+00  0.31592857301E+04  0.31592857301E+04  0.00000000000E+00 0. -1.
          1   -1    0    0  501    0 -0.00000000000E+00 -0.00000000000E+00 -0.10767712314E+04  0.10767712314E+04  0.00000000000E+00 0. -1.
         25    2    1    2    0    0 -0.52801241855E+03  0.41804037394E+03 -0.39665463560E+03  0.79152660589E+03  0.12499839800E+03 0.  0.
          2    1    1    2  501    0  0.59316606096E+03 -0.97685975158E+02 -0.28204476408E+03  0.66403145600E+03  0.00000000000E+00 0. -1.
          1    1    1    2  502    0 -0.65153642407E+02 -0.32035439878E+03  0.27612138984E+04  0.27804988996E+04  0.00000000000E+00 0. -1.
         22    1    3    3    0    0 -0.10588634565E+03  0.46350807614E+02 -0.11282906833E+03  0.16152620289E+03  0.00000000000E+00 0. -1.
         22    1    3    3    0    0 -0.42212607291E+03  0.37168956632E+03 -0.28382556727E+03  0.63000040300E+03  0.00000000000E+00 0. -1.
</event>
<event>
 7    1  0.2895750E-005  0.6254901E+03  0.7818608E-02  0.1121791E+00
          2   -1    0    0  502    0  0.00000000000E+00  0.00000000000E+00  0.14029510843E+04  0.14029510843E+04  0.00000000000E+00 0. -1.
          1   -1    0    0  501    0 -0.00000000000E+00 -0.00000000000E+00 -0.10983983544E+04  0.10983983544E+04  0.00000000000E+00 0. -1.
         25    2    1    2    0    0  0.20828496141E+03  0.60178793423E+03 -0.85035224806E+03  0.10696993045E+04  0.12500525355E+03 0.  0.
          2    1    1    2  501    0 -0.13475691632E+03 -0.55020388573E+03  0.45655554199E+03  0.72754842127E+03  0.00000000000E+00 0. -1.
          1    1    1    2  502    0 -0.73528045096E+02 -0.51584048498E+02  0.69834943590E+03  0.70410171289E+03  0.00000000000E+00 0. -1.
         22    1    3    3    0    0  0.78561736273E+02  0.84115664706E+02 -0.16093108647E+03  0.19785400185E+03  0.00000000000E+00 0.  1.
         22    1    3    3    0    0  0.12972322514E+03  0.51767226952E+03 -0.68942116159E+03  0.87184530269E+03  0.00000000000E+00 0.  1.
</event>
<event>
 7    1  0.2895750E-005  0.1696610E+03  0.7818608E-02  0.1322418E+00
          2   -1    0    0  502    0  0.00000000000E+00  0.00000000000E+00  0.18193883019E+04  0.18193883019E+04  0.00000000000E+00 0. -1.
          1   -1    0    0  501    0 -0.00000000000E+00 -0.00000000000E+00 -0.67116125944E+02  0.67116125944E+02  0.00000000000E+00 0. -1.
         25    2    1    2    0    0 -0.17222558059E+03 -0.81617952145E+02  0.14196309789E+04  0.14378107692E+04  0.12499820379E+03 0.  0.
          2    1    1    2  501    0  0.13605528580E+03  0.98707387012E+02  0.68452945345E+02  0.18149378714E+03  0.00000000000E+00 0. -1.
          1    1    1    2  502    0  0.36170294789E+02 -0.17089434867E+02  0.26418825170E+03  0.26719987153E+03  0.00000000000E+00 0. -1.
         22    1    3    3    0    0  0.71596348527E+01 -0.25508684793E+02  0.40854469463E+03  0.40940288333E+03  0.00000000000E+00 0.  1.
         22    1    3    3    0    0 -0.17938521544E+03 -0.56109267352E+02  0.10110862843E+04  0.10284078859E+04  0.00000000000E+00 0.  1.
</event>
<event>
 7    1  0.2895750E-005  0.4136439E+03  0.7818608E-02  0.1056406E+00
          2   -1    0    0  502    0  0.00000000000E+00  0.00000000000E+00  0.22451273011E+04  0.22451273011E+04  0.00000000000E+00 0. -1.
          1   -1    0    0  501    0 -0.00000000000E+00 -0.00000000000E+00 -0.25946555635E+03  0.25946555635E+03  0.00000000000E+00 0. -1.
         25    2    1    2    0    0  0.28727189301E+03  0.19337701965E+03  0.14859621614E+04  0.15308913679E+04  0.12500009163E+03 0.  0.
          2    1    1    2  501    0 -0.74651516204E+02 -0.43660074647E+03  0.90055409366E+02  0.45199893523E+03  0.00000000000E+00 0. -1.
          1    1    1    2  502    0 -0.21262037680E+03  0.24322372682E+03  0.40964417396E+03  0.52170255431E+03  0.00000000000E+00 0. -1.
         22    1    3    3    0    0  0.17750991133E+03  0.49946212651E+02  0.85049534873E+03  0.87025670408E+03  0.00000000000E+00 0. -1.
         22    1    3    3    0    0  0.10976198167E+03  0.14343080700E+03  0.63546681266E+03  0.66063466380E+03  0.00000000000E+00 0. -1.
</event>
<event>
 7    1  0.2895750E-005  0.3085470E+03  0.7818608E-02  0.1246577E+00
          2   -1    0    0  502    0  0.00000000000E+00  0.00000000000E+00  0.11441269664E+04  0.11441269664E+04  0.00000000000E+00 0. -1.
          1   -1    0    0  501    0 -0.00000000000E+00 -0.00000000000E+00 -0.19531809370E+04  0.19531809370E+04  0.00000000000E+00 0. -1.
         25    2    1    2    0    0  0.16831009332E+03 -0.27105087296E+03 -0.23993379462E+03  0.41831769476E+03  0.12499841882E+03 0.  0.
          2    1    1    2  501    0 -0.19669687976E+03  0.23605321451E+03 -0.16090296892E+04  0.16381047962E+04  0.00000000000E+00 0. -1.
          1    1    1    2  502    0  0.28386786442E+02  0.34997658451E+02  0.10399095134E+04  0.10408854124E+04  0.00000000000E+00 0. -1.
         22    1    3    3    0    0 -0.69133554193E+01 -0.88800669016E+02 -0.50395077296E+02  0.10233775997E+03  0.00000000000E+00 0.  1.
         22    1    3    3    0    0  0.17522344874E+03 -0.18225020394E+03 -0.18953871733E+03  0.31597993479E+03  0.00000000000E+00 0.  1.
</event>
<event>
 7    1  0.2895750E-005  0.4943862E+03  0.7818608E-02  0.1155716E+00
          2   -1    0    0  502    0  0.00000000000E+00  0.00000000000E+00  0.19720861901E+04  0.19720861901E+04  0.00000000000E+00 0. -1.
          1   -1    0    0  501    0 -0.00000000000E+00 -0.00000000000E+00 -0.10309678114E+04  0.10309678114E+04  0.00000000000E+00 0. -1.
         25    2    1    2    0    0 -0.32371737882E+03  0.36682614452E+03  0.16331258465E+04  0.17094091705E+04  0.12500128031E+03 0.  0.
          2    1    1    2  501    0  0.25663154007E+02  0.70901195419E+02 -0.75642505978E+03  0.76017395907E+03  0.00000000000E+00 0. -1.
          1    1    1    2  502    0  0.29805422481E+03 -0.43772733993E+03  0.64417592035E+02  0.53347087195E+03  0.00000000000E+00 0. -1.
         22    1    3    3    0    0  0.12621797797E+01  0.52023421781E+02  0.14731380722E+03  0.15623503868E+03  0.00000000000E+00 0.  1.
         22    1    3    3    0    0 -0.32497955860E+03  0.31480272273E+03  0.14858120392E+04  0.15531741318E+04  0.00000000000E+00 0.  1.
</event>
<event>
 7    1  0.2895750E-005  0.2907266E+03  0.7818608E-02  0.1116385E+00
          2   -1    0    0  502    0  0.00000000000E+00  0.00000000000E+00  0.49764552743E+03  0.49764552743E+03  0.00000000000E+00 0. -1.
          1   -1    0    0  501    0 -0.00000000000E+00 -0.00000000000E+00 -0.16148231360E+04  0.16148231360E+04  0.00000000000E+00 0. -1.
         25    2    1    2    0    0  0.30800813250E+03 -0.15549866540E+03 -0.37153880867E+03  0.52222204086E+03  0.12500371589E+03 0.  0.
          2    1    1    2  501    0 -0.17793236495E+03 -0.10534932056E+03 -0.11069052222E+04  0.11260539848E+04  0.00000000000E+00 0. -1.
          1    1    1    2  502    0 -0.13007576755E+03  0.26084798595E+03  0.36126642228E+03  0.46419263775E+03  0.00000000000E+00 0. -1.
         22    1    3    3    0    0  0.36983452198E+02 -0.28549907639E+02 -0.12835657241E+03  0.13659532438E+03  0.00000000000E+00 0.  1.
         22    1    3    3    0    0  0.27102468030E+03 -0.12694875776E+03 -0.24318223627E+03  0.38562671648E+03  0.00000000000E+00 0.  1.
</event>
<event>
 7    1  0.2895750E-005  0.1344327E+03  0.7818608E-02  0.1243339E+00
          2   -1    0    0  502    0  0.00000000000E+00  0.00000000000E+00  0.13987887081E+03  0.13987887081E+03  0.00000000000E+00 0. -1.
          1   -1    0    0  501    0 -0.00000000000E+00 -0.00000000000E+00 -0.89682683647E+03  0.89682683647E+03  0.00000000000E+00 0. -1.
         25    2    1    2    0    0 -0.79641855735E+02  0.10509689156E+03 -0.85417802018E+02  0.20077147838E+03  0.12499921532E+03 0.  0.
          2    1    1    2  501    0  0.97914604251E+02  0.42788997903E+02 -0.67840144829E+03  0.68676538432E+03  0.00000000000E+00 0. -1.
          1    1    1    2  502    0 -0.18272748517E+02 -0.14788588946E+03  0.68712846461E+01  0.14916884458E+03  0.00000000000E+00 0. -1.
         22    1    3    3    0    0  0.65404847897E+01  0.93047665179E+02 -0.56585091523E+02  0.10909866415E+03  0.00000000000E+00 0.  1.
         22    1    3    3    0    0 -0.86182340525E+02  0.12049226378E+02 -0.28832710496E+02  0.91672814232E+02  0.00000000000E+00 0.  1.
</event>
<event>
 7    1  0.2895750E-005  0.1077770E+03  0.7818608E-02  0.1425915E+00
          2   -1    0    0  502    0  0.00000000000E+00  0.00000000000E+00  0.11099658503E+03  0.11099658503E+03  0.00000000000E+00 0. -1.
          1   -1    0    0  501    0 -0.00000000000E+00 -0.00000000000E+00 -0.20972751512E+03  0.20972751512E+03  0.00000000000E+00 0. -1.
         25    2    1    2    0    0  0.87148493735E+02  0.28761649601E+02 -0.58401304002E+02  0.16570325430E+03  0.12499905491E+03 0.  0.
          2    1    1    2  501    0  0.26840924196E+02 -0.44582431607E+00 -0.24796449679E+02  0.36544464529E+02  0.00000000000E+00 0. -1.
          1    1    1    2  502    0 -0.11398941793E+03 -0.28315825285E+02 -0.15533176412E+02  0.11847638132E+03  0.00000000000E+00 0. -1.
         22    1    3    3    0    0  0.16818413180E+02  0.32010291442E+02 -0.83472074327E+02  0.90967603973E+02  0.00000000000E+00 0.  1.
         22    1    3    3    0    0  0.70330080555E+02 -0.32486418412E+01  0.25070770325E+02  0.74735650324E+02  0.00000000000E+00 0.  1.
</event>
<event>
 7    1  0.2895750E-005  0.6710629E+02  0.7818608E-02  0.1388382E+00
          2   -1    0    0  502    0  0.00000000000E+00  0.00000000000E+00  0.37459668646E+03  0.37459668646E+03  0.00000000000E+00 0. -1.
          1   -1    0    0  501    0 -0.00000000000E+00 -0.00000000000E+00 -0.12918030853E+04  0.12918030853E+04  0.00000000000E+00 0. -1.
         25    2    1    2    0    0  0.10789112065E+03 -0.93731062862E+00 -0.98165397586E+02  0.19209989955E+03  0.12499821462E+03 0.  0.
          2    1    1    2  501    0 -0.59200686278E+02 -0.30317132054E+02 -0.11431418098E+04  0.11450751273E+04  0.00000000000E+00 0. -1.
          1    1    1    2  502    0 -0.48690434373E+02  0.31254442682E+02  0.32410080855E+03  0.32922474495E+03  0.00000000000E+00 0. -1.
         22    1    3    3    0    0  0.60561100382E+02 -0.39772361184E+02  0.44701600961E+01  0.72591114641E+02  0.00000000000E+00 0.  1.
         22    1    3    3    0    0  0.47330020269E+02  0.38835050555E+02 -0.10263555768E+03  0.11950878491E+03  0.00000000000E+00 0.  1.
</event>
<event>
 7    1  0.2895750E-005  0.6859082E+03  0.7818608E-02  0.1110988E+00
          2   -1    0    0  502    0  0.00000000000E+00  0.00000000000E+00  0.15679380575E+04  0.15679380575E+04  0.00000000000E+00 0. -1.
          1   -1    0    0  501    0 -0.00000000000E+00 -0.00000000000E+00 -0.13969682689E+04  0.13969682689E+04  0.00000000000E+00 0. -1.
         25    2    1    2    0    0  0.14292334326E+03  0.69070731497E+03 -0.10618902293E+04  0.12809146616E+04  0.12501133629E+03 0.  0.
          2    1    1    2  501    0 -0.11904258355E+03 -0.59995899578E+03  0.19512800456E+03  0.64202560033E+03  0.00000000000E+00 0. -1.
          1    1    1    2  502    0 -0.23880759715E+02 -0.90748319190E+02  0.10377320134E+04  0.10419660645E+04  0.00000000000E+00 0. -1.
         22    1    3    3    0    0  0.82735675659E+01  0.17836968499E+03 -0.35694455301E+03  0.39911603622E+03  0.00000000000E+00 0.  1.
         22    1    3    3    0    0  0.13464977570E+03  0.51233762998E+03 -0.70494567624E+03  0.88179862534E+03  0.00000000000E+00 0.  1.
</event>
<event>
 7    1  0.2895750E-005  0.1052361E+04  0.7818608E-02  0.1109164E+00
          2   -1    0    0  502    0  0.00000000000E+00  0.00000000000E+00  0.18207116024E+04  0.18207116024E+04  0.00000000000E+00 0. -1.
          1   -1    0    0  501    0 -0.00000000000E+00 -0.00000000000E+00 -0.12002057288E+04  0.12002057288E+04  0.00000000000E+00 0. -1.
         25    2    1    2    0    0 -0.87876057331E+03 -0.53181827730E+03  0.80653309895E+03  0.13119341154E+04  0.12499863265E+03 0.  0.
          2    1    1    2  501    0  0.87732790787E+03  0.59440066349E+03 -0.64842643544E+03  0.12423659883E+04  0.00000000000E+00 0. -1.
          1    1    1    2  502    0  0.14326654418E+01 -0.62582386189E+02  0.46239921009E+03  0.46661722759E+03  0.00000000000E+00 0. -1.
         22    1    3    3    0    0 -0.34639903236E+03 -0.13965515016E+03  0.28622002012E+03  0.47055047604E+03  0.00000000000E+00 0.  1.
         22    1    3    3    0    0 -0.53236154095E+03 -0.39216312714E+03  0.52031307883E+03  0.84138363935E+03  0.00000000000E+00 0.  1.
</event>
<event>
 7    1  0.2895750E-005  0.2053443E+03  0.7818608E-02  0.1251752E+00
          2   -1    0    0  502    0  0.00000000000E+00  0.00000000000E+00  0.44226336875E+02  0.44226336875E+02  0.00000000000E+00 0. -1.
          1   -1    0    0  501    0 -0.00000000000E+00 -0.00000000000E+00 -0.24498980801E+04  0.24498980801E+04  0.00000000000E+00 0. -1.
         25    2    1    2    0    0 -0.14044240386E+03 -0.15382361266E+03 -0.80556450499E+03  0.84139434664E+03  0.12499800895E+03 0.  0.
          2    1    1    2  501    0  0.86118876798E+02  0.18821444048E+03 -0.15666267293E+04  0.15802406290E+04  0.00000000000E+00 0. -1.
          1    1    1    2  502    0  0.54323527060E+02 -0.34390827820E+02 -0.33480508962E+02  0.72489441374E+02  0.00000000000E+00 0. -1.
         22    1    3    3    0    0  0.19754979004E+02 -0.44899228238E+02 -0.15131873537E+03  0.15907092621E+03  0.00000000000E+00 0. -1.
         22    1    3    3    0    0 -0.16019738286E+03 -0.10892438443E+03 -0.65424576962E+03  0.68232342042E+03  0.00000000000E+00 0. -1.
</event>
<event>
 7    1  0.2895750E-005  0.1675539E+03  0.7818608E-02  0.1285881E+00
          2   -1    0    0  502    0  0.00000000000E+00  0.00000000000E+00  0.28468420800E+03  0.28468420800E+03  0.00000000000E+00 0. -1.
          1   -1    0    0  501    0 -0.00000000000E+00 -0.00000000000E+00 -0.62134372608E+03  0.62134372608E+03  0.00000000000E+00 0. -1.
         25    2    1    2    0    0 -0.54873441447E+02  0.10411916394E+03  0.12015664551E+03  0.20955740453E+03  0.12499916583E+03 0.  0.
          2    1    1    2  501    0  0.98021484853E+02 -0.14076215678E+03 -0.55622576580E+03  0.58207327615E+03  0.00000000000E+00 0. -1.
          1    1    1    2  502    0 -0.43148043406E+02  0.36642992843E+02  0.99409602209E+02  0.11439725340E+03  0.00000000000E+00 0. -1.
         22    1    3    3    0    0 -0.12050950244E+02 -0.85078159099E+00  0.91939615609E+02  0.92729942033E+02  0.00000000000E+00 0.  1.
         22    1    3    3    0    0 -0.42822491203E+02  0.10496994553E+03  0.28217029902E+02  0.11682746250E+03  0.00000000000E+00 0.  1.
</event>
<event>
 7    1  0.2895750E-005  0.4767729E+03  0.7818608E-02  0.1161121E+00
          2   -1    0    0  502    0  0.00000000000E+00  0.00000000000E+00  0.56484128481E+03  0.56484128481E+03  0.00000000000E+00 0. -1.
          1   -1    0    0  501    0 -0.00000000000E+00 -0.00000000000E+00 -0.91944846146E+03  0.91944846146E+03  0.00000000000E+00 0. -1.
         25    2    1    2    0    0 -0.41308349707E+03 -0.23488311185E+03 -0.39179557438E+03  0.62844050604E+03  0.12500258292E+03 0.  0.
          2    1    1    2  501    0  0.37761467755E+03  0.29915396585E+03 -0.26158463418E+03  0.54819016849E+03  0.00000000000E+00 0. -1.
          1    1    1    2  502    0  0.35468819519E+02 -0.64270853997E+02  0.29877303191E+03  0.30765907175E+03  0.00000000000E+00 0. -1.
         22    1    3    3    0    0 -0.17780599736E+03 -0.45390219367E+02 -0.10264559677E+03  0.21026498340E+03  0.00000000000E+00 0.  1.
         22    1    3    3    0    0 -0.23527749972E+03 -0.18949289248E+03 -0.28914997762E+03  0.41817552264E+03  0.00000000000E+00 0.  1.
</event>
<event>
 7    1  0.2895750E-005  0.5647658E+03  0.7818608E-02  0.1108310E+00
          2   -1    0    0  502    0  0.00000000000E+00  0.00000000000E+00  0.93775844998E+03  0.93775844998E+03  0.00000000000E+00 0. -1.
          1   -1    0    0  501    0 -0.00000000000E+00 -0.00000000000E+00 -0.58104580307E+03  0.58104580307E+03  0.00000000000E+00 0. -1.
         25    2    1    2    0    0 -0.48300480859E+03  0.28258671088E+03 -0.13193289143E+03  0.58837119176E+03  0.12500190864E+03 0.  0.
          2    1    1    2  501    0  0.43219485212E+03 -0.38900103123E+03  0.19386658868E+03  0.61294244975E+03  0.00000000000E+00 0. -1.
          1    1    1    2  502    0  0.50809956464E+02  0.10641432035E+03  0.29477894967E+03  0.31749061154E+03  0.00000000000E+00 0. -1.
         22    1    3    3    0    0 -0.33117489346E+03  0.18703221229E+03 -0.14830254120E+03  0.40822971746E+03  0.00000000000E+00 0.  1.
         22    1    3    3    0    0 -0.15182991513E+03  0.95554498584E+02  0.16369649766E+02  0.18014147430E+03  0.00000000000E+00 0.  1.
</event>
<event>
 7    1  0.2895750E-005  0.8337666E+02  0.7818608E-02  0.1352736E+00
          2   -1    0    0  502    0  0.00000000000E+00  0.00000000000E+00  0.10071209217E+04  0.10071209217E+04  0.00000000000E+00 0. -1.
          1   -1    0    0  501    0 -0.00000000000E+00 -0.00000000000E+00 -0.32864630768E+04  0.32864630768E+04  0.00000000000E+00 0. -1.
         25    2    1    2    0    0 -0.45460670486E+01  0.24756042543E+02  0.11024789026E+02  0.12798397247E+03  0.12499929147E+03 0.  0.
          2    1    1    2  501    0  0.20349504275E+02  0.59135143523E+02 -0.32257366846E+04  0.32263428562E+04  0.00000000000E+00 0. -1.
          1    1    1    2  502    0 -0.15803437226E+02 -0.83891186067E+02  0.93536974046E+03  0.93925716984E+03  0.00000000000E+00 0. -1.
         22    1    3    3    0    0  0.60706418479E+01 -0.38835521951E+02 -0.31821536515E+02  0.50573319486E+02  0.00000000000E+00 0. -1.
         22    1    3    3    0    0 -0.10616708896E+02  0.63591564495E+02  0.42846325541E+02  0.77410652982E+02  0.00000000000E+00 0. -1.
</event>
<event>
 7    1  0.2895750E-005  0.1040774E+03  0.7818608E-02  0.1383010E+00
          2   -1    0    0  502    0  0.00000000000E+00  0.00000000000E+00  0.14731859818E+04  0.14731859818E+04  0.00000000000E+00 0. -1.
          1   -1    0    0  501    0 -0.00000000000E+00 -0.00000000000E+00 -0.33091219574E+02  0.33091219574E+02  0.00000000000E+00 0. -1.
         25    2    1    2    0    0  0.12519384910E+03  0.30014492036E+02  0.33152842814E+03  0.37697600770E+03  0.12500176851E+03 0.  0.
          2    1    1    2  501    0 -0.23382989721E+02 -0.31165064966E+02  0.39800905210E+02  0.55696835980E+02  0.00000000000E+00 0. -1.
          1    1    1    2  502    0 -0.10181085938E+03  0.11505729305E+01  0.10687654289E+04  0.10736043577E+04  0.00000000000E+00 0. -1.
         22    1    3    3    0    0  0.38044648072E+02 -0.44107554409E+02  0.67078327782E+02  0.88839032306E+02  0.00000000000E+00 0.  1.
         22    1    3    3    0    0  0.87149201025E+02  0.74122046445E+02  0.26445010036E+03  0.28813697539E+03  0.00000000000E+00 0.  1.
</event>
<event>
 7    1  0.2895750E-005  0.4807678E+03  0.7818608E-02  0.1172317E+00
          2   -1    0    0  502    0  0.00000000000E+00  0.00000000000E+00  0.43554697381E+04  0.43554697381E+04  0.00000000000E+00 0. -1.
          1   -1    0    0  501    0 -0.00000000000E+00 -0.00000000000E+00 -0.25401682278E+03  0.25401682278E+03  0.00000000000E+00 0. -1.
         25    2    1    2    0    0  0.47954846634E+03  0.23716393288E+03  0.16771123177E+04  0.17648068510E+04  0.12499612956E+03 0.  0.
          2    1    1    2  501    0 -0.41771199786E+03 -0.22065692310E+03  0.56277615413E+02  0.47575199513E+03  0.00000000000E+00 0. -1.
          1    1    1    2  502    0 -0.61836468475E+02 -0.16507009774E+02  0.23680629822E+04  0.23689277148E+04  0.00000000000E+00 0. -1.
         22    1    3    3    0    0  0.48693440636E+03  0.23105446538E+03  0.16322936065E+04  0.17189746071E+04  0.00000000000E+00 0.  1.
         22    1    3    3    0    0 -0.73859400203E+01  0.61094674933E+01  0.44818711211E+02  0.45832243865E+02  0.00000000000E+00 0.  1.
</event>
<event>
 7    1  0.2895750E-005  0.1409753E+03  0.7818608E-02  0.1266405E+00
          2   -1    0    0  502    0  0.00000000000E+00  0.00000000000E+00  0.37482963343E+04  0.37482963343E+04  0.00000000000E+00 0. -1.
          1   -1    0    0  501    0 -0.00000000000E+00 -0.00000000000E+00 -0.51937779302E+02  0.51937779302E+02  0.00000000000E+00 0. -1.
         25    2    1    2    0    0 -0.86987565018E+02 -0.14777687238E+03  0.17251850450E+04  0.17381866992E+04  0.12499888522E+03 0.  0.
          2    1    1    2  501    0  0.62805271023E+01  0.14007561150E+03  0.65692192890E+02  0.15484213304E+03  0.00000000000E+00 0. -1.
          1    1    1    2  502    0  0.80707037916E+02  0.77012608791E+01  0.19054813171E+04  0.19072052814E+04  0.00000000000E+00 0. -1.
         22    1    3    3    0    0  0.27714418081E+02 -0.60189876536E+02  0.64734749439E+03  0.65073011971E+03  0.00000000000E+00 0.  1.
         22    1    3    3    0    0 -0.11470198310E+03 -0.87586995848E+02  0.10778375506E+04  0.10874565795E+04  0.00000000000E+00 0.  1.
</event>
<event>
 7    1  0.3745524E-005  0.7208803E+02  0.7818608E-02  0.1389118E+00
          2   -1    0    0  502    0  0.00000000000E+00  0.00000000000E+00  0.33284067858E+04  0.33284067858E+04  0.00000000000E+00 0. -1.
          1   -1    0    0  501    0 -0.00000000000E+00 -0.00000000000E+00 -0.18982847028E+04  0.18982847028E+04  0.00000000000E+00 0. -1.
         25    2    1    2    0    0 -0.22674967821E+02 -0.12348241095E+03 -0.24597442984E+03  0.30313562571E+03  0.12500290981E+03 0.  0.
          2    1    1    2  501    0  0.10265322419E+02  0.52548207847E+02 -0.16228952675E+04  0.16237782300E+04  0.00000000000E+00 0. -1.
          1    1    1    2  502    0  0.12409645401E+02  0.70934203099E+02  0.32989917803E+04  0.32997776329E+04  0.00000000000E+00 0. -1.
         22    1    3    3    0    0  0.37075751934E+02 -0.88351010536E+02 -0.19443190304E+03  0.21675856929E+03  0.00000000000E+00 0. -1.
         22    1    3    3    0    0 -0.59750719754E+02 -0.35131400411E+02 -0.51542526800E+02  0.86377056415E+02  0.00000000000E+00 0. -1.
</event>
