<event>
 7    1  0.6219721E-006  0.1251293E+03  0.7818608E-02  0.1301775E+00
          2   -1    0    0  502    0  0.00000000000E+00  0.00000000000E+00  0.14672726169E+03  0.14672726169E+03  0.00000000000E+00 0. -1.
          1   -1    0    0  501    0 -0.00000000000E+00 -0.00000000000E+00 -0.70693767898E+03  0.70693767898E+03  0.00000000000E+00 0. -1.
         25    2    1    2    0    0 -0.38751594879E+02 -0.53653134895E+02 -0.44293481094E+03  0.46496981823E+03  0.12500136053E+03 0.  0.
          2    1    1    2  501    0 -0.54740447325E+02 -0.35743357268E+02 -0.21618823276E+03  0.22585715873E+03  0.00000000000E+00 0. -1.
          1    1    1    2  502    0  0.93492042204E+02  0.89396492164E+02  0.98912626411E+02  0.16283796372E+03  0.00000000000E+00 0. -1.
         22    1    3    3    0    0  0.23336829235E+02  0.20205281394E+02 -0.21854384493E+03  0.22071310145E+03  0.00000000000E+00 0.  1.
         22    1    3    3    0    0 -0.62088424114E+02 -0.73858416289E+02 -0.22439096601E+03  0.24425671678E+03  0.00000000000E+00 0.  1.
</event>
<event>
 7    1  0.6219721E-006  0.7194613E+02  0.7818608E-02  0.1462238E+00
          2   -1    0    0  502    0  0.00000000000E+00  0.00000000000E+00  0.59912338708E+03  0.59912338708E+03  0.00000000000E+00 0. -1.
          1   -1    0    0  501    0 -0.00000000000E+00 -0.00000000000E+00 -0.11367977041E+04  0.11367977041E+04  0.00000000000E+00 0. -1.
         25    2    1    2    0    0  0.37992196193E+02  0.19737044952E+02 -0.14230462451E+03  0.19418603571E+03  0.12499860955E+03 0.  0.
          2    1    1    2  501    0 -0.65070621706E+02 -0.34205793521E+02 -0.96674473502E+03  0.96953576768E+03  0.00000000000E+00 0. -1.
          1    1    1    2  502    0  0.27078425513E+02  0.14468748568E+02  0.57137504248E+03  0.57219928782E+03  0.00000000000E+00 0. -1.
         22    1    3    3    0    0  0.13478808100E+02  0.69971001681E+02 -0.10532365359E+03  0.12716403324E+03  0.00000000000E+00 0.  1.
         22    1    3    3    0    0  0.24513388093E+02 -0.50233956729E+02 -0.36980970928E+02  0.67022002471E+02  0.00000000000E+00 0.  1.
</event>
<event>
 7    1  0.6219721E-006  0.1288392E+03  0.7818608E-02  0.1348864E+00
          2   -1    0    0  502    0  0.00000000000E+00  0.00000000000E+00  0.88754282768E+03  0.88754282768E+03  0.00000000000E+00 0. -1.
          1   -1    0    0  501    0 -0.00000000000E+00 -0.00000000000E+00 -0.27495897103E+03  0.27495897103E+03  0.00000000000E+00 0. -1.
         25    2    1    2    0    0  0.27089847840E+02  0.90504879353E+02  0.16048501625E+03  0.22429026233E+03  0.12500275313E+03 0.  0.
          2    1    1    2  501    0  0.65581914547E+01  0.41311125245E+02 -0.23453223208E+03  0.23823305150E+03  0.00000000000E+00 0. -1.
          1    1    1    2  502    0 -0.33648039295E+02 -0.13181600460E+03  0.68663107248E+03  0.69997848489E+03  0.00000000000E+00 0. -1.
         22    1    3    3    0    0  0.53731412175E+02 -0.66118996259E+01  0.73059313115E+02  0.90930990888E+02  0.00000000000E+00 0. -1.
         22    1    3    3    0    0 -0.26641564335E+02  0.97116778979E+02  0.87425703137E+02  0.13335927144E+03  0.00000000000E+00 0. -1.
</event>
<event>
 7    1  0.6219721E-006  0.7918075E+02  0.7818608E-02  0.1360048E+00
          2   -1    0    0  502    0  0.00000000000E+00  0.00000000000E+00  0.34540649532E+03  0.34540649532E+03  0.00000000000E+00 0. -1.
          1   -1    0    0  501    0 -0.00000000000E+00 -0.00000000000E+00 -0.20622653742E+04  0.20622653742E+04  0.00000000000E+00 0. -1.
         25    2    1    2    0    0 -0.18430806195E+02 -0.15464656826E+02 -0.13799040020E+02  0.12801699475E+03  0.12497634661E+03 0.  0.
          2    1    1    2  501    0  0.20550611876E+02  0.77335538054E+02 -0.19872194488E+04  0.19888298698E+04  0.00000000000E+00 0. -1.
          1    1    1    2  502    0 -0.21198056810E+01 -0.61870881228E+02  0.28415961003E+03  0.29082500493E+03  0.00000000000E+00 0. -1.
         22    1    3    3    0    0  0.20905152554E+02 -0.25628562528E+02  0.45429496190E+02  0.56193306938E+02  0.00000000000E+00 0. -1.
         22    1    3    3    0    0 -0.39335958749E+02  0.10163905702E+02 -0.59228536209E+02  0.71823687815E+02  0.00000000000E+00 0. -1.
</event>
<event>
 7    1  0.6219721E-006  0.5999077E+02  0.7818608E-02  0.1442273E+00
          2   -1    0    0  502    0  0.00000000000E+00  0.00000000000E+00  0.22678390611E+03  0.22678390611E+03  0.00000000000E+00 0. -1.
          1   -1    0    0  501    0 -0.00000000000E+00 -0.00000000000E+00 -0.14791997783E+04  0.14791997783E+04  0.00000000000E+00 0. -1.
         25    2    1    2    0    0 -0.88942505307E+02  0.45472431851E+02 -0.31021399977E+03  0.34905987932E+03  0.12502624680E+03 0.  0.
          2    1    1    2  501    0  0.55155935745E+02 -0.19469201937E+02 -0.11466180094E+04  0.11481089175E+04  0.00000000000E+00 0. -1.
          1    1    1    2  502    0  0.33786569562E+02 -0.26003229913E+02  0.20441613693E+03  0.20881488760E+03  0.00000000000E+00 0. -1.
         22    1    3    3    0    0 -0.50932595953E+02  0.50442101570E+02 -0.53365835275E+02  0.89366925179E+02  0.00000000000E+00 0. -1.
         22    1    3    3    0    0 -0.38009909354E+02 -0.49696697193E+01 -0.25684816450E+03  0.25969295414E+03  0.00000000000E+00 0. -1.
</event>
<event>
 7    1  0.6219721E-006  0.4101200E+02  0.7818608E-02  0.1557672E+00
          2   -1    0    0  502    0  0.00000000000E+00  0.00000000000E+00  0.74821560199E+03  0.74821560199E+03  0.00000000000E+00 0. -1.
          1   -1    0    0  501    0 -0.00000000000E+00 -0.00000000000E+00 -0.22667772149E+03  0.22667772149E+03  0.00000000000E+00 0. -1.
         25    2    1    2    0    0 -0.95465451480E+01  0.56145352227E+02  0.69892437619E+02  0.15412630266E+03  0.12500610879E+03 0.  0.
          2    1    1    2  501    0  0.22247076052E+02 -0.17305687027E+02 -0.18282356879E+03  0.18498344926E+03  0.00000000000E+00 0. -1.
          1    1    1    2  502    0 -0.12700530904E+02 -0.38839665200E+02  0.63446901167E+03  0.63578357155E+03  0.00000000000E+00 0. -1.
         22    1    3    3    0    0  0.11828717752E+02  0.93076848363E+02  0.39834843658E+02  0.10193151149E+03  0.00000000000E+00 0. -1.
         22    1    3    3    0    0 -0.21375262900E+02 -0.36931496136E+02  0.30057593961E+02  0.52194791173E+02  0.00000000000E+00 0. -1.
</event>
<event>
 7    1  0.6219721E-006  0.4093055E+02  0.7818608E-02  0.1553122E+00
          2   -1    0    0  502    0  0.00000000000E+00  0.00000000000E+00  0.42680332913E+03  0.42680332913E+03  0.00000000000E+00 0. -1.
          1   -1    0    0  501    0 -0.00000000000E+00 -0.00000000000E+00 -0.55678854602E+02  0.55678854602E+02  0.00000000000E+00 0. -1.
         25    2    1    2    0    0 -0.38723231440E+02  0.52226604522E+02  0.16812368860E+03  0.21935375520E+03  0.12499355335E+03 0.  0.
          2    1    1    2  501    0  0.75145885815E+01 -0.28085209228E+02 -0.20882066808E+02  0.35795373069E+02  0.00000000000E+00 0. -1.
          1    1    1    2  502    0  0.31208642859E+02 -0.24141395294E+02  0.22388285274E+03  0.22733305547E+03  0.00000000000E+00 0. -1.
         22    1    3    3    0    0 -0.67402351858E+02 -0.12539555183E+02  0.66754904434E+02  0.95689783917E+02  0.00000000000E+00 0. -1.
         22    1    3    3    0    0  0.28679120418E+02  0.64766159705E+02  0.10136878417E+03  0.12366397129E+03  0.00000000000E+00 0. -1.
</event>
<event>
 7    1  0.6219721E-006  0.6521062E+02  0.7818608E-02  0.1475746E+00
          2   -1    0    0  502    0  0.00000000000E+00  0.00000000000E+00  0.72972284997E+03  0.72972284997E+03  0.00000000000E+00 0. -1.
          1   -1    0    0  501    0 -0.00000000000E+00 -0.00000000000E+00 -0.61601470152E+03  0.61601470152E+03  0.00000000000E+00 0. -1.
         25    2    1    2    0    0  0.85983821235E+02 -0.36071283898E+02  0.21039493527E+03  0.26188804154E+03  0.12499984991E+03 0.  0.
          2    1    1    2  501    0 -0.55297640082E+02  0.34176274743E+02 -0.58799638443E+03  0.59157889994E+03  0.00000000000E+00 0. -1.
          1    1    1    2  502    0 -0.30686181153E+02  0.18950091550E+01  0.49130959761E+03  0.49227061001E+03  0.00000000000E+00 0. -1.
         22    1    3    3    0    0 -0.81601538022E+01 -0.19388468349E+02  0.14389624589E+03  0.14542568685E+03  0.00000000000E+00 0.  1.
         22    1    3    3    0    0  0.94143975037E+02 -0.16682815548E+02  0.66498689384E+02  0.11646235469E+03  0.00000000000E+00 0.  1.
</event>
<event>
 7    1  0.6219721E-006  0.1959402E+03  0.7818608E-02  0.1211937E+00
          2   -1    0    0  502    0  0.00000000000E+00  0.00000000000E+00  0.16004231492E+04  0.16004231492E+04  0.00000000000E+00 0. -1.
          1   -1    0    0  501    0 -0.00000000000E+00 -0.00000000000E+00 -0.10074108196E+04  0.10074108196E+04  0.00000000000E+00 0. -1.
         25    2    1    2    0    0 -0.90725161270E+02 -0.23551083911E+03  0.61830150559E+02  0.28834753567E+03  0.12499969433E+03 0.  0.
          2    1    1    2  501    0  0.92470375453E+02  0.41902626009E+02 -0.88466049108E+03  0.89046661077E+03  0.00000000000E+00 0. -1.
          1    1    1    2  502    0 -0.17452141831E+01  0.19360821310E+03  0.14158426701E+04  0.14290198223E+04  0.00000000000E+00 0. -1.
         22    1    3    3    0    0 -0.15733344379E+02  0.78782527933E+00  0.35749600292E+02  0.39066516546E+02  0.00000000000E+00 0.  1.
         22    1    3    3    0    0 -0.74991816891E+02 -0.23629866439E+03  0.26080550268E+02  0.24928101913E+03  0.00000000000E+00 0.  1.
</event>
<event>
 7    1  0.6219721E-006  0.1360389E+03  0.7818608E-02  0.1343682E+00
          2   -1    0    0  502    0  0.00000000000E+00  0.00000000000E+00  0.16962685587E+04  0.16962685587E+04  0.00000000000E+00 0. -1.
          1   -1    0    0  501    0 -0.00000000000E+00 -0.00000000000E+00 -0.36152678560E+03  0.36152678560E+03  0.00000000000E+00 0. -1.
         25    2    1    2    0    0 -0.57769386851E+02  0.14586756808E+03  0.11189913960E+04  0.11368299473E+04  0.12500374121E+03 0.  0.
          2    1    1    2  501    0  0.79160190733E+02 -0.11040350619E+03 -0.33872163216E+03  0.36494878281E+03  0.00000000000E+00 0. -1.
          1    1    1    2  502    0 -0.21390803882E+02 -0.35464061893E+02  0.55447200926E+03  0.55601661417E+03  0.00000000000E+00 0. -1.
         22    1    3    3    0    0  0.25223022644E+02 -0.70357014689E+01  0.12275676640E+03  0.12551862676E+03  0.00000000000E+00 0. -1.
         22    1    3    3    0    0 -0.82992409495E+02  0.15290326955E+03  0.99623462959E+03  0.10113113205E+04  0.00000000000E+00 0. -1.
</event>
<event>
 7    1  0.6219721E-006  0.8764973E+02  0.7818608E-02  0.1425100E+00
          2   -1    0    0  502    0  0.00000000000E+00  0.00000000000E+00  0.14737443379E+04  0.14737443379E+04  0.00000000000E+00 0. -1.
          1   -1    0    0  501    0 -0.00000000000E+00 -0.00000000000E+00 -0.10424946388E+04  0.10424946388E+04  0.00000000000E+00 0. -1.
         25    2    1    2    0    0 -0.11121159618E+03  0.39330001520E+02  0.63201384387E+02  0.18312104004E+03  0.12499612864E+03 0.  0.
          2    1    1    2  501    0  0.85149969008E+02 -0.18738236982E+02 -0.98039571122E+03  0.98426489795E+03  0.00000000000E+00 0. -1.
          1    1    1    2  502    0  0.26061627171E+02 -0.20591764538E+02  0.13484440259E+04  0.13488530388E+04  0.00000000000E+00 0. -1.
         22    1    3    3    0    0 -0.66029704318E+02  0.51549130785E+02 -0.21378825813E+02  0.86453970008E+02  0.00000000000E+00 0. -1.
         22    1    3    3    0    0 -0.45181891861E+02 -0.12219129265E+02  0.84580210200E+02  0.96667070037E+02  0.00000000000E+00 0. -1.
</event>
<event>
 7    1  0.6219721E-006  0.1685982E+03  0.7818608E-02  0.1269920E+00
          2   -1    0    0  502    0  0.00000000000E+00  0.00000000000E+00  0.13795669651E+04  0.13795669651E+04  0.00000000000E+00 0. -1.
          1   -1    0    0  501    0 -0.00000000000E+00 -0.00000000000E+00 -0.35855706168E+03  0.35855706168E+03  0.00000000000E+00 0. -1.
         25    2    1    2    0    0 -0.18364618773E+03 -0.13625144009E+03  0.19066693835E+03  0.32290698801E+03  0.12499865732E+03 0.  0.
          2    1    1    2  501    0  0.51417030286E+02  0.40607799908E+02 -0.28274122256E+03  0.29023318789E+03  0.00000000000E+00 0. -1.
          1    1    1    2  502    0  0.13222915744E+03  0.95643640185E+02  0.11130841876E+04  0.11249838509E+04  0.00000000000E+00 0. -1.
         22    1    3    3    0    0 -0.40727257843E+02 -0.79191350751E+02  0.16627402732E+02  0.90589459026E+02  0.00000000000E+00 0.  1.
         22    1    3    3    0    0 -0.14291892989E+03 -0.57060089343E+02  0.17403953561E+03  0.23231752898E+03  0.00000000000E+00 0.  1.
</event>
<event>
 7    1  0.6219721E-006  0.7382152E+02  0.7818608E-02  0.1462752E+00
          2   -1    0    0  502    0  0.00000000000E+00  0.00000000000E+00  0.14902578025E+03  0.14902578025E+03  0.00000000000E+00 0. -1.
          1   -1    0    0  501    0 -0.00000000000E+00 -0.00000000000E+00 -0.41945467060E+03  0.41945467060E+03  0.00000000000E+00 0. -1.
         25    2    1    2    0    0 -0.17474975126E+01 -0.51838792876E+02 -0.19053663341E+03  0.23370685093E+03  0.12499747719E+03 0.  0.
          2    1    1    2  501    0 -0.22887607174E+02 -0.19100224212E+02 -0.19503876694E+03  0.19730378034E+03  0.00000000000E+00 0. -1.
          1    1    1    2  502    0  0.24635104687E+02  0.70939017089E+02  0.11514651000E+03  0.13746981957E+03  0.00000000000E+00 0. -1.
         22    1    3    3    0    0 -0.35676838035E+02 -0.53463299059E+02 -0.32429378477E+02  0.71991844724E+02  0.00000000000E+00 0.  1.
         22    1    3    3    0    0  0.33929340523E+02  0.16245061823E+01 -0.15810725493E+03  0.16171500620E+03  0.00000000000E+00 0.  1.
</event>
<event>
 7    1  0.6219721E-006  0.1418889E+03  0.7818608E-02  0.1242591E+00
          2   -1    0    0  502    0  0.00000000000E+00  0.00000000000E+00  0.84237360826E+03  0.84237360826E+03  0.00000000000E+00 0. -1.
          1   -1    0    0  501    0 -0.00000000000E+00 -0.00000000000E+00 -0.11444528282E+03  0.11444528282E+03  0.00000000000E+00 0. -1.
         25    2    1    2    0    0 -0.13044032057E+03  0.16214990772E+03  0.10729962345E+03  0.26540200009E+03  0.12497096725E+03 0.  0.
          2    1    1    2  501    0  0.54987999390E+02 -0.93501659291E+02  0.64903210862E+02  0.12640675278E+03  0.00000000000E+00 0. -1.
          1    1    1    2  502    0  0.75452321183E+02 -0.68648248431E+02  0.55572549114E+03  0.56501013821E+03  0.00000000000E+00 0. -1.
         22    1    3    3    0    0 -0.14181574734E+03  0.16529830830E+03  0.11950053975E+03  0.24842627864E+03  0.00000000000E+00 0. -1.
         22    1    3    3    0    0  0.11375426765E+02 -0.31484005745E+01 -0.12200916303E+02  0.16975721454E+02  0.00000000000E+00 0. -1.
</event>
<event>
 7    1  0.6219721E-006  0.1247931E+03  0.7818608E-02  0.1344185E+00
          2   -1    0    0  502    0  0.00000000000E+00  0.00000000000E+00  0.53380246822E+03  0.53380246822E+03  0.00000000000E+00 0. -1.
          1   -1    0    0  501    0 -0.00000000000E+00 -0.00000000000E+00 -0.63160316894E+03  0.63160316894E+03  0.00000000000E+00 0. -1.
         25    2    1    2    0    0 -0.79500065749E+02  0.49105846543E+02 -0.85676199337E+02  0.17803870198E+03  0.12500289457E+03 0.  0.
          2    1    1    2  501    0 -0.42614199153E+02 -0.14311274632E+02 -0.49043439043E+03  0.49249027794E+03  0.00000000000E+00 0. -1.
          1    1    1    2  502    0  0.12211426490E+03 -0.34794571911E+02  0.47830988904E+03  0.49487665724E+03  0.00000000000E+00 0. -1.
         22    1    3    3    0    0 -0.72667187165E+02  0.45322355869E+02 -0.11742772259E+03  0.14534065524E+03  0.00000000000E+00 0. -1.
         22    1    3    3    0    0 -0.68328785834E+01  0.37834906738E+01  0.31751523257E+02  0.32698046739E+02  0.00000000000E+00 0. -1.
</event>
<event>
 7    1  0.6219721E-006  0.4633489E+02  0.7818608E-02  0.1520201E+00
          2   -1    0    0  502    0  0.00000000000E+00  0.00000000000E+00  0.24731609546E+03  0.24731609546E+03  0.00000000000E+00 0. -1.
          1   -1    0    0  501    0 -0.00000000000E+00 -0.00000000000E+00 -0.13549108418E+04  0.13549108418E+04  0.00000000000E+00 0. -1.
         25    2    1    2    0    0  0.29468174709E+02  0.22936539738E+02 -0.11109532980E+04  0.11185869007E+04  0.12499986384E+03 0.  0.
          2    1    1    2  501    0 -0.57111828986E+02 -0.71154536951E+01 -0.23562052686E+03  0.24254777543E+03  0.00000000000E+00 0. -1.
          1    1    1    2  502    0  0.27643654277E+02 -0.15821086043E+02  0.23897907853E+03  0.24109226109E+03  0.00000000000E+00 0. -1.
         22    1    3    3    0    0  0.27979396279E+02 -0.12956794419E+02 -0.10245384129E+04  0.10250022852E+04  0.00000000000E+00 0. -1.
         22    1    3    3    0    0  0.14887784296E+01  0.35893334157E+02 -0.86414885121E+02  0.93584615555E+02  0.00000000000E+00 0. -1.
</event>
<event>
 7    1  0.6219721E-006  0.4696630E+02  0.7818608E-02  0.1577485E+00
          2   -1    0    0  502    0  0.00000000000E+00  0.00000000000E+00  0.16654833066E+04  0.16654833066E+04  0.00000000000E+00 0. -1.
          1   -1    0    0  501    0 -0.00000000000E+00 -0.00000000000E+00 -0.21040439149E+03  0.21040439149E+03  0.00000000000E+00 0. -1.
         25    2    1    2    0    0  0.34784041426E+01  0.32146036354E+02  0.10638361370E+03  0.16728521442E+03  0.12498561017E+03 0.  0.
          2    1    1    2  501    0  0.13827952923E+02 -0.45294325327E+02 -0.17675904967E+03  0.18299330542E+03  0.00000000000E+00 0. -1.
          1    1    1    2  502    0 -0.17306357066E+02  0.13148288973E+02  0.15254543511E+04  0.15256091782E+04  0.00000000000E+00 0. -1.
         22    1    3    3    0    0  0.31067180557E+02  0.50698604703E+02  0.39500011327E+01  0.59591280701E+02  0.00000000000E+00 0. -1.
         22    1    3    3    0    0 -0.27588776415E+02 -0.18552568349E+02  0.10243361256E+03  0.10769393372E+03  0.00000000000E+00 0. -1.
</event>
<event>
 7    1  0.6219721E-006  0.8309237E+02  0.7818608E-02  0.1437194E+00
          2   -1    0    0  502    0  0.00000000000E+00  0.00000000000E+00  0.15668975784E+04  0.15668975784E+04  0.00000000000E+00 0. -1.
          1   -1    0    0  501    0 -0.00000000000E+00 -0.00000000000E+00 -0.22290818910E+03  0.22290818910E+03  0.00000000000E+00 0. -1.
         25    2    1    2    0    0  0.62638215491E+02 -0.60458938820E+01  0.49800023208E+03  0.51729122980E+03  0.12500354556E+03 0.  0.
          2    1    1    2  501    0 -0.75670439652E+02  0.35241469039E+02 -0.20484192759E+03  0.22119717872E+03  0.00000000000E+00 0. -1.
          1    1    1    2  502    0  0.13032224161E+02 -0.29195575157E+02  0.10508310848E+04  0.10513173590E+04  0.00000000000E+00 0. -1.
         22    1    3    3    0    0  0.60802486999E+02 -0.53368542126E+02  0.40416345961E+03  0.41218108374E+03  0.00000000000E+00 0. -1.
         22    1    3    3    0    0  0.18357284925E+01  0.47322648244E+02  0.93836772476E+02  0.10511014606E+03  0.00000000000E+00 0. -1.
</event>
<event>
 7    1  0.6219721E-006  0.4955107E+02  0.7818608E-02  0.1450743E+00
          2   -1    0    0  502    0  0.00000000000E+00  0.00000000000E+00  0.20940385715E+04  0.20940385715E+04  0.00000000000E+00 0. -1.
          1   -1    0    0  501    0 -0.00000000000E+00 -0.00000000000E+00 -0.50733714661E+03  0.50733714661E+03  0.00000000000E+00 0. -1.
         25    2    1    2    0    0 -0.47023440544E+02  0.75631529442E+02  0.86644690103E+02  0.17625160778E+03  0.12500397880E+03 0.  0.
          2    1    1    2  501    0  0.66590590593E+01 -0.48780729049E+02 -0.46092313540E+03  0.46354507801E+03  0.00000000000E+00 0. -1.
          1    1    1    2  502    0  0.40364381485E+02 -0.26850800392E+02  0.19609798702E+04  0.19615790323E+04  0.00000000000E+00 0. -1.
         22    1    3    3    0    0 -0.77682812233E+02  0.80815972941E+02  0.91601719501E+02  0.14476434580E+03  0.00000000000E+00 0.  1.
         22    1    3    3    0    0  0.30659371688E+02 -0.51844434994E+01 -0.49570293976E+01  0.31487261983E+02  0.00000000000E+00 0.  1.
</event>
<event>
 7    1  0.6219721E-006  0.8991219E+02  0.7818608E-02  0.1474792E+00
          2   -1    0    0  502    0  0.00000000000E+00  0.00000000000E+00  0.11435740235E+03  0.11435740235E+03  0.00000000000E+00 0. -1.
          1   -1    0    0  501    0 -0.00000000000E+00 -0.00000000000E+00 -0.30433614714E+03  0.30433614714E+03  0.00000000000E+00 0. -1.
         25    2    1    2    0    0  0.73607679469E+02 -0.23823488820E+02 -0.16234659337E+03  0.21900027618E+03  0.12497621971E+03 0.  0.
          2    1    1    2  501    0 -0.95336714903E+02  0.29466543613E+02 -0.89397256298E+02  0.13397475820E+03  0.00000000000E+00 0. -1.
          1    1    1    2  502    0  0.21729035434E+02 -0.56430547931E+01  0.61765104873E+02  0.65718515110E+02  0.00000000000E+00 0. -1.
         22    1    3    3    0    0  0.10136618250E+03  0.85350404632E+01 -0.94352280139E+02  0.13874545988E+03  0.00000000000E+00 0. -1.
         22    1    3    3    0    0 -0.27758503029E+02 -0.32358529283E+02 -0.67994313232E+02  0.80254816302E+02  0.00000000000E+00 0. -1.
</event>
<event>
 7    1  0.6219721E-006  0.1451429E+03  0.7818608E-02  0.1266514E+00
          2   -1    0    0  502    0  0.00000000000E+00  0.00000000000E+00  0.26614838577E+03  0.26614838577E+03  0.00000000000E+00 0. -1.
          1   -1    0    0  501    0 -0.00000000000E+00 -0.00000000000E+00 -0.88405901016E+03  0.88405901016E+03  0.00000000000E+00 0. -1.
         25    2    1    2    0    0  0.10931598895E+03  0.16039324663E+03  0.57013869060E+02  0.23780523514E+03  0.12499907836E+03 0.  0.
          2    1    1    2  501    0 -0.11677038795E+02 -0.77790225685E+02 -0.75658423488E+03  0.76066245925E+03  0.00000000000E+00 0. -1.
          1    1    1    2  502    0 -0.97638950154E+02 -0.82603020942E+02  0.81659741428E+02  0.15173970155E+03  0.00000000000E+00 0. -1.
         22    1    3    3    0    0 -0.28020467765E+02  0.19741874825E+02  0.76103699516E+01  0.35111336718E+02  0.00000000000E+00 0. -1.
         22    1    3    3    0    0  0.13733645671E+03  0.14065137180E+03  0.49403499108E+02  0.20269389842E+03  0.00000000000E+00 0. -1.
</event>
<event>
 7    1  0.6219721E-006  0.5932827E+02  0.7818608E-02  0.1536329E+00
          2   -1    0    0  502    0  0.00000000000E+00  0.00000000000E+00  0.16735016501E+04  0.16735016501E+04  0.00000000000E+00 0. -1.
          1   -1    0    0  501    0 -0.00000000000E+00 -0.00000000000E+00 -0.10612808752E+03  0.10612808752E+03  0.00000000000E+00 0. -1.
         25    2    1    2    0    0  0.74973839644E+02 -0.30235958608E+02  0.52791632631E+03  0.54850326894E+03  0.12499959452E+03 0.  0.
          2    1    1    2  501    0 -0.53084971554E+02  0.25675732197E+02 -0.86642141654E+02  0.10480514367E+03  0.00000000000E+00 0. -1.
          1    1    1    2  502    0 -0.21888868091E+02  0.45602264106E+01  0.11260993780E+04  0.11263213251E+04  0.00000000000E+00 0. -1.
         22    1    3    3    0    0  0.96599972547E+02 -0.84252831438E+01  0.23845070351E+03  0.25741266111E+03  0.00000000000E+00 0. -1.
         22    1    3    3    0    0 -0.21626132903E+02 -0.21810675464E+02  0.28946562280E+03  0.29109060784E+03  0.00000000000E+00 0. -1.
</event>
<event>
 7    1  0.6219721E-006  0.5668461E+02  0.7818608E-02  0.1477823E+00
          2   -1    0    0  502    0  0.00000000000E+00  0.00000000000E+00  0.17469278239E+04  0.17469278239E+04  0.00000000000E+00 0. -1.
          1   -1    0    0  501    0 -0.00000000000E+00 -0.00000000000E+00 -0.62972121762E+03  0.62972121762E+03  0.00000000000E+00 0. -1.
         25    2    1    2    0    0 -0.31213868206E+02 -0.15491060481E+02 -0.36133095581E+03  0.38392644008E+03  0.12500069299E+03 0.  0.
          2    1    1    2  501    0  0.44899748428E+02  0.47542918423E+02 -0.25275596226E+03  0.26107832725E+03  0.00000000000E+00 0. -1.
          1    1    1    2  502    0 -0.13685880222E+02 -0.32051857942E+02  0.17312935244E+04  0.17316442742E+04  0.00000000000E+00 0. -1.
         22    1    3    3    0    0  0.39968242762E+02  0.15712593445E+02 -0.20368158141E+03  0.20815987276E+03  0.00000000000E+00 0.  1.
         22    1    3    3    0    0 -0.71182110968E+02 -0.31203653926E+02 -0.15764937440E+03  0.17576656732E+03  0.00000000000E+00 0.  1.
</event>
<event>
 7    1  0.6219721E-006  0.6576769E+02  0.7818608E-02  0.1415451E+00
          2   -1    0    0  502    0  0.00000000000E+00  0.00000000000E+00  0.40608961811E+02  0.40608961811E+02  0.00000000000E+00 0. -1.
          1   -1    0    0  501    0 -0.00000000000E+00 -0.00000000000E+00 -0.55936133018E+03  0.55936133018E+03  0.00000000000E+00 0. -1.
         25    2    1    2    0    0  0.35480794158E+02  0.25378847472E+02 -0.31567569870E+03  0.34231372919E+03  0.12499827916E+03 0.  0.
          2    1    1    2  501    0 -0.37451513809E+02 -0.73012673164E+02 -0.19187291720E+03  0.20868321131E+03  0.00000000000E+00 0. -1.
          1    1    1    2  502    0  0.19707196510E+01  0.47633825692E+02 -0.11203752470E+02  0.48973351482E+02  0.00000000000E+00 0. -1.
         22    1    3    3    0    0 -0.32668953958E+02 -0.10444939559E+02 -0.27298427169E+02  0.43835618405E+02  0.00000000000E+00 0.  1.
         22    1    3    3    0    0  0.68149748115E+02  0.35823787031E+02 -0.28837727153E+03  0.29847811079E+03  0.00000000000E+00 0.  1.
</event>
<event>
 7    1  0.6219721E-006  0.5706796E+02  0.7818608E-02  0.1471973E+00
          2   -1    0    0  502    0  0.00000000000E+00  0.00000000000E+00  0.14285719346E+04  0.14285719346E+04  0.00000000000E+00 0. -1.
          1   -1    0    0  501    0 -0.00000000000E+00 -0.00000000000E+00 -0.71273057680E+02  0.71273057680E+02  0.00000000000E+00 0. -1.
         25    2    1    2    0    0  0.19752669617E+02 -0.13835775800E+02  0.20455076379E+03  0.24093133157E+03  0.12500117965E+03 0.  0.
          2    1    1    2  501    0 -0.42045639459E+02  0.42215222135E+02 -0.36003262329E+02  0.69614622571E+02  0.00000000000E+00 0. -1.
          1    1    1    2  502    0  0.22292969842E+02 -0.28379446335E+02  0.11887513755E+04  0.11892990382E+04  0.00000000000E+00 0. -1.
         22    1    3    3    0    0 -0.98879497384E+01  0.37551389283E+02  0.13867559743E+02  0.41233331182E+02  0.00000000000E+00 0. -1.
         22    1    3    3    0    0  0.29640619355E+02 -0.51387165083E+02  0.19068320405E+03  0.19969800039E+03  0.00000000000E+00 0. -1.
</event>
<event>
 7    1  0.6219721E-006  0.9098485E+02  0.7818608E-02  0.1355589E+00
          2   -1    0    0  502    0  0.00000000000E+00  0.00000000000E+00  0.52127969805E+03  0.52127969805E+03  0.00000000000E+00 0. -1.
          1   -1    0    0  501    0 -0.00000000000E+00 -0.00000000000E+00 -0.44284188928E+03  0.44284188928E+03  0.00000000000E+00 0. -1.
         25    2    1    2    0    0  0.32046341770E+02  0.31909018738E+02  0.11757693194E+03  0.17746690969E+03  0.12500006245E+03 0.  0.
          2    1    1    2  501    0 -0.87936736072E+02 -0.29563512027E+02 -0.40553585436E+03  0.41601225939E+03  0.00000000000E+00 0. -1.
          1    1    1    2  502    0  0.55890394302E+02 -0.23455067108E+01  0.36639673119E+03  0.37064241825E+03  0.00000000000E+00 0. -1.
         22    1    3    3    0    0  0.69726916314E+02  0.43565596323E+02  0.10995480019E+03  0.13729480007E+03  0.00000000000E+00 0. -1.
         22    1    3    3    0    0 -0.37680574544E+02 -0.11656577584E+02  0.76221317484E+01  0.40172109620E+02  0.00000000000E+00 0. -1.
</event>
<event>
 7    1  0.6219721E-006  0.1294422E+03  0.7818608E-02  0.1247336E+00
          2   -1    0    0  502    0  0.00000000000E+00  0.00000000000E+00  0.36462959933E+03  0.36462959933E+03  0.00000000000E+00 0. -1.
          1   -1    0    0  501    0 -0.00000000000E+00 -0.00000000000E+00 -0.15923409228E+04  0.15923409228E+04  0.00000000000E+00 0. -1.
         25    2    1    2    0    0 -0.20441874227E+03  0.30740390600E+02 -0.36837783654E+03  0.44052220121E+03  0.12500234198E+03 0.  0.
          2    1    1    2  501    0  0.98566192214E+02  0.40594965805E+02 -0.11729843896E+04  0.11778181625E+04  0.00000000000E+00 0. -1.
          1    1    1    2  502    0  0.10585255005E+03 -0.71335356405E+02  0.31365090273E+03  0.33863015844E+03  0.00000000000E+00 0. -1.
         22    1    3    3    0    0 -0.99373096056E+01  0.16556157097E+02 -0.13512346042E+03  0.13649617583E+03  0.00000000000E+00 0.  1.
         22    1    3    3    0    0 -0.19448143266E+03  0.14184233503E+02 -0.23325437613E+03  0.30402602539E+03  0.00000000000E+00 0.  1.
</event>
<event>
 7    1  0.6219721E-006  0.2477098E+03  0.7818608E-02  0.1239494E+00
          2   -1    0    0  502    0  0.00000000000E+00  0.00000000000E+00  0.12060293274E+04  0.12060293274E+04  0.00000000000E+00 0. -1.
          1   -1    0    0  501    0 -0.00000000000E+00 -0.00000000000E+00 -0.57384963702E+03  0.57384963702E+03  0.00000000000E+00 0. -1.
         25    2    1    2    0    0 -0.19326014603E+03  0.29135407760E+02  0.14994474308E+03  0.27623774343E+03  0.12500203554E+03 0.  0.
          2    1    1    2  501    0  0.25190417290E+03 -0.43143678699E+02 -0.47772389765E+03  0.54179074533E+03  0.00000000000E+00 0. -1.
          1    1    1    2  502    0 -0.58644026870E+02  0.14008270938E+02  0.95995884497E+03  0.96185047568E+03  0.00000000000E+00 0. -1.
         22    1    3    3    0    0 -0.55386477945E+02  0.67796239261E+02  0.43109890389E+02  0.97583065367E+02  0.00000000000E+00 0. -1.
         22    1    3    3    0    0 -0.13787366808E+03 -0.38660831501E+02  0.10683485269E+03  0.17865467806E+03  0.00000000000E+00 0. -1.
</event>
<event>
 7    1  0.6219721E-006  0.3310281E+02  0.7818608E-02  0.1648144E+00
          2   -1    0    0  502    0  0.00000000000E+00  0.00000000000E+00  0.45333066012E+03  0.45333066012E+03  0.00000000000E+00 0. -1.
          1   -1    0    0  501    0 -0.00000000000E+00 -0.00000000000E+00 -0.13655184802E+03  0.13655184802E+03  0.00000000000E+00 0. -1.
         25    2    1    2    0    0  0.34854395123E+02  0.29148595492E+02  0.27055558184E+03  0.30147651579E+03  0.12499318873E+03 0.  0.
          2    1    1    2  501    0 -0.40283088995E+01 -0.19890121971E+02 -0.11867409508E+03  0.12039678180E+03  0.00000000000E+00 0. -1.
          1    1    1    2  502    0 -0.30826086223E+02 -0.92584735204E+01  0.16489732534E+03  0.16800921055E+03  0.00000000000E+00 0. -1.
         22    1    3    3    0    0  0.67875961625E+02  0.55338620461E+02  0.21158576859E+03  0.22899355133E+03  0.00000000000E+00 0. -1.
         22    1    3    3    0    0 -0.33021566502E+02 -0.26190024969E+02  0.58969813249E+02  0.72482964459E+02  0.00000000000E+00 0. -1.
</event>
<event>
 7    1  0.6219721E-006  0.1185580E+03  0.7818608E-02  0.1379311E+00
          2   -1    0    0  502    0  0.00000000000E+00  0.00000000000E+00  0.91440927893E+03  0.91440927893E+03  0.00000000000E+00 0. -1.
          1   -1    0    0  501    0 -0.00000000000E+00 -0.00000000000E+00 -0.13443406561E+04  0.13443406561E+04  0.00000000000E+00 0. -1.
         25    2    1    2    0    0 -0.13822624141E+03  0.53798103598E+02 -0.22030299596E+03  0.29353005523E+03  0.12500301407E+03 0.  0.
          2    1    1    2  501    0  0.35052799021E+02  0.37106000643E+01 -0.10831625473E+04  0.10837359324E+04  0.00000000000E+00 0. -1.
          1    1    1    2  502    0  0.10317344239E+03 -0.57508703662E+02  0.87353416610E+03  0.88148394742E+03  0.00000000000E+00 0. -1.
         22    1    3    3    0    0 -0.56779573187E+02  0.38515837725E+01 -0.39814792765E+01  0.57049161309E+02  0.00000000000E+00 0. -1.
         22    1    3    3    0    0 -0.81446668221E+02  0.49946519825E+02 -0.21632151669E+03  0.23648089392E+03  0.00000000000E+00 0. -1.
</event>
<event>
 7    1  0.6219721E-006  0.3792016E+02  0.7818608E-02  0.1613924E+00
          2   -1    0    0  502    0  0.00000000000E+00  0.00000000000E+00  0.12644018889E+04  0.12644018889E+04  0.00000000000E+00 0. -1.
          1   -1    0    0  501    0 -0.00000000000E+00 -0.00000000000E+00 -0.64177722719E+03  0.64177722719E+03  0.00000000000E+00 0. -1.
         25    2    1    2    0    0 -0.35467012852E+02 -0.12219483393E+02  0.10330705807E+04  0.10412815259E+04  0.12500066613E+03 0.  0.
          2    1    1    2  501    0  0.10492174832E+02 -0.18872617322E+02 -0.63573717168E+03  0.63610377523E+03  0.00000000000E+00 0. -1.
          1    1    1    2  502    0  0.24974838020E+02  0.31092100715E+02  0.22529125261E+03  0.22879381496E+03  0.00000000000E+00 0. -1.
         22    1    3    3    0    0  0.65790716899E+01 -0.63433908566E+01  0.20230684440E+01  0.93603203892E+01  0.00000000000E+00 0. -1.
         22    1    3    3    0    0 -0.42046084541E+02 -0.58760925367E+01  0.10310475123E+04  0.10319212055E+04  0.00000000000E+00 0. -1.
</event>
<event>
 7    1  0.6219721E-006  0.4400919E+02  0.7818608E-02  0.1590926E+00
          2   -1    0    0  502    0  0.00000000000E+00  0.00000000000E+00  0.12970804142E+04  0.12970804142E+04  0.00000000000E+00 0. -1.
          1   -1    0    0  501    0 -0.00000000000E+00 -0.00000000000E+00 -0.12955157743E+03  0.12955157743E+03  0.00000000000E+00 0. -1.
         25    2    1    2    0    0 -0.37224455385E+02 -0.82155050262E+01  0.66351956733E+03  0.67626729605E+03  0.12500433941E+03 0.  0.
          2    1    1    2  501    0 -0.63985324935E+01  0.20376378977E+02 -0.12142704972E+03  0.12329098281E+03  0.00000000000E+00 0. -1.
          1    1    1    2  502    0  0.43622987878E+02 -0.12160873950E+02  0.62543631911E+03  0.62707371272E+03  0.00000000000E+00 0. -1.
         22    1    3    3    0    0 -0.49269196387E+02 -0.57238047165E+02  0.48110984116E+03  0.48700136244E+03  0.00000000000E+00 0.  1.
         22    1    3    3    0    0  0.12044741002E+02  0.49022542139E+02  0.18240972617E+03  0.18926593361E+03  0.00000000000E+00 0.  1.
</event>
<event>
 7    1  0.9029158E-006  0.9485264E+02  0.7818608E-02  0.1393141E+00
          2   -1    0    0  502    0  0.00000000000E+00  0.00000000000E+00  0.26472950496E+04  0.26472950496E+04  0.00000000000E+00 0. -1.
          1   -1    0    0  501    0 -0.00000000000E+00 -0.00000000000E+00 -0.22012480878E+04  0.22012480878E+04  0.00000000000E+00 0. -1.
         25    2    1    2    0    0  0.12603551197E+03 -0.29630421035E+02 -0.40782263591E+03  0.44576567954E+03  0.12499930626E+03 0.  0.
          2    1    1    2  501    0 -0.92228913546E+02  0.93962381900E+01 -0.17730952492E+04  0.17755171710E+04  0.00000000000E+00 0. -1.
          1    1    1    2  502    0 -0.33806598425E+02  0.20234182845E+02  0.26269648469E+04  0.26272602869E+04  0.00000000000E+00 0. -1.
         22    1    3    3    0    0  0.53994290196E+02 -0.37435479404E+02 -0.55313775076E+02  0.85886041969E+02  0.00000000000E+00 0.  1.
         22    1    3    3    0    0  0.72041221775E+02  0.78050583688E+01 -0.35250886083E+03  0.35987963757E+03  0.00000000000E+00 0.  1.
</event>
<event>
 7    1  0.6219721E-006  0.8345003E+02  0.7818608E-02  0.1500924E+00
          2   -1    0    0  502    0  0.00000000000E+00  0.00000000000E+00  0.13439573546E+04  0.13439573546E+04  0.00000000000E+00 0. -1.
          1   -1    0    0  501    0 -0.00000000000E+00 -0.00000000000E+00 -0.31642287056E+03  0.31642287056E+03  0.00000000000E+00 0. -1.
         25    2    1    2    0    0 -0.72319437138E+02 -0.73158642371E+01  0.80968836148E+03  0.82249852071E+03  0.12499980401E+03 0.  0.
          2    1    1    2  501    0 -0.15552818031E+02 -0.12813504835E+02 -0.30583491764E+03  0.30649807977E+03  0.00000000000E+00 0. -1.
          1    1    1    2  502    0  0.87872255168E+02  0.20129369072E+02  0.52368104021E+03  0.53138362470E+03  0.00000000000E+00 0. -1.
         22    1    3    3    0    0  0.30868483343E+02  0.21284539655E+02  0.20341570562E+03  0.20684255893E+03  0.00000000000E+00 0. -1.
         22    1    3    3    0    0 -0.10318792048E+03 -0.28600403892E+02  0.60627265586E+03  0.61565596178E+03  0.00000000000E+00 0. -1.
</event>
<event>
 7    1  0.6219721E-006  0.1277391E+03  0.7818608E-02  0.1348519E+00
          2   -1    0    0  502    0  0.00000000000E+00  0.00000000000E+00  0.29769753494E+03  0.29769753494E+03  0.00000000000E+00 0. -1.
          1   -1    0    0  501    0 -0.00000000000E+00 -0.00000000000E+00 -0.67339038208E+03  0.67339038208E+03  0.00000000000E+00 0. -1.
         25    2    1    2    0    0  0.76660071269E+02 -0.52416743973E+02 -0.28591667993E+03  0.32557330987E+03  0.12500140264E+03 0.  0.
          2    1    1    2  501    0  0.42298635697E+02  0.11097070622E+01 -0.35120592610E+03  0.35374568345E+03  0.00000000000E+00 0. -1.
          1    1    1    2  502    0 -0.11895870697E+03  0.51307036911E+02  0.26142975890E+03  0.29176892370E+03  0.00000000000E+00 0. -1.
         22    1    3    3    0    0  0.17221594637E+02  0.40940017973E+02 -0.69083071625E+02  0.82128796281E+02  0.00000000000E+00 0. -1.
         22    1    3    3    0    0  0.59438476632E+02 -0.93356761946E+02 -0.21683360831E+03  0.24344451359E+03  0.00000000000E+00 0. -1.
</event>
<event>
 7    1  0.6219721E-006  0.6674310E+02  0.7818608E-02  0.1508954E+00
          2   -1    0    0  502    0  0.00000000000E+00  0.00000000000E+00  0.70738439075E+02  0.70738439075E+02  0.00000000000E+00 0. -1.
          1   -1    0    0  501    0 -0.00000000000E+00 -0.00000000000E+00 -0.95336722722E+03  0.95336722722E+03  0.00000000000E+00 0. -1.
         25    2    1    2    0    0 -0.85598241309E+02 -0.35537883454E+01 -0.36345888228E+03  0.39378464204E+03  0.12499718744E+03 0.  0.
          2    1    1    2  501    0  0.63392951443E+02  0.12262194317E+02 -0.57027774042E+03  0.57392136127E+03  0.00000000000E+00 0. -1.
          1    1    1    2  502    0  0.22205289866E+02 -0.87084059711E+01  0.51107834554E+02  0.56399662990E+02  0.00000000000E+00 0. -1.
         22    1    3    3    0    0 -0.24311277624E+02 -0.54311428814E+01 -0.31405739738E+03  0.31504378169E+03  0.00000000000E+00 0. -1.
         22    1    3    3    0    0 -0.61286963685E+02  0.18773545360E+01 -0.49401484902E+02  0.78740860347E+02  0.00000000000E+00 0. -1.
</event>
<event>
 7    1  0.6219721E-006  0.5836349E+02  0.7818608E-02  0.1511441E+00
          2   -1    0    0  502    0  0.00000000000E+00  0.00000000000E+00  0.31487168617E+03  0.31487168617E+03  0.00000000000E+00 0. -1.
          1   -1    0    0  501    0 -0.00000000000E+00 -0.00000000000E+00 -0.88293365729E+02  0.88293365729E+02  0.00000000000E+00 0. -1.
         25    2    1    2    0    0 -0.19384136482E+02 -0.31163286695E+02  0.33735344309E+02  0.13457795419E+03  0.12500502835E+03 0.  0.
          2    1    1    2  501    0 -0.25138179690E+02 -0.93498761347E+01 -0.28540804889E+02  0.39165364872E+02  0.00000000000E+00 0. -1.
          1    1    1    2  502    0  0.44522316173E+02  0.40513162830E+02  0.22138378102E+03  0.22942173284E+03  0.00000000000E+00 0. -1.
         22    1    3    3    0    0  0.33885124547E+02  0.32660213711E+02  0.14545224348E+02  0.49259057812E+02  0.00000000000E+00 0.  1.
         22    1    3    3    0    0 -0.53269261030E+02 -0.63823500406E+02  0.19190119961E+02  0.85318896376E+02  0.00000000000E+00 0.  1.
</event>
<event>
 7    1  0.6219721E-006  0.2592800E+02  0.7818608E-02  0.1666628E+00
          2   -1    0    0  502    0  0.00000000000E+00  0.00000000000E+00  0.11400191194E+03  0.11400191194E+03  0.00000000000E+00 0. -1.
          1   -1    0    0  501    0 -0.00000000000E+00 -0.00000000000E+00 -0.41301616088E+03  0.41301616088E+03  0.00000000000E+00 0. -1.
         25    2    1    2    0    0  0.84896222670E+01 -0.86460726080E+01 -0.10718324174E+03  0.16510639895E+03  0.12500018963E+03 0.  0.
          2    1    1    2  501    0  0.16538821050E+02  0.16502950565E+02 -0.27433988793E+03  0.27533298766E+03  0.00000000000E+00 0. -1.
          1    1    1    2  502    0 -0.25028443317E+02 -0.78568779572E+01  0.82508880741E+02  0.86578686218E+02  0.00000000000E+00 0. -1.
         22    1    3    3    0    0  0.30669383496E+02 -0.47304441942E+02 -0.10653527922E+03  0.12053251441E+03  0.00000000000E+00 0. -1.
         22    1    3    3    0    0 -0.22179761229E+02  0.38658369334E+02 -0.64796252228E+00  0.44573884542E+02  0.00000000000E+00 0. -1.
</event>
<event>
 7    1  0.6219721E-006  0.1255196E+03  0.7818608E-02  0.1409276E+00
          2   -1    0    0  502    0  0.00000000000E+00  0.00000000000E+00  0.55202960549E+03  0.55202960549E+03  0.00000000000E+00 0. -1.
          1   -1    0    0  501    0 -0.00000000000E+00 -0.00000000000E+00 -0.41622144125E+03  0.41622144125E+03  0.00000000000E+00 0. -1.
         25    2    1    2    0    0 -0.83455250466E+02  0.12023553847E+03  0.13338687949E+03  0.23417689677E+03  0.12500158326E+03 0.  0.
          2    1    1    2  501    0  0.59742474846E+02 -0.10907386639E+03 -0.35476302360E+03  0.37592961381E+03  0.00000000000E+00 0. -1.
          1    1    1    2  502    0  0.23712775620E+02 -0.11161672077E+02  0.35718430834E+03  0.35814453616E+03  0.00000000000E+00 0. -1.
         22    1    3    3    0    0 -0.65515634753E+02  0.66692534188E+02  0.46552873563E+01  0.93604830078E+02  0.00000000000E+00 0. -1.
         22    1    3    3    0    0 -0.17939615713E+02  0.53543004283E+02  0.12873159213E+03  0.14057206669E+03  0.00000000000E+00 0. -1.
</event>
<event>
 7    1  0.6219721E-006  0.1105449E+03  0.7818608E-02  0.1336806E+00
          2   -1    0    0  502    0  0.00000000000E+00  0.00000000000E+00  0.20415985426E+04  0.20415985426E+04  0.00000000000E+00 0. -1.
          1   -1    0    0  501    0 -0.00000000000E+00 -0.00000000000E+00 -0.38565876210E+03  0.38565876210E+03  0.00000000000E+00 0. -1.
         25    2    1    2    0    0 -0.86635664581E+02  0.70543005175E+02  0.84245309466E+03  0.85897166659E+03  0.12499221319E+03 0.  0.
          2    1    1    2  501    0 -0.24528240606E+02 -0.48213360973E+02 -0.37274385133E+03  0.37664856494E+03  0.00000000000E+00 0. -1.
          1    1    1    2  502    0  0.11116390519E+03 -0.22329644202E+02  0.11862305372E+04  0.11916370732E+04  0.00000000000E+00 0. -1.
         22    1    3    3    0    0 -0.26854278422E+01  0.24450549650E+02  0.56349061526E+03  0.56402722841E+03  0.00000000000E+00 0.  1.
         22    1    3    3    0    0 -0.83950236739E+02  0.46092455525E+02  0.27896247940E+03  0.29494443818E+03  0.00000000000E+00 0.  1.
</event>
<event>
 7    1  0.6219721E-006  0.8991118E+02  0.7818608E-02  0.1404561E+00
          2   -1    0    0  502    0  0.00000000000E+00  0.00000000000E+00  0.41436525952E+03  0.41436525952E+03  0.00000000000E+00 0. -1.
          1   -1    0    0  501    0 -0.00000000000E+00 -0.00000000000E+00 -0.25961255760E+03  0.25961255760E+03  0.00000000000E+00 0. -1.
         25    2    1    2    0    0  0.93589418884E+02  0.62388097535E+02 -0.19860399583E+03  0.26023253792E+03  0.12500469028E+03 0.  0.
          2    1    1    2  501    0 -0.77205867763E+01 -0.37172186151E+02 -0.10219148442E+02  0.39316788758E+02  0.00000000000E+00 0. -1.
          1    1    1    2  502    0 -0.85868832108E+02 -0.25215911385E+02  0.36357584620E+03  0.37442849044E+03  0.00000000000E+00 0. -1.
         22    1    3    3    0    0  0.22111964638E+02 -0.35144936274E+02 -0.83661073237E+02  0.93398504811E+02  0.00000000000E+00 0.  1.
         22    1    3    3    0    0  0.71477454247E+02  0.97533033810E+02 -0.11494292260E+03  0.16683403311E+03  0.00000000000E+00 0.  1.
</event>
<event>
 7    1  0.6219721E-006  0.2579854E+03  0.7818608E-02  0.1167004E+00
          2   -1    0    0  502    0  0.00000000000E+00  0.00000000000E+00  0.89133179021E+03  0.89133179021E+03  0.00000000000E+00 0. -1.
          1   -1    0    0  501    0 -0.00000000000E+00 -0.00000000000E+00 -0.27448805886E+04  0.27448805886E+04  0.00000000000E+00 0. -1.
         25    2    1    2    0    0  0.23451298808E+03  0.11858136761E+03  0.30186298789E+02  0.29256527282E+03  0.12500137561E+03 0.  0.
          2    1    1    2  501    0 -0.83533170929E+02  0.95324921783E+02 -0.25886128644E+04  0.25917139489E+04  0.00000000000E+00 0. -1.
          1    1    1    2  502    0 -0.15097981716E+03 -0.21390628939E+03  0.70487776726E+03  0.75193315701E+03  0.00000000000E+00 0. -1.
         22    1    3    3    0    0  0.13194397141E+03  0.27056570416E+02  0.66744641222E+02  0.15032004765E+03  0.00000000000E+00 0.  1.
         22    1    3    3    0    0  0.10256901668E+03  0.91524797192E+02 -0.36558342434E+02  0.14224522517E+03  0.00000000000E+00 0.  1.
</event>
<event>
 7    1  0.6219721E-006  0.6461249E+02  0.7818608E-02  0.1465920E+00
          2   -1    0    0  502    0  0.00000000000E+00  0.00000000000E+00  0.65059872858E+03  0.65059872858E+03  0.00000000000E+00 0. -1.
          1   -1    0    0  501    0 -0.00000000000E+00 -0.00000000000E+00 -0.71652116714E+02  0.71652116714E+02  0.00000000000E+00 0. -1.
         25    2    1    2    0    0 -0.30986923399E+02 -0.76824308276E+02  0.75270681405E+02  0.16778941911E+03  0.12500179968E+03 0.  0.
          2    1    1    2  501    0  0.40177175395E+02  0.44828908166E+02  0.11655678926E+02  0.61316321492E+02  0.00000000000E+00 0. -1.
          1    1    1    2  502    0 -0.91902519958E+01  0.31995400110E+02  0.49202025154E+03  0.49314510469E+03  0.00000000000E+00 0. -1.
         22    1    3    3    0    0 -0.46939198276E+02 -0.60458700704E+02 -0.12088894194E+02  0.77489897331E+02  0.00000000000E+00 0.  1.
         22    1    3    3    0    0  0.15952274877E+02 -0.16365607572E+02  0.87359575598E+02  0.90299521780E+02  0.00000000000E+00 0.  1.
</event>
<event>
 7    1  0.6219721E-006  0.9141105E+02  0.7818608E-02  0.1399224E+00
          2   -1    0    0  502    0  0.00000000000E+00  0.00000000000E+00  0.16020839974E+04  0.16020839974E+04  0.00000000000E+00 0. -1.
          1   -1    0    0  501    0 -0.00000000000E+00 -0.00000000000E+00 -0.23518077900E+03  0.23518077900E+03  0.00000000000E+00 0. -1.
         25    2    1    2    0    0 -0.55040810217E+02 -0.79474315713E+01  0.10714019771E+03  0.17377029940E+03  0.12499777010E+03 0.  0.
          2    1    1    2  501    0  0.92083793226E+02  0.19985635583E+02 -0.19059402437E+03  0.21261451674E+03  0.00000000000E+00 0. -1.
          1    1    1    2  502    0 -0.37042983009E+02 -0.12038204012E+02  0.14503570450E+04  0.14508799602E+04  0.00000000000E+00 0. -1.
         22    1    3    3    0    0 -0.33934987358E+02  0.52397405599E+02  0.86336210298E+02  0.10654113144E+03  0.00000000000E+00 0. -1.
         22    1    3    3    0    0 -0.21105822859E+02 -0.60344837170E+02  0.20803987410E+02  0.67229167954E+02  0.00000000000E+00 0. -1.
</event>
<event>
 7    1  0.6219721E-006  0.9123254E+02  0.7818608E-02  0.1357185E+00
          2   -1    0    0  502    0  0.00000000000E+00  0.00000000000E+00  0.15234886093E+04  0.15234886093E+04  0.00000000000E+00 0. -1.
          1   -1    0    0  501    0 -0.00000000000E+00 -0.00000000000E+00 -0.15650169864E+03  0.15650169864E+03  0.00000000000E+00 0. -1.
         25    2    1    2    0    0  0.12638178407E+03 -0.33925325320E+02 -0.48782556538E+02  0.18742340894E+03  0.12499805340E+03 0.  0.
          2    1    1    2  501    0 -0.35874813623E+02  0.41742551801E+02 -0.16468094422E+02  0.57451205534E+02  0.00000000000E+00 0. -1.
          1    1    1    2  502    0 -0.90506970451E+02 -0.78172264811E+01  0.14322375616E+04  0.14351156935E+04  0.00000000000E+00 0. -1.
         22    1    3    3    0    0  0.13326812042E+03 -0.61864070363E+02 -0.56845241881E+02  0.15754026992E+03  0.00000000000E+00 0.  1.
         22    1    3    3    0    0 -0.68863363464E+01  0.27938745043E+02  0.80626853430E+01  0.29883139022E+02  0.00000000000E+00 0.  1.
</event>
<event>
 7    1  0.6219721E-006  0.8165503E+02  0.7818608E-02  0.1385011E+00
          2   -1    0    0  502    0  0.00000000000E+00  0.00000000000E+00  0.14447219666E+04  0.14447219666E+04  0.00000000000E+00 0. -1.
          1   -1    0    0  501    0 -0.00000000000E+00 -0.00000000000E+00 -0.48117113694E+03  0.48117113694E+03  0.00000000000E+00 0. -1.
         25    2    1    2    0    0  0.83506250096E+02 -0.63307812322E+02  0.55222730968E+03  0.57581526247E+03  0.12500816784E+03 0.  0.
          2    1    1    2  501    0 -0.53498096293E+01  0.48567798733E+02 -0.46630241424E+03  0.46885540741E+03  0.00000000000E+00 0. -1.
          1    1    1    2  502    0 -0.78156440467E+02  0.14740013589E+02  0.87762593421E+03  0.88122243366E+03  0.00000000000E+00 0. -1.
         22    1    3    3    0    0 -0.24180620974E+02 -0.38497943093E+02  0.24815143715E+03  0.25228144960E+03  0.00000000000E+00 0. -1.
         22    1    3    3    0    0  0.10768687107E+03 -0.24809869229E+02  0.30407587254E+03  0.32353381287E+03  0.00000000000E+00 0. -1.
</event>
<event>
 7    1  0.6219721E-006  0.2176940E+03  0.7818608E-02  0.1179550E+00
          2   -1    0    0  502    0  0.00000000000E+00  0.00000000000E+00  0.80619043574E+03  0.80619043574E+03  0.00000000000E+00 0. -1.
          1   -1    0    0  501    0 -0.00000000000E+00 -0.00000000000E+00 -0.31900875615E+03  0.31900875615E+03  0.00000000000E+00 0. -1.
         25    2    1    2    0    0 -0.24246212141E+03 -0.15076434272E+03 -0.49171291681E+02  0.31554318215E+03  0.12502766301E+03 0.  0.
          2    1    1    2  501    0  0.11223071659E+03  0.15159586361E+03 -0.61026298749E+02  0.19824542555E+03  0.00000000000E+00 0. -1.
          1    1    1    2  502    0  0.13023140482E+03 -0.83152089373E+00  0.59737927002E+03  0.61141058420E+03  0.00000000000E+00 0. -1.
         22    1    3    3    0    0 -0.73891259481E+02 -0.58395569635E+02  0.41612885995E+02  0.10296403771E+03  0.00000000000E+00 0.  1.
         22    1    3    3    0    0 -0.16857086193E+03 -0.92368773080E+02 -0.90784177675E+02  0.21257914444E+03  0.00000000000E+00 0.  1.
</event>
<event>
 7    1  0.6219721E-006  0.1415545E+03  0.7818608E-02  0.1407909E+00
          2   -1    0    0  502    0  0.00000000000E+00  0.00000000000E+00  0.58664121871E+03  0.58664121871E+03  0.00000000000E+00 0. -1.
          1   -1    0    0  501    0 -0.00000000000E+00 -0.00000000000E+00 -0.13301587061E+04  0.13301587061E+04  0.00000000000E+00 0. -1.
         25    2    1    2    0    0 -0.14891909738E+03  0.69571803882E+02 -0.61832954762E+03  0.65190010134E+03  0.12500071683E+03 0.  0.
          2    1    1    2  501    0  0.19390700646E+02 -0.13256969241E+02 -0.68608804623E+03  0.68649002446E+03  0.00000000000E+00 0. -1.
          1    1    1    2  502    0  0.12952839673E+03 -0.56314834641E+02  0.56090010646E+03  0.57840979901E+03  0.00000000000E+00 0. -1.
         22    1    3    3    0    0 -0.10088047497E+02  0.38738918916E+02 -0.40956408358E+02  0.57270410568E+02  0.00000000000E+00 0. -1.
         22    1    3    3    0    0 -0.13883104988E+03  0.30832884967E+02 -0.57737313927E+03  0.59462969078E+03  0.00000000000E+00 0. -1.
</event>
<event>
 7    1  0.6219721E-006  0.1021446E+03  0.7818608E-02  0.1364833E+00
          2   -1    0    0  502    0  0.00000000000E+00  0.00000000000E+00  0.65506907102E+03  0.65506907102E+03  0.00000000000E+00 0. -1.
          1   -1    0    0  501    0 -0.00000000000E+00 -0.00000000000E+00 -0.84435664242E+03  0.84435664242E+03  0.00000000000E+00 0. -1.
         25    2    1    2    0    0  0.82255618772E+02 -0.21692492666E+01 -0.37537831464E+03  0.40411364374E+03  0.12501306130E+03 0.  0.
          2    1    1    2  501    0  0.85177690782E+01 -0.45311362571E+02 -0.44932869829E+03  0.45168789122E+03  0.00000000000E+00 0. -1.
          1    1    1    2  502    0 -0.90773387850E+02  0.47480611838E+02  0.63541944153E+03  0.64362417848E+03  0.00000000000E+00 0. -1.
         22    1    3    3    0    0 -0.29649727811E+02  0.19459569799E+02 -0.80025464778E+02  0.87532029732E+02  0.00000000000E+00 0.  1.
         22    1    3    3    0    0  0.11190534658E+03 -0.21628819066E+02 -0.29535284986E+03  0.31658161401E+03  0.00000000000E+00 0.  1.
</event>
<event>
 7    1  0.6219721E-006  0.8215700E+02  0.7818608E-02  0.1396229E+00
          2   -1    0    0  502    0  0.00000000000E+00  0.00000000000E+00  0.25856205880E+03  0.25856205880E+03  0.00000000000E+00 0. -1.
          1   -1    0    0  501    0 -0.00000000000E+00 -0.00000000000E+00 -0.16042022191E+04  0.16042022191E+04  0.00000000000E+00 0. -1.
         25    2    1    2    0    0  0.40189452908E+02 -0.83291409098E+01  0.10188872671E+03  0.16640581062E+03  0.12500005786E+03 0.  0.
          2    1    1    2  501    0 -0.82307427188E+02 -0.56608194993E+01 -0.15668657718E+04  0.15690362979E+04  0.00000000000E+00 0. -1.
          1    1    1    2  502    0  0.42117974280E+02  0.13989960409E+02  0.11933688475E+03  0.12732216937E+03  0.00000000000E+00 0. -1.
         22    1    3    3    0    0  0.82329989647E+02  0.14411383651E+02  0.67866685199E+02  0.10766523178E+03  0.00000000000E+00 0.  1.
         22    1    3    3    0    0 -0.42140536739E+02 -0.22740524560E+02  0.34022041508E+02  0.58740578839E+02  0.00000000000E+00 0.  1.
</event>
<event>
 7    1  0.6219721E-006  0.5277476E+02  0.7818608E-02  0.1503752E+00
          2   -1    0    0  502    0  0.00000000000E+00  0.00000000000E+00  0.20446683269E+03  0.20446683269E+03  0.00000000000E+00 0. -1.
          1   -1    0    0  501    0 -0.00000000000E+00 -0.00000000000E+00 -0.17773726505E+04  0.17773726505E+04  0.00000000000E+00 0. -1.
         25    2    1    2    0    0  0.20373777531E+02 -0.29023688856E+02  0.99146389522E+02  0.16344068015E+03  0.12500153618E+03 0.  0.
          2    1    1    2  501    0  0.31146765490E+02 -0.25768970536E+01 -0.17325799724E+04  0.17328618301E+04  0.00000000000E+00 0. -1.
          1    1    1    2  502    0 -0.51520543021E+02  0.31600585910E+02  0.60527765122E+02  0.85536972905E+02  0.00000000000E+00 0. -1.
         22    1    3    3    0    0 -0.31004728164E+01 -0.33567830343E+02  0.12426813383E+03  0.12875939286E+03  0.00000000000E+00 0.  1.
         22    1    3    3    0    0  0.23474250347E+02  0.45441414869E+01 -0.25121744306E+02  0.34681287291E+02  0.00000000000E+00 0.  1.
</event>
<event>
 7    1  0.6219721E-006  0.6092005E+02  0.7818608E-02  0.1400064E+00
          2   -1    0    0  502    0  0.00000000000E+00  0.00000000000E+00  0.58782987429E+03  0.58782987429E+03  0.00000000000E+00 0. -1.
          1   -1    0    0  501    0 -0.00000000000E+00 -0.00000000000E+00 -0.25790644589E+03  0.25790644589E+03  0.00000000000E+00 0. -1.
         25    2    1    2    0    0  0.31785208958E+02 -0.93610653739E+02  0.12851438960E+02  0.15988696845E+03  0.12500171676E+03 0.  0.
          2    1    1    2  501    0  0.15394650184E+02  0.55978488304E+02 -0.17794023339E+03  0.18717188108E+03  0.00000000000E+00 0. -1.
          1    1    1    2  502    0 -0.47179859142E+02  0.37632165436E+02  0.49501222283E+03  0.49867747065E+03  0.00000000000E+00 0. -1.
         22    1    3    3    0    0  0.24006957694E+01  0.25097104944E+02 -0.21204131950E+02  0.32943030044E+02  0.00000000000E+00 0.  1.
         22    1    3    3    0    0  0.29384513189E+02 -0.11870775868E+03  0.34055570910E+02  0.12694393840E+03  0.00000000000E+00 0.  1.
</event>
<event>
 7    1  0.6219721E-006  0.5616373E+02  0.7818608E-02  0.1453394E+00
          2   -1    0    0  502    0  0.00000000000E+00  0.00000000000E+00  0.65919106610E+03  0.65919106610E+03  0.00000000000E+00 0. -1.
          1   -1    0    0  501    0 -0.00000000000E+00 -0.00000000000E+00 -0.49422755109E+03  0.49422755109E+03  0.00000000000E+00 0. -1.
         25    2    1    2    0    0 -0.75128113216E+01  0.22329389583E+02  0.18628800978E+03  0.22557269149E+03  0.12499909035E+03 0.  0.
          2    1    1    2  501    0  0.22048697594E+02  0.35684195329E+02 -0.47167755455E+03  0.47353903992E+03  0.00000000000E+00 0. -1.
          1    1    1    2  502    0 -0.14535886272E+02 -0.58013584912E+02  0.45035305977E+03  0.45430688578E+03  0.00000000000E+00 0. -1.
         22    1    3    3    0    0  0.55031370277E+02  0.12453243510E+02  0.50394191165E+02  0.75651235890E+02  0.00000000000E+00 0.  1.
         22    1    3    3    0    0 -0.62544181599E+02  0.98761460728E+01  0.13589381861E+03  0.14992145560E+03  0.00000000000E+00 0.  1.
</event>
<event>
 7    1  0.6219721E-006  0.7741592E+02  0.7818608E-02  0.1432420E+00
          2   -1    0    0  502    0  0.00000000000E+00  0.00000000000E+00  0.29217047690E+03  0.29217047690E+03  0.00000000000E+00 0. -1.
          1   -1    0    0  501    0 -0.00000000000E+00 -0.00000000000E+00 -0.79158349107E+03  0.79158349107E+03  0.00000000000E+00 0. -1.
         25    2    1    2    0    0 -0.92830320751E+02 -0.45767991957E+02 -0.27700618951E+03  0.32104460989E+03  0.12500013989E+03 0.  0.
          2    1    1    2  501    0  0.35178752934E+02 -0.52768583004E+01 -0.48640836058E+03  0.48770737449E+03  0.00000000000E+00 0. -1.
          1    1    1    2  502    0  0.57651567817E+02  0.51044850258E+02  0.26400153592E+03  0.27500198359E+03  0.00000000000E+00 0. -1.
         22    1    3    3    0    0 -0.51120523131E+02  0.18706054954E+02 -0.21662234624E+03  0.22335725927E+03  0.00000000000E+00 0. -1.
         22    1    3    3    0    0 -0.41709797620E+02 -0.64474046911E+02 -0.60383843271E+02  0.97687350618E+02  0.00000000000E+00 0. -1.
</event>
<event>
 7    1  0.6219721E-006  0.8498510E+02  0.7818608E-02  0.1410911E+00
          2   -1    0    0  502    0  0.00000000000E+00  0.00000000000E+00  0.11042062328E+04  0.11042062328E+04  0.00000000000E+00 0. -1.
          1   -1    0    0  501    0 -0.00000000000E+00 -0.00000000000E+00 -0.15837882234E+03  0.15837882234E+03  0.00000000000E+00 0. -1.
         25    2    1    2    0    0 -0.62805010602E+02 -0.38141342765E+02  0.27014271375E+02  0.14749479800E+03  0.12500285275E+03 0.  0.
          2    1    1    2  501    0  0.17097254789E+02 -0.34180516400E+02 -0.92541835008E+02  0.10012299960E+03  0.00000000000E+00 0. -1.
          1    1    1    2  502    0  0.45707755812E+02  0.72321859165E+02  0.10113549741E+04  0.10149672575E+04  0.00000000000E+00 0. -1.
         22    1    3    3    0    0  0.85839418697E+01  0.38693231144E+02  0.20658392120E+01  0.39687754863E+02  0.00000000000E+00 0.  1.
         22    1    3    3    0    0 -0.71388952471E+02 -0.76834573909E+02  0.24948432163E+02  0.10780704314E+03  0.00000000000E+00 0.  1.
</event>
<event>
 7    1  0.6219721E-006  0.1240327E+03  0.7818608E-02  0.1266604E+00
          2   -1    0    0  502    0  0.00000000000E+00  0.00000000000E+00  0.94050994147E+03  0.94050994147E+03  0.00000000000E+00 0. -1.
          1   -1    0    0  501    0 -0.00000000000E+00 -0.00000000000E+00 -0.74557425579E+02  0.74557425579E+02  0.00000000000E+00 0. -1.
         25    2    1    2    0    0  0.56459701216E+02 -0.85719000370E+02  0.49911233334E+03  0.52466506377E+03  0.12499945184E+03 0.  0.
          2    1    1    2  501    0  0.91046880052E+02  0.12994836762E+02  0.40298430902E+01  0.92057806758E+02  0.00000000000E+00 0. -1.
          1    1    1    2  502    0 -0.14750658127E+03  0.72724163608E+02  0.36281033946E+03  0.39834449652E+03  0.00000000000E+00 0. -1.
         22    1    3    3    0    0  0.35491431012E+02 -0.11745818641E+03  0.40417536626E+03  0.42239057035E+03  0.00000000000E+00 0.  1.
         22    1    3    3    0    0  0.20968270204E+02  0.31739186037E+02  0.94936967082E+02  0.10227449342E+03  0.00000000000E+00 0.  1.
</event>
<event>
 7    1  0.6219721E-006  0.1059561E+03  0.7818608E-02  0.1435535E+00
          2   -1    0    0  502    0  0.00000000000E+00  0.00000000000E+00  0.47216734693E+03  0.47216734693E+03  0.00000000000E+00 0. -1.
          1   -1    0    0  501    0 -0.00000000000E+00 -0.00000000000E+00 -0.27155756466E+03  0.27155756466E+03  0.00000000000E+00 0. -1.
         25    2    1    2    0    0 -0.10816471259E+03  0.63327886697E+02 -0.11457599911E+02  0.17738770540E+03  0.12500038059E+03 0.  0.
          2    1    1    2  501    0  0.82955736893E+02 -0.60322034890E+02 -0.16182026538E+03  0.19158862300E+03  0.00000000000E+00 0. -1.
          1    1    1    2  502    0  0.25208975695E+02 -0.30058518071E+01  0.37388764756E+03  0.37474858318E+03  0.00000000000E+00 0. -1.
         22    1    3    3    0    0 -0.55049138515E+02 -0.25038855650E+02 -0.37355837025E+02  0.71083123900E+02  0.00000000000E+00 0. -1.
         22    1    3    3    0    0 -0.53115574074E+02  0.88366742348E+02  0.25898237113E+02  0.10630458150E+03  0.00000000000E+00 0. -1.
</event>
<event>
 7    1  0.6219721E-006  0.3023621E+02  0.7818608E-02  0.1640930E+00
          2   -1    0    0  502    0  0.00000000000E+00  0.00000000000E+00  0.12051548585E+04  0.12051548585E+04  0.00000000000E+00 0. -1.
          1   -1    0    0  501    0 -0.00000000000E+00 -0.00000000000E+00 -0.12644095182E+03  0.12644095182E+03  0.00000000000E+00 0. -1.
         25    2    1    2    0    0 -0.44968565469E+02  0.19889837764E+02  0.51144103859E+03  0.52878502152E+03  0.12499554196E+03 0.  0.
          2    1    1    2  501    0  0.23147733192E+02  0.14934234246E+00 -0.11630752236E+03  0.11858869935E+03  0.00000000000E+00 0. -1.
          1    1    1    2  502    0  0.21820832278E+02 -0.20039180106E+02  0.68358039045E+03  0.68422208944E+03  0.00000000000E+00 0. -1.
         22    1    3    3    0    0 -0.73477502322E+02 -0.24117396114E+02  0.23446719156E+03  0.24689158766E+03  0.00000000000E+00 0. -1.
         22    1    3    3    0    0  0.28508936853E+02  0.44007233877E+02  0.27697384703E+03  0.28189343386E+03  0.00000000000E+00 0. -1.
</event>
<event>
 7    1  0.6219721E-006  0.6492232E+02  0.7818608E-02  0.1402238E+00
          2   -1    0    0  502    0  0.00000000000E+00  0.00000000000E+00  0.90766042045E+03  0.90766042045E+03  0.00000000000E+00 0. -1.
          1   -1    0    0  501    0 -0.00000000000E+00 -0.00000000000E+00 -0.16276203654E+03  0.16276203654E+03  0.00000000000E+00 0. -1.
         25    2    1    2    0    0  0.42007137120E+02 -0.10668100818E+02  0.61933027389E+03  0.63330422302E+03  0.12500337110E+03 0.  0.
          2    1    1    2  501    0  0.29122533685E+02 -0.44938159292E+02 -0.14357452808E+03  0.15323578317E+03  0.00000000000E+00 0. -1.
          1    1    1    2  502    0 -0.71129670806E+02  0.55606260110E+02  0.26914263810E+03  0.28388245080E+03  0.00000000000E+00 0. -1.
         22    1    3    3    0    0  0.78677025948E+02  0.20583969780E+02  0.44831244664E+03  0.45562904213E+03  0.00000000000E+00 0.  1.
         22    1    3    3    0    0 -0.36669888828E+02 -0.31252070598E+02  0.17101782725E+03  0.17767518088E+03  0.00000000000E+00 0.  1.
</event>
<event>
 7    1  0.6219721E-006  0.4626653E+02  0.7818608E-02  0.1531978E+00
          2   -1    0    0  502    0  0.00000000000E+00  0.00000000000E+00  0.98123896227E+02  0.98123896227E+02  0.00000000000E+00 0. -1.
          1   -1    0    0  501    0 -0.00000000000E+00 -0.00000000000E+00 -0.22776996927E+04  0.22776996927E+04  0.00000000000E+00 0. -1.
         25    2    1    2    0    0 -0.55919532968E+02 -0.32414008064E+02 -0.18397855455E+04  0.18451596069E+04  0.12500183744E+03 0.  0.
          2    1    1    2  501    0  0.29040210202E+02 -0.51961193662E+01 -0.42909277672E+03  0.43010573642E+03  0.00000000000E+00 0. -1.
          1    1    1    2  502    0  0.26879322766E+02  0.37610127430E+02  0.89302525697E+02  0.10055824568E+03  0.00000000000E+00 0. -1.
         22    1    3    3    0    0 -0.30494812827E+02 -0.79396271561E+02 -0.12835297062E+04  0.12863445138E+04  0.00000000000E+00 0.  1.
         22    1    3    3    0    0 -0.25424720141E+02  0.46982263498E+02 -0.55625583931E+03  0.55881509307E+03  0.00000000000E+00 0.  1.
</event>
<event>
 7    1  0.6219721E-006  0.7399810E+02  0.7818608E-02  0.1434401E+00
          2   -1    0    0  502    0  0.00000000000E+00  0.00000000000E+00  0.20019205204E+03  0.20019205204E+03  0.00000000000E+00 0. -1.
          1   -1    0    0  501    0 -0.00000000000E+00 -0.00000000000E+00 -0.18245865349E+03  0.18245865349E+03  0.00000000000E+00 0. -1.
         25    2    1    2    0    0  0.45653544226E+02 -0.57915350975E+02 -0.67408624762E+02  0.16002202666E+03  0.12499876938E+03 0.  0.
          2    1    1    2  501    0 -0.33115184911E+02 -0.15734975240E+02 -0.53664855569E+02  0.64993243040E+02  0.00000000000E+00 0. -1.
          1    1    1    2  502    0 -0.12538359315E+02  0.73650326215E+02  0.13880687888E+03  0.15763543583E+03  0.00000000000E+00 0. -1.
         22    1    3    3    0    0  0.32658951722E+02 -0.79744054572E+02 -0.91019242594E+02  0.12534043198E+03  0.00000000000E+00 0.  1.
         22    1    3    3    0    0  0.12994592505E+02  0.21828703597E+02  0.23610617832E+02  0.34681594679E+02  0.00000000000E+00 0.  1.
</event>
<event>
 7    1  0.6219721E-006  0.1365036E+03  0.7818608E-02  0.1330716E+00
          2   -1    0    0  502    0  0.00000000000E+00  0.00000000000E+00  0.39889039838E+03  0.39889039838E+03  0.00000000000E+00 0. -1.
          1   -1    0    0  501    0 -0.00000000000E+00 -0.00000000000E+00 -0.64562395066E+03  0.64562395066E+03  0.00000000000E+00 0. -1.
         25    2    1    2    0    0 -0.51907540355E+02 -0.82356984747E+02  0.14085710436E+03  0.21199855429E+03  0.12500238993E+03 0.  0.
          2    1    1    2  501    0  0.51060951250E+02  0.12855262342E+03 -0.59969340491E+03  0.61543901210E+03  0.00000000000E+00 0. -1.
          1    1    1    2  502    0  0.84658910482E+00 -0.46195638668E+02  0.21210274827E+03  0.21707678266E+03  0.00000000000E+00 0. -1.
         22    1    3    3    0    0 -0.17185836544E+02 -0.10829169261E+03  0.12392882415E+03  0.16547143899E+03  0.00000000000E+00 0. -1.
         22    1    3    3    0    0 -0.34721703811E+02  0.25934707859E+02  0.16928280209E+02  0.46527115299E+02  0.00000000000E+00 0. -1.
</event>
<event>
 7    1  0.6219721E-006  0.9596772E+02  0.7818608E-02  0.1360525E+00
          2   -1    0    0  502    0  0.00000000000E+00  0.00000000000E+00  0.88757034138E+03  0.88757034138E+03  0.00000000000E+00 0. -1.
          1   -1    0    0  501    0 -0.00000000000E+00 -0.00000000000E+00 -0.33049685479E+04  0.33049685479E+04  0.00000000000E+00 0. -1.
         25    2    1    2    0    0  0.11108060456E+03  0.81587869700E+02 -0.12639831615E+03  0.22493792609E+03  0.12500022031E+03 0.  0.
          2    1    1    2  501    0 -0.50217662574E+02 -0.81460367583E+01 -0.31263795806E+04  0.31267934779E+04  0.00000000000E+00 0. -1.
          1    1    1    2  502    0 -0.60862941988E+02 -0.73441832942E+02  0.83537969020E+03  0.84080748530E+03  0.00000000000E+00 0. -1.
         22    1    3    3    0    0 -0.13133763222E+02 -0.20909071221E+02 -0.12404542368E+02  0.27632547241E+02  0.00000000000E+00 0.  1.
         22    1    3    3    0    0  0.12421436778E+03  0.10249694092E+03 -0.11399377378E+03  0.19730537885E+03  0.00000000000E+00 0.  1.
</event>
<event>
 7    1  0.6219721E-006  0.1409608E+03  0.7818608E-02  0.1331076E+00
          2   -1    0    0  502    0  0.00000000000E+00  0.00000000000E+00  0.17264944499E+04  0.17264944499E+04  0.00000000000E+00 0. -1.
          1   -1    0    0  501    0 -0.00000000000E+00 -0.00000000000E+00 -0.95078612662E+03  0.95078612662E+03  0.00000000000E+00 0. -1.
         25    2    1    2    0    0 -0.16059156521E+03  0.83757680755E+02  0.13330452145E+03  0.25728503135E+03  0.12498196676E+03 0.  0.
          2    1    1    2  501    0  0.32024761671E+02 -0.31043631075E+02 -0.88508071384E+03  0.88620379281E+03  0.00000000000E+00 0. -1.
          1    1    1    2  502    0  0.12856680354E+03 -0.52714049680E+02  0.15274845157E+04  0.15337917524E+04  0.00000000000E+00 0. -1.
         22    1    3    3    0    0  0.82802482767E+00  0.13190129885E+02 -0.19851241948E+02  0.23848206607E+02  0.00000000000E+00 0. -1.
         22    1    3    3    0    0 -0.16141959004E+03  0.70567550870E+02  0.15315576340E+03  0.23343682475E+03  0.00000000000E+00 0. -1.
</event>
<event>
 7    1  0.6219721E-006  0.1857029E+03  0.7818608E-02  0.1164763E+00
          2   -1    0    0  502    0  0.00000000000E+00  0.00000000000E+00  0.24463152284E+04  0.24463152284E+04  0.00000000000E+00 0. -1.
          1   -1    0    0  501    0 -0.00000000000E+00 -0.00000000000E+00 -0.11100019193E+04  0.11100019193E+04  0.00000000000E+00 0. -1.
         25    2    1    2    0    0  0.19299686140E+02  0.25807559633E+02  0.49144583005E+02  0.13812241358E+03  0.12499641225E+03 0.  0.
          2    1    1    2  501    0  0.25711232136E+02 -0.20079818725E+03 -0.10523826644E+04  0.10716763746E+04  0.00000000000E+00 0. -1.
          1    1    1    2  502    0 -0.45010918276E+02  0.17499062761E+03  0.23395513905E+04  0.23465183595E+04  0.00000000000E+00 0. -1.
         22    1    3    3    0    0  0.25117546286E+02 -0.16302477324E+02 -0.33654920115E+02  0.45047924995E+02  0.00000000000E+00 0.  1.
         22    1    3    3    0    0 -0.58178601460E+01  0.42110036958E+02  0.82799503120E+02  0.93074488590E+02  0.00000000000E+00 0.  1.
</event>
<event>
 7    1  0.6219721E-006  0.5984566E+02  0.7818608E-02  0.1472452E+00
          2   -1    0    0  502    0  0.00000000000E+00  0.00000000000E+00  0.31893808353E+04  0.31893808353E+04  0.00000000000E+00 0. -1.
          1   -1    0    0  501    0 -0.00000000000E+00 -0.00000000000E+00 -0.92407435687E+02  0.92407435687E+02  0.00000000000E+00 0. -1.
         25    2    1    2    0    0 -0.67629474545E+02 -0.64953856399E+02  0.13561000541E+04  0.13650731597E+04  0.12499850125E+03 0.  0.
          2    1    1    2  501    0  0.44533563428E+02  0.39600470646E+02 -0.77642207743E+02  0.97876186942E+02  0.00000000000E+00 0. -1.
          1    1    1    2  502    0  0.23095911118E+02  0.25353385753E+02  0.18185155533E+04  0.18188389243E+04  0.00000000000E+00 0. -1.
         22    1    3    3    0    0 -0.23362464796E+02  0.16334480528E+02  0.85631279180E+03  0.85678714826E+03  0.00000000000E+00 0.  1.
         22    1    3    3    0    0 -0.44267009749E+02 -0.81288336928E+02  0.49978726226E+03  0.50828601140E+03  0.00000000000E+00 0.  1.
</event>
<event>
 7    1  0.6219721E-006  0.1341253E+03  0.7818608E-02  0.1247830E+00
          2   -1    0    0  502    0  0.00000000000E+00  0.00000000000E+00  0.34889137531E+03  0.34889137531E+03  0.00000000000E+00 0. -1.
          1   -1    0    0  501    0 -0.00000000000E+00 -0.00000000000E+00 -0.39570241682E+03  0.39570241682E+03  0.00000000000E+00 0. -1.
         25    2    1    2    0    0  0.63852062651E+01  0.55359953607E+02 -0.54782951038E+02  0.14739703398E+03  0.12497687218E+03 0.  0.
          2    1    1    2  501    0 -0.54478785510E+02  0.86667507220E+02 -0.26592061833E+03  0.28494380171E+03  0.00000000000E+00 0. -1.
          1    1    1    2  502    0  0.48093579244E+02 -0.14202746083E+03  0.27389252786E+03  0.31225295645E+03  0.00000000000E+00 0. -1.
         22    1    3    3    0    0 -0.69389557528E+01 -0.39751586892E+02 -0.21707185859E+02  0.45820734228E+02  0.00000000000E+00 0.  1.
         22    1    3    3    0    0  0.13324162018E+02  0.95111540499E+02 -0.33075765180E+02  0.10157629975E+03  0.00000000000E+00 0.  1.
</event>
<event>
 7    1  0.6219721E-006  0.1638330E+03  0.7818608E-02  0.1236604E+00
          2   -1    0    0  502    0  0.00000000000E+00  0.00000000000E+00  0.52419224620E+03  0.52419224620E+03  0.00000000000E+00 0. -1.
          1   -1    0    0  501    0 -0.00000000000E+00 -0.00000000000E+00 -0.42858870369E+03  0.42858870369E+03  0.00000000000E+00 0. -1.
         25    2    1    2    0    0 -0.12225532801E+03  0.15813179510E+03 -0.18895260810E+03  0.30212539360E+03  0.12499854201E+03 0.  0.
          2    1    1    2  501    0 -0.25892228365E+02 -0.90245624527E+02 -0.15536048194E+03  0.18152564442E+03  0.00000000000E+00 0. -1.
          1    1    1    2  502    0  0.14814755637E+03 -0.67886170577E+02  0.43991663255E+03  0.46912991187E+03  0.00000000000E+00 0. -1.
         22    1    3    3    0    0 -0.28926646199E+02  0.26321441687E+02  0.15072035464E+02  0.41913427512E+02  0.00000000000E+00 0. -1.
         22    1    3    3    0    0 -0.93328681806E+02  0.13181035342E+03 -0.20402464356E+03  0.26021196609E+03  0.00000000000E+00 0. -1.
</event>
<event>
 7    1  0.6219721E-006  0.7542219E+02  0.7818608E-02  0.1418319E+00
          2   -1    0    0  502    0  0.00000000000E+00  0.00000000000E+00  0.17356894867E+04  0.17356894867E+04  0.00000000000E+00 0. -1.
          1   -1    0    0  501    0 -0.00000000000E+00 -0.00000000000E+00 -0.27289821713E+03  0.27289821713E+03  0.00000000000E+00 0. -1.
         25    2    1    2    0    0 -0.53365330018E+02  0.99867977228E+02  0.20343478861E+02  0.16990516176E+03  0.12502973861E+03 0.  0.
          2    1    1    2  501    0  0.37100801156E+02 -0.62601705926E+02 -0.19117365433E+03  0.20455514939E+03  0.00000000000E+00 0. -1.
          1    1    1    2  502    0  0.16264528862E+02 -0.37266271302E+02  0.16336214450E+04  0.16341273927E+04  0.00000000000E+00 0. -1.
         22    1    3    3    0    0 -0.40514614515E+02 -0.17812462566E+02 -0.14384534181E+02  0.46536358211E+02  0.00000000000E+00 0.  1.
         22    1    3    3    0    0 -0.12850715503E+02  0.11768043979E+03  0.34728013042E+02  0.12336880355E+03  0.00000000000E+00 0.  1.
</event>
<event>
 7    1  0.6219721E-006  0.1211522E+03  0.7818608E-02  0.1319908E+00
          2   -1    0    0  502    0  0.00000000000E+00  0.00000000000E+00  0.57040783596E+03  0.57040783596E+03  0.00000000000E+00 0. -1.
          1   -1    0    0  501    0 -0.00000000000E+00 -0.00000000000E+00 -0.64462229131E+03  0.64462229131E+03  0.00000000000E+00 0. -1.
         25    2    1    2    0    0 -0.65470112742E+02  0.40355341260E+02 -0.12924959071E+03  0.19555944935E+03  0.12499260899E+03 0.  0.
          2    1    1    2  501    0  0.10766177688E+03 -0.79110994706E+02 -0.47137980297E+03  0.48994747304E+03  0.00000000000E+00 0. -1.
          1    1    1    2  502    0 -0.42191664136E+02  0.38755653446E+02  0.52641493834E+03  0.52952320488E+03  0.00000000000E+00 0. -1.
         22    1    3    3    0    0  0.20889718275E+02 -0.21286949353E+02 -0.20191730062E+01  0.29893002559E+02  0.00000000000E+00 0.  1.
         22    1    3    3    0    0 -0.86359831017E+02  0.61642290613E+02 -0.12723041770E+03  0.16566644680E+03  0.00000000000E+00 0.  1.
</event>
<event>
 7    1  0.6219721E-006  0.7011222E+02  0.7818608E-02  0.1397996E+00
          2   -1    0    0  502    0  0.00000000000E+00  0.00000000000E+00  0.13861627462E+04  0.13861627462E+04  0.00000000000E+00 0. -1.
          1   -1    0    0  501    0 -0.00000000000E+00 -0.00000000000E+00 -0.74171230611E+03  0.74171230611E+03  0.00000000000E+00 0. -1.
         25    2    1    2    0    0 -0.62284075217E+02 -0.35044616603E+02  0.16748655561E+03  0.22087041526E+03  0.12499825139E+03 0.  0.
          2    1    1    2  501    0  0.39978373401E+02 -0.32113835251E+02 -0.71304849943E+03  0.71489001342E+03  0.00000000000E+00 0. -1.
          1    1    1    2  502    0  0.22305701816E+02  0.67158451854E+02  0.11900123839E+04  0.11921146236E+04  0.00000000000E+00 0. -1.
         22    1    3    3    0    0  0.29284099147E+02  0.21524113812E+02  0.43423867795E+02  0.56625773571E+02  0.00000000000E+00 0. -1.
         22    1    3    3    0    0 -0.91568174364E+02 -0.56568730415E+02  0.12406268781E+03  0.16424464169E+03  0.00000000000E+00 0. -1.
</event>
<event>
 7    1  0.6219721E-006  0.1016309E+03  0.7818608E-02  0.1359292E+00
          2   -1    0    0  502    0  0.00000000000E+00  0.00000000000E+00  0.70212536199E+03  0.70212536199E+03  0.00000000000E+00 0. -1.
          1   -1    0    0  501    0 -0.00000000000E+00 -0.00000000000E+00 -0.54651987674E+03  0.54651987674E+03  0.00000000000E+00 0. -1.
         25    2    1    2    0    0 -0.95454771821E+02  0.20050944930E+02 -0.24643622323E+03  0.29303377832E+03  0.12499731701E+03 0.  0.
          2    1    1    2  501    0  0.17359501077E+02  0.45329226775E+02 -0.27079436662E+03  0.27511030528E+03  0.00000000000E+00 0. -1.
          1    1    1    2  502    0  0.78095270744E+02 -0.65380171705E+02  0.67283607510E+03  0.68050115512E+03  0.00000000000E+00 0. -1.
         22    1    3    3    0    0 -0.62076245915E+02  0.48361539500E+02 -0.23495892893E+03  0.24778619229E+03  0.00000000000E+00 0. -1.
         22    1    3    3    0    0 -0.33378525906E+02 -0.28310594571E+02 -0.11477294306E+02  0.45247586026E+02  0.00000000000E+00 0. -1.
</event>
<event>
 7    1  0.6219721E-006  0.1951211E+03  0.7818608E-02  0.1307873E+00
          2   -1    0    0  502    0  0.00000000000E+00  0.00000000000E+00  0.54620092410E+03  0.54620092410E+03  0.00000000000E+00 0. -1.
          1   -1    0    0  501    0 -0.00000000000E+00 -0.00000000000E+00 -0.14645753147E+04  0.14645753147E+04  0.00000000000E+00 0. -1.
         25    2    1    2    0    0  0.86442111419E+02 -0.18031600862E+03 -0.75628642695E+03  0.79219941664E+03  0.12499861818E+03 0.  0.
          2    1    1    2  501    0 -0.11629089012E+03  0.15421588977E+03 -0.67604362978E+03  0.70309394902E+03  0.00000000000E+00 0. -1.
          1    1    1    2  502    0  0.29848778698E+02  0.26100118850E+02  0.51395566611E+03  0.51548287316E+03  0.00000000000E+00 0. -1.
         22    1    3    3    0    0  0.96921936981E+02 -0.10813486573E+03 -0.62854524123E+03  0.64510164419E+03  0.00000000000E+00 0.  1.
         22    1    3    3    0    0 -0.10479825561E+02 -0.72181142892E+02 -0.12774118571E+03  0.14709777245E+03  0.00000000000E+00 0.  1.
</event>
<event>
 7    1  0.6219721E-006  0.9860102E+02  0.7818608E-02  0.1475305E+00
          2   -1    0    0  502    0  0.00000000000E+00  0.00000000000E+00  0.26035850442E+04  0.26035850442E+04  0.00000000000E+00 0. -1.
          1   -1    0    0  501    0 -0.00000000000E+00 -0.00000000000E+00 -0.14944568388E+03  0.14944568388E+03  0.00000000000E+00 0. -1.
         25    2    1    2    0    0 -0.15647971509E+02  0.85405820626E+02  0.46830508628E+03  0.49241571201E+03  0.12499826555E+03 0.  0.
          2    1    1    2  501    0  0.14400364482E+02  0.14445294170E+02 -0.13545225228E+03  0.13697937680E+03  0.00000000000E+00 0. -1.
          1    1    1    2  502    0  0.12476070269E+01 -0.99851114796E+02  0.21212865263E+04  0.21236356393E+04  0.00000000000E+00 0. -1.
         22    1    3    3    0    0 -0.18049977985E+02 -0.19997362144E+02  0.25020321912E+02  0.36765645739E+02  0.00000000000E+00 0. -1.
         22    1    3    3    0    0  0.24020064760E+01  0.10540318277E+03  0.44328476436E+03  0.45565006627E+03  0.00000000000E+00 0. -1.
</event>
<event>
 7    1  0.6219721E-006  0.1337447E+03  0.7818608E-02  0.1410709E+00
          2   -1    0    0  502    0  0.00000000000E+00  0.00000000000E+00  0.40201647677E+03  0.40201647677E+03  0.00000000000E+00 0. -1.
          1   -1    0    0  501    0 -0.00000000000E+00 -0.00000000000E+00 -0.59940045702E+03  0.59940045702E+03  0.00000000000E+00 0. -1.
         25    2    1    2    0    0 -0.35415569952E+02  0.12328786011E+03 -0.27618988751E+03  0.32918029373E+03  0.12499861108E+03 0.  0.
          2    1    1    2  501    0  0.15263323831E+02 -0.13690800199E+03 -0.28029272265E+03  0.31231519405E+03  0.00000000000E+00 0. -1.
          1    1    1    2  502    0  0.20152246122E+02  0.13620141887E+02  0.35909862992E+03  0.35992144601E+03  0.00000000000E+00 0. -1.
         22    1    3    3    0    0 -0.32080487430E+02  0.43741235121E+02 -0.15224779738E+02  0.56340458303E+02  0.00000000000E+00 0. -1.
         22    1    3    3    0    0 -0.33350825220E+01  0.79546624986E+02 -0.26096510777E+03  0.27283983543E+03  0.00000000000E+00 0. -1.
</event>
<event>
 7    1  0.6219721E-006  0.1786399E+03  0.7818608E-02  0.1204929E+00
          2   -1    0    0  502    0  0.00000000000E+00  0.00000000000E+00  0.55220838135E+03  0.55220838135E+03  0.00000000000E+00 0. -1.
          1   -1    0    0  501    0 -0.00000000000E+00 -0.00000000000E+00 -0.72845072565E+03  0.72845072565E+03  0.00000000000E+00 0. -1.
         25    2    1    2    0    0 -0.13144851853E+02  0.15565756654E+03 -0.14581180038E+03  0.24756411976E+03  0.12499938844E+03 0.  0.
          2    1    1    2  501    0  0.11986565628E+03 -0.62484302613E+01 -0.50771588097E+03  0.52171087225E+03  0.00000000000E+00 0. -1.
          1    1    1    2  502    0 -0.10672080443E+03 -0.14940913628E+03  0.47728533705E+03  0.51138411499E+03  0.00000000000E+00 0. -1.
         22    1    3    3    0    0 -0.13407519235E+02  0.41962109572E+02  0.18477260424E+02  0.47770172331E+02  0.00000000000E+00 0.  1.
         22    1    3    3    0    0  0.26266738134E+00  0.11369545697E+03 -0.16428906080E+03  0.19979394743E+03  0.00000000000E+00 0.  1.
</event>
<event>
 7    1  0.6219721E-006  0.8962503E+02  0.7818608E-02  0.1325228E+00
          2   -1    0    0  502    0  0.00000000000E+00  0.00000000000E+00  0.60712407550E+03  0.60712407550E+03  0.00000000000E+00 0. -1.
          1   -1    0    0  501    0 -0.00000000000E+00 -0.00000000000E+00 -0.25883304730E+04  0.25883304730E+04  0.00000000000E+00 0. -1.
         25    2    1    2    0    0 -0.35867915167E+02 -0.12260759139E+02 -0.67345114663E+03  0.68600101379E+03  0.12499644185E+03 0.  0.
          2    1    1    2  501    0  0.98733986629E+02 -0.26513652095E+02 -0.19049586346E+04  0.19076998646E+04  0.00000000000E+00 0. -1.
          1    1    1    2  502    0 -0.62866071462E+02  0.38774411234E+02  0.59720338375E+03  0.60175367009E+03  0.00000000000E+00 0. -1.
         22    1    3    3    0    0  0.88452235172E+01 -0.60049555081E+02 -0.41386205338E+03  0.41828935712E+03  0.00000000000E+00 0.  1.
         22    1    3    3    0    0 -0.44713138684E+02  0.47788795943E+02 -0.25958909325E+03  0.26771165668E+03  0.00000000000E+00 0.  1.
</event>
<event>
 7    1  0.6219721E-006  0.5134555E+02  0.7818608E-02  0.1442348E+00
          2   -1    0    0  502    0  0.00000000000E+00  0.00000000000E+00  0.14361904283E+03  0.14361904283E+03  0.00000000000E+00 0. -1.
          1   -1    0    0  501    0 -0.00000000000E+00 -0.00000000000E+00 -0.13198759552E+04  0.13198759552E+04  0.00000000000E+00 0. -1.
         25    2    1    2    0    0  0.30796619366E+00 -0.57904888664E+01 -0.43678532580E+02  0.13256147530E+03  0.12502442130E+03 0.  0.
          2    1    1    2  501    0  0.16385126890E+02 -0.47011403400E+02 -0.12234797212E+04  0.12244922101E+04  0.00000000000E+00 0. -1.
          1    1    1    2  502    0 -0.16693093083E+02  0.52801892266E+02  0.90901341357E+02  0.10644131268E+03  0.00000000000E+00 0. -1.
         22    1    3    3    0    0 -0.43552068073E+01 -0.31460155380E+02  0.36418766241E+02  0.48322207497E+02  0.00000000000E+00 0. -1.
         22    1    3    3    0    0  0.46631730009E+01  0.25669666514E+02 -0.80097298821E+02  0.84239267802E+02  0.00000000000E+00 0. -1.
</event>
<event>
 7    1  0.7073515E-006  0.4058689E+02  0.7818608E-02  0.1539473E+00
          2   -1    0    0  502    0  0.00000000000E+00  0.00000000000E+00  0.23538906839E+04  0.23538906839E+04  0.00000000000E+00 0. -1.
          1   -1    0    0  501    0 -0.00000000000E+00 -0.00000000000E+00 -0.26951933677E+04  0.26951933677E+04  0.00000000000E+00 0. -1.
         25    2    1    2    0    0 -0.84316024109E+01 -0.36910092005E+01 -0.41617276513E+03  0.43464452440E+03  0.12502550415E+03 0.  0.
          2    1    1    2  501    0  0.37920050791E+02  0.16167819193E+02 -0.22694882201E+04  0.22698625750E+04  0.00000000000E+00 0. -1.
          1    1    1    2  502    0 -0.29488448380E+02 -0.12476809992E+02  0.23443583014E+04  0.23445769522E+04  0.00000000000E+00 0. -1.
         22    1    3    3    0    0  0.40809269317E+02  0.16263888323E+02 -0.59091994108E+02  0.73632698533E+02  0.00000000000E+00 0. -1.
         22    1    3    3    0    0 -0.49240871728E+02 -0.19954897524E+02 -0.35708077102E+03  0.36101182587E+03  0.00000000000E+00 0. -1.
</event>
<event>
 7    1  0.6219721E-006  0.6768814E+02  0.7818608E-02  0.1371995E+00
          2   -1    0    0  502    0  0.00000000000E+00  0.00000000000E+00  0.84246401534E+03  0.84246401534E+03  0.00000000000E+00 0. -1.
          1   -1    0    0  501    0 -0.00000000000E+00 -0.00000000000E+00 -0.68791270796E+03  0.68791270796E+03  0.00000000000E+00 0. -1.
         25    2    1    2    0    0  0.28311416864E+02 -0.17559650750E+01  0.11199278632E+03  0.17020943558E+03  0.12499699209E+03 0.  0.
          2    1    1    2  501    0  0.34536807939E+01  0.65469112121E+02 -0.65535800927E+03  0.65862907077E+03  0.00000000000E+00 0. -1.
          1    1    1    2  502    0 -0.31765097658E+02 -0.63713147046E+02  0.69791653033E+03  0.70153821695E+03  0.00000000000E+00 0. -1.
         22    1    3    3    0    0  0.62495610850E+02 -0.23359653501E+02  0.11129940870E+03  0.12976491500E+03  0.00000000000E+00 0.  1.
         22    1    3    3    0    0 -0.34184193986E+02  0.21603688426E+02  0.69337762032E+00  0.40444520576E+02  0.00000000000E+00 0.  1.
</event>
<event>
 7    1  0.6219721E-006  0.2116333E+03  0.7818608E-02  0.1252402E+00
          2   -1    0    0  502    0  0.00000000000E+00  0.00000000000E+00  0.52463794226E+03  0.52463794226E+03  0.00000000000E+00 0. -1.
          1   -1    0    0  501    0 -0.00000000000E+00 -0.00000000000E+00 -0.19901147098E+03  0.19901147098E+03  0.00000000000E+00 0. -1.
         25    2    1    2    0    0  0.95071804906E+02 -0.15417239692E+03 -0.55147426080E+02  0.22687977150E+03  0.12500166419E+03 0.  0.
          2    1    1    2  501    0  0.61963725598E+02  0.14907707314E+01  0.54606318503E+01  0.62221734044E+02  0.00000000000E+00 0. -1.
          1    1    1    2  502    0 -0.15703553050E+03  0.15268162619E+03  0.37531326551E+03  0.43454790770E+03  0.00000000000E+00 0. -1.
         22    1    3    3    0    0  0.69001815225E+02 -0.17264489701E+03 -0.58106463052E+02  0.19479186846E+03  0.00000000000E+00 0.  1.
         22    1    3    3    0    0  0.26069989680E+02  0.18472500093E+02  0.29590369718E+01  0.32087903039E+02  0.00000000000E+00 0.  1.
</event>
<event>
 7    1  0.6219721E-006  0.6317157E+02  0.7818608E-02  0.1439180E+00
          2   -1    0    0  502    0  0.00000000000E+00  0.00000000000E+00  0.11180456917E+04  0.11180456917E+04  0.00000000000E+00 0. -1.
          1   -1    0    0  501    0 -0.00000000000E+00 -0.00000000000E+00 -0.10865298204E+04  0.10865298204E+04  0.00000000000E+00 0. -1.
         25    2    1    2    0    0  0.32491523721E+02 -0.61691978091E+01 -0.15504635410E+03  0.20188662096E+03  0.12500031076E+03 0.  0.
          2    1    1    2  501    0 -0.59994193627E+02 -0.24820168226E+02 -0.90650980003E+03  0.90883186651E+03  0.00000000000E+00 0. -1.
          1    1    1    2  502    0  0.27502669906E+02  0.30989366035E+02  0.10930720254E+04  0.10938570246E+04  0.00000000000E+00 0. -1.
         22    1    3    3    0    0 -0.14397694241E+02  0.52347200848E+02 -0.67082629959E+02  0.86299491761E+02  0.00000000000E+00 0. -1.
         22    1    3    3    0    0  0.46889217962E+02 -0.58516398657E+02 -0.87963724139E+02  0.11558712920E+03  0.00000000000E+00 0. -1.
</event>
<event>
 7    1  0.6219721E-006  0.2783096E+03  0.7818608E-02  0.1251176E+00
          2   -1    0    0  502    0  0.00000000000E+00  0.00000000000E+00  0.51274078876E+03  0.51274078876E+03  0.00000000000E+00 0. -1.
          1   -1    0    0  501    0 -0.00000000000E+00 -0.00000000000E+00 -0.36506098468E+04  0.36506098468E+04  0.00000000000E+00 0. -1.
         25    2    1    2    0    0 -0.12814282172E+03 -0.22611037968E+03 -0.18484954654E+04  0.18708569785E+04  0.12499544836E+03 0.  0.
          2    1    1    2  501    0 -0.46834622564E+02  0.91031139012E+01 -0.17518499594E+04  0.17524995375E+04  0.00000000000E+00 0. -1.
          1    1    1    2  502    0  0.17497744428E+03  0.21700726578E+03  0.46247636671E+03  0.53999411958E+03  0.00000000000E+00 0. -1.
         22    1    3    3    0    0 -0.13776742859E+03 -0.16554448557E+03 -0.16208358973E+04  0.16350822141E+04  0.00000000000E+00 0.  1.
         22    1    3    3    0    0  0.96246068735E+01 -0.60565894106E+02 -0.22765956811E+03  0.23577476442E+03  0.00000000000E+00 0.  1.
</event>
<event>
 7    1  0.6219721E-006  0.7331704E+02  0.7818608E-02  0.1427997E+00
          2   -1    0    0  502    0  0.00000000000E+00  0.00000000000E+00  0.12649658153E+04  0.12649658153E+04  0.00000000000E+00 0. -1.
          1   -1    0    0  501    0 -0.00000000000E+00 -0.00000000000E+00 -0.57000364546E+02  0.57000364546E+02  0.00000000000E+00 0. -1.
         25    2    1    2    0    0 -0.10483874038E+03  0.29481630216E+02  0.35518032986E+03  0.39196868209E+03  0.12500421198E+03 0.  0.
          2    1    1    2  501    0  0.66744269953E+02 -0.21900994178E+02 -0.58458293791E+01  0.70488473091E+02  0.00000000000E+00 0. -1.
          1    1    1    2  502    0  0.38094470431E+02 -0.75806360378E+01  0.85863095026E+03  0.85950902465E+03  0.00000000000E+00 0. -1.
         22    1    3    3    0    0 -0.36735806392E+02 -0.21844498395E+02  0.22042820583E+02  0.48089370142E+02  0.00000000000E+00 0.  1.
         22    1    3    3    0    0 -0.68102933993E+02  0.51326128611E+02  0.33313750928E+03  0.34387931195E+03  0.00000000000E+00 0.  1.
</event>
<event>
 7    1  0.6219721E-006  0.6500655E+02  0.7818608E-02  0.1492853E+00
          2   -1    0    0  502    0  0.00000000000E+00  0.00000000000E+00  0.10840038016E+03  0.10840038016E+03  0.00000000000E+00 0. -1.
          1   -1    0    0  501    0 -0.00000000000E+00 -0.00000000000E+00 -0.26981275070E+04  0.26981275070E+04  0.00000000000E+00 0. -1.
         25    2    1    2    0    0  0.27134767562E+02 -0.38240261839E+02 -0.12626981503E+04  0.12697360877E+04  0.12499800166E+03 0.  0.
          2    1    1    2  501    0 -0.24101182191E+02  0.65421744085E+02 -0.14292630372E+04  0.14309625086E+04  0.00000000000E+00 0. -1.
          1    1    1    2  502    0 -0.30335853710E+01 -0.27181482246E+02  0.10223406071E+03  0.10582929078E+03  0.00000000000E+00 0. -1.
         22    1    3    3    0    0  0.53176692575E+02 -0.19675137801E+01 -0.23009969689E+03  0.23617261114E+03  0.00000000000E+00 0.  1.
         22    1    3    3    0    0 -0.26041925013E+02 -0.36272748059E+02 -0.10325984534E+04  0.10335634765E+04  0.00000000000E+00 0.  1.
</event>
<event>
 7    1  0.6219721E-006  0.6889444E+02  0.7818608E-02  0.1405395E+00
          2   -1    0    0  502    0  0.00000000000E+00  0.00000000000E+00  0.45231133248E+02  0.45231133248E+02  0.00000000000E+00 0. -1.
          1   -1    0    0  501    0 -0.00000000000E+00 -0.00000000000E+00 -0.12364048091E+04  0.12364048091E+04  0.00000000000E+00 0. -1.
         25    2    1    2    0    0 -0.25499487675E+02  0.77906059349E+02 -0.29102894273E+03  0.32717608549E+03  0.12500706962E+03 0.  0.
          2    1    1    2  501    0 -0.22111026689E+02 -0.65409039214E+02 -0.90254107007E+03  0.90517822724E+03  0.00000000000E+00 0. -1.
          1    1    1    2  502    0  0.47610514364E+02 -0.12497020135E+02  0.23963369139E+01  0.49281629649E+02  0.00000000000E+00 0. -1.
         22    1    3    3    0    0 -0.28871046170E+02  0.39245622319E+02 -0.28348648954E+03  0.28764274010E+03  0.00000000000E+00 0.  1.
         22    1    3    3    0    0  0.33715584953E+01  0.38660437030E+02 -0.75424531923E+01  0.39533345396E+02  0.00000000000E+00 0.  1.
</event>
<event>
 7    1  0.6219721E-006  0.1977491E+03  0.7818608E-02  0.1278500E+00
          2   -1    0    0  502    0  0.00000000000E+00  0.00000000000E+00  0.36022758393E+04  0.36022758393E+04  0.00000000000E+00 0. -1.
          1   -1    0    0  501    0 -0.00000000000E+00 -0.00000000000E+00 -0.71261394172E+02  0.71261394172E+02  0.00000000000E+00 0. -1.
         25    2    1    2    0    0  0.11194963463E+03 -0.14580604470E+03  0.73229264723E+03  0.76529117547E+03  0.12500375472E+03 0.  0.
          2    1    1    2  501    0 -0.32625856195E+02 -0.39771569172E+02 -0.38250590370E+02  0.64104070624E+02  0.00000000000E+00 0. -1.
          1    1    1    2  502    0 -0.79323778440E+02  0.18557761387E+03  0.28369723883E+04  0.28441419874E+04  0.00000000000E+00 0. -1.
         22    1    3    3    0    0  0.13223460207E+03 -0.11709873495E+03  0.49841886322E+03  0.52879057001E+03  0.00000000000E+00 0. -1.
         22    1    3    3    0    0 -0.20284967438E+02 -0.28707309752E+02  0.23387378401E+03  0.23650060546E+03  0.00000000000E+00 0. -1.
</event>
<event>
 7    1  0.6219721E-006  0.2373876E+03  0.7818608E-02  0.1265178E+00
          2   -1    0    0  502    0  0.00000000000E+00  0.00000000000E+00  0.86839720735E+03  0.86839720735E+03  0.00000000000E+00 0. -1.
          1   -1    0    0  501    0 -0.00000000000E+00 -0.00000000000E+00 -0.10832982401E+04  0.10832982401E+04  0.00000000000E+00 0. -1.
         25    2    1    2    0    0  0.16561759572E+03  0.21903485407E+03 -0.26222366666E+03  0.39973943139E+03  0.12499962535E+03 0.  0.
          2    1    1    2  501    0 -0.14794370018E+03 -0.17362826868E+03 -0.73424927235E+03  0.76886676873E+03  0.00000000000E+00 0. -1.
          1    1    1    2  502    0 -0.17673895542E+02 -0.45406585388E+02  0.78157190627E+03  0.78308924731E+03  0.00000000000E+00 0. -1.
         22    1    3    3    0    0  0.65112038101E+02  0.17037124428E+03 -0.11757215940E+03  0.21700034804E+03  0.00000000000E+00 0.  1.
         22    1    3    3    0    0  0.10050555762E+03  0.48663609794E+02 -0.14465150726E+03  0.18273908335E+03  0.00000000000E+00 0.  1.
</event>
<event>
 7    1  0.6219721E-006  0.6517001E+02  0.7818608E-02  0.1377938E+00
          2   -1    0    0  502    0  0.00000000000E+00  0.00000000000E+00  0.17053148376E+04  0.17053148376E+04  0.00000000000E+00 0. -1.
          1   -1    0    0  501    0 -0.00000000000E+00 -0.00000000000E+00 -0.84899136174E+03  0.84899136174E+03  0.00000000000E+00 0. -1.
         25    2    1    2    0    0  0.11689312043E+03  0.30676050455E+02  0.24804240908E+03  0.30291071919E+03  0.12499938169E+03 0.  0.
          2    1    1    2  501    0 -0.64508602138E+02  0.75487936502E+01 -0.81953648035E+03  0.82210606777E+03  0.00000000000E+00 0. -1.
          1    1    1    2  502    0 -0.52384518294E+02 -0.38224844105E+02  0.14278175471E+04  0.14292894124E+04  0.00000000000E+00 0. -1.
         22    1    3    3    0    0  0.77259564110E+02 -0.11961222756E+02  0.22850101175E+03  0.24150532803E+03  0.00000000000E+00 0. -1.
         22    1    3    3    0    0  0.39633556322E+02  0.42637273211E+02  0.19541397321E+02  0.61405391154E+02  0.00000000000E+00 0. -1.
</event>
<event>
 7    1  0.6219721E-006  0.5389009E+02  0.7818608E-02  0.1522399E+00
          2   -1    0    0  502    0  0.00000000000E+00  0.00000000000E+00  0.50482032988E+03  0.50482032988E+03  0.00000000000E+00 0. -1.
          1   -1    0    0  501    0 -0.00000000000E+00 -0.00000000000E+00 -0.63779413352E+03  0.63779413352E+03  0.00000000000E+00 0. -1.
         25    2    1    2    0    0  0.11720191581E+02  0.25172737000E+02 -0.23024978774E+03  0.26345846717E+03  0.12499747833E+03 0.  0.
          2    1    1    2  501    0  0.18527157372E+02  0.19622016527E+02 -0.38897506471E+03  0.38991009228E+03  0.00000000000E+00 0. -1.
          1    1    1    2  502    0 -0.30247348953E+02 -0.44794753527E+02  0.48625104881E+03  0.48924590395E+03  0.00000000000E+00 0. -1.
         22    1    3    3    0    0  0.32175933054E+01 -0.45372811058E+02 -0.14766707894E+03  0.15451411293E+03  0.00000000000E+00 0.  1.
         22    1    3    3    0    0  0.85025982754E+01  0.70545548059E+02 -0.82582708801E+02  0.10894435424E+03  0.00000000000E+00 0.  1.
</event>
<event>
 7    1  0.6219721E-006  0.4104690E+02  0.7818608E-02  0.1574935E+00
          2   -1    0    0  502    0  0.00000000000E+00  0.00000000000E+00  0.12857600103E+03  0.12857600103E+03  0.00000000000E+00 0. -1.
          1   -1    0    0  501    0 -0.00000000000E+00 -0.00000000000E+00 -0.30791181538E+03  0.30791181538E+03  0.00000000000E+00 0. -1.
         25    2    1    2    0    0 -0.15480707154E+02  0.54552405104E+02 -0.10753359066E+03  0.17436739573E+03  0.12499959351E+03 0.  0.
          2    1    1    2  501    0 -0.50882224876E+01 -0.39880630224E+02 -0.16279458487E+03  0.16768551380E+03  0.00000000000E+00 0. -1.
          1    1    1    2  502    0  0.20568929642E+02 -0.14671774880E+02  0.90992361182E+02  0.94434906885E+02  0.00000000000E+00 0. -1.
         22    1    3    3    0    0 -0.16296065848E+02 -0.39530834719E+02 -0.40011785642E+02  0.58559300252E+02  0.00000000000E+00 0.  1.
         22    1    3    3    0    0  0.81535869396E+00  0.94083239823E+02 -0.67521805017E+02  0.11580809548E+03  0.00000000000E+00 0.  1.
</event>
<event>
 7    1  0.6219721E-006  0.8117312E+02  0.7818608E-02  0.1384533E+00
          2   -1    0    0  502    0  0.00000000000E+00  0.00000000000E+00  0.18973919772E+04  0.18973919772E+04  0.00000000000E+00 0. -1.
          1   -1    0    0  501    0 -0.00000000000E+00 -0.00000000000E+00 -0.56198603412E+02  0.56198603412E+02  0.00000000000E+00 0. -1.
         25    2    1    2    0    0  0.11677694397E+00  0.94594811065E+02  0.42954153371E+03  0.45725169750E+03  0.12499997504E+03 0.  0.
          2    1    1    2  501    0  0.42219451942E+02 -0.69251439569E+02 -0.26760871128E+01  0.81150511070E+02  0.00000000000E+00 0. -1.
          1    1    1    2  502    0 -0.42336228886E+02 -0.25343371496E+02  0.14143279272E+04  0.14151883720E+04  0.00000000000E+00 0. -1.
         22    1    3    3    0    0  0.26577366414E+02  0.49528509036E+02  0.53511221572E+02  0.77607219039E+02  0.00000000000E+00 0.  1.
         22    1    3    3    0    0 -0.26460589471E+02  0.45066302030E+02  0.37603031214E+03  0.37964447846E+03  0.00000000000E+00 0.  1.
</event>
<event>
 7    1  0.6219721E-006  0.7119968E+02  0.7818608E-02  0.1461651E+00
          2   -1    0    0  502    0  0.00000000000E+00  0.00000000000E+00  0.52548952987E+03  0.52548952987E+03  0.00000000000E+00 0. -1.
          1   -1    0    0  501    0 -0.00000000000E+00 -0.00000000000E+00 -0.17071737242E+03  0.17071737242E+03  0.00000000000E+00 0. -1.
         25    2    1    2    0    0 -0.51585231750E+02 -0.30018173113E+02  0.52616252725E+02  0.14819138425E+03  0.12502035619E+03 0.  0.
          2    1    1    2  501    0 -0.20412741237E+02  0.23537077878E+02 -0.11781686023E+03  0.12186667549E+03  0.00000000000E+00 0. -1.
          1    1    1    2  502    0  0.71997972986E+02  0.64810952342E+01  0.41997276496E+03  0.42614884256E+03  0.00000000000E+00 0. -1.
         22    1    3    3    0    0 -0.17253316186E+02  0.28314896415E+02  0.70736093120E+02  0.78121732881E+02  0.00000000000E+00 0. -1.
         22    1    3    3    0    0 -0.34331915564E+02 -0.58333069528E+02 -0.18119840395E+02  0.70069651368E+02  0.00000000000E+00 0. -1.
</event>
<event>
 7    1  0.6219721E-006  0.1567737E+03  0.7818608E-02  0.1342027E+00
          2   -1    0    0  502    0  0.00000000000E+00  0.00000000000E+00  0.74358017493E+03  0.74358017493E+03  0.00000000000E+00 0. -1.
          1   -1    0    0  501    0 -0.00000000000E+00 -0.00000000000E+00 -0.14051449327E+04  0.14051449327E+04  0.00000000000E+00 0. -1.
         25    2    1    2    0    0  0.15725354234E+03  0.71129810823E+02 -0.13985205959E+03  0.25489330080E+03  0.12499547852E+03 0.  0.
          2    1    1    2  501    0 -0.15164941184E+03 -0.35108184720E+02 -0.12022669248E+04  0.12123018961E+04  0.00000000000E+00 0. -1.
          1    1    1    2  502    0 -0.56041305031E+01 -0.36021626104E+02  0.68055422665E+03  0.68152991074E+03  0.00000000000E+00 0. -1.
         22    1    3    3    0    0  0.17645106794E+03  0.75176562554E+02 -0.13539815669E+03  0.23477469150E+03  0.00000000000E+00 0.  1.
         22    1    3    3    0    0 -0.19197525601E+02 -0.40467517309E+01 -0.44539029021E+01  0.20118609292E+02  0.00000000000E+00 0.  1.
</event>
<event>
 7    1  0.6219721E-006  0.8069115E+02  0.7818608E-02  0.1474623E+00
          2   -1    0    0  502    0  0.00000000000E+00  0.00000000000E+00  0.14971248091E+04  0.14971248091E+04  0.00000000000E+00 0. -1.
          1   -1    0    0  501    0 -0.00000000000E+00 -0.00000000000E+00 -0.11907941348E+04  0.11907941348E+04  0.00000000000E+00 0. -1.
         25    2    1    2    0    0  0.34122328136E+02  0.73172042634E+02  0.79172403496E+02  0.16856332038E+03  0.12500736939E+03 0.  0.
          2    1    1    2  501    0  0.20812316552E+02 -0.13932734668E+02 -0.11447733341E+04  0.11450472742E+04  0.00000000000E+00 0. -1.
          1    1    1    2  502    0 -0.54934644687E+02 -0.59239307966E+02  0.13719316048E+04  0.13743083494E+04  0.00000000000E+00 0. -1.
         22    1    3    3    0    0 -0.45030789519E+02  0.10067563325E+02  0.14204269219E+02  0.48279282307E+02  0.00000000000E+00 0.  1.
         22    1    3    3    0    0  0.79153117654E+02  0.63104479308E+02  0.64968134277E+02  0.12028403807E+03  0.00000000000E+00 0.  1.
</event>
<event>
 7    1  0.6219721E-006  0.6507608E+02  0.7818608E-02  0.1389028E+00
          2   -1    0    0  502    0  0.00000000000E+00  0.00000000000E+00  0.13404256354E+04  0.13404256354E+04  0.00000000000E+00 0. -1.
          1   -1    0    0  501    0 -0.00000000000E+00 -0.00000000000E+00 -0.13595298962E+03  0.13595298962E+03  0.00000000000E+00 0. -1.
         25    2    1    2    0    0  0.10955432175E+02  0.29333343686E+02  0.83440375207E+02  0.15351648854E+03  0.12499819796E+03 0.  0.
          2    1    1    2  501    0  0.42110987374E+02 -0.55919822743E+02 -0.87958844052E+02  0.11241494598E+03  0.00000000000E+00 0. -1.
          1    1    1    2  502    0 -0.53066419549E+02  0.26586479056E+02  0.12089911146E+04  0.12104471905E+04  0.00000000000E+00 0. -1.
         22    1    3    3    0    0 -0.56223419008E+02  0.15591452001E+02  0.25214730744E+02  0.63560592091E+02  0.00000000000E+00 0. -1.
         22    1    3    3    0    0  0.67178851183E+02  0.13741891685E+02  0.58225644462E+02  0.89955896451E+02  0.00000000000E+00 0. -1.
</event>
<event>
 7    1  0.6219721E-006  0.7488457E+02  0.7818608E-02  0.1372368E+00
          2   -1    0    0  502    0  0.00000000000E+00  0.00000000000E+00  0.11656232485E+04  0.11656232485E+04  0.00000000000E+00 0. -1.
          1   -1    0    0  501    0 -0.00000000000E+00 -0.00000000000E+00 -0.32746121016E+02  0.32746121016E+02  0.00000000000E+00 0. -1.
         25    2    1    2    0    0  0.45223235430E+02 -0.31670749459E+02  0.74710499447E+03  0.75949922717E+03  0.12500010365E+03 0.  0.
          2    1    1    2  501    0  0.55901318862E+02  0.19110770429E+02  0.25292253272E+02  0.64264119635E+02  0.00000000000E+00 0. -1.
          1    1    1    2  502    0 -0.10112455429E+03  0.12559979031E+02  0.36047987974E+03  0.37460602271E+03  0.00000000000E+00 0. -1.
         22    1    3    3    0    0  0.57001429442E+02 -0.22585256194E+02  0.14784142183E+03  0.16005106299E+03  0.00000000000E+00 0. -1.
         22    1    3    3    0    0 -0.11778194012E+02 -0.90854932650E+01  0.59926357264E+03  0.59944816417E+03  0.00000000000E+00 0. -1.
</event>
<event>
 7    1  0.6219721E-006  0.7180507E+02  0.7818608E-02  0.1523345E+00
          2   -1    0    0  502    0  0.00000000000E+00  0.00000000000E+00  0.74095928869E+03  0.74095928869E+03  0.00000000000E+00 0. -1.
          1   -1    0    0  501    0 -0.00000000000E+00 -0.00000000000E+00 -0.10823598041E+04  0.10823598041E+04  0.00000000000E+00 0. -1.
         25    2    1    2    0    0  0.74990665593E+02  0.32094446371E+02 -0.63765556277E+03  0.65489170591E+03  0.12499950533E+03 0.  0.
          2    1    1    2  501    0 -0.56439981870E+02 -0.39900909728E+02 -0.43320761785E+03  0.43868712577E+03  0.00000000000E+00 0. -1.
          1    1    1    2  502    0 -0.18550683722E+02  0.78064633574E+01  0.72946266521E+03  0.72974026110E+03  0.00000000000E+00 0. -1.
         22    1    3    3    0    0  0.90306194558E+02 -0.22006721426E+02 -0.38659149292E+03  0.39760845937E+03  0.00000000000E+00 0.  1.
         22    1    3    3    0    0 -0.15315528965E+02  0.54101167796E+02 -0.25106406985E+03  0.25728324655E+03  0.00000000000E+00 0.  1.
</event>
<event>
 7    1  0.6219721E-006  0.4942052E+02  0.7818608E-02  0.1510620E+00
          2   -1    0    0  502    0  0.00000000000E+00  0.00000000000E+00  0.50231444274E+03  0.50231444274E+03  0.00000000000E+00 0. -1.
          1   -1    0    0  501    0 -0.00000000000E+00 -0.00000000000E+00 -0.42373028032E+03  0.42373028032E+03  0.00000000000E+00 0. -1.
         25    2    1    2    0    0  0.14825052056E+02 -0.20094515298E+02 -0.23522224720E+03  0.26754105169E+03  0.12500054817E+03 0.  0.
          2    1    1    2  501    0  0.31706838673E+02  0.30232679889E+01 -0.16959903605E+03  0.17256389193E+03  0.00000000000E+00 0. -1.
          1    1    1    2  502    0 -0.46531890729E+02  0.17071247309E+02  0.48340544567E+03  0.48593977944E+03  0.00000000000E+00 0. -1.
         22    1    3    3    0    0  0.16083846815E+02 -0.38509687115E+02 -0.11816578780E+02  0.43374158944E+02  0.00000000000E+00 0.  1.
         22    1    3    3    0    0 -0.12587947584E+01  0.18415171818E+02 -0.22340566842E+03  0.22416689274E+03  0.00000000000E+00 0.  1.
</event>
<event>
 7    1  0.6219721E-006  0.8953626E+02  0.7818608E-02  0.1392979E+00
          2   -1    0    0  502    0  0.00000000000E+00  0.00000000000E+00  0.14465786108E+04  0.14465786108E+04  0.00000000000E+00 0. -1.
          1   -1    0    0  501    0 -0.00000000000E+00 -0.00000000000E+00 -0.10772534162E+04  0.10772534162E+04  0.00000000000E+00 0. -1.
         25    2    1    2    0    0  0.58104116315E+02 -0.13937970840E+02  0.23029183262E+03  0.26875565848E+03  0.12499968171E+03 0.  0.
          2    1    1    2  501    0  0.33932166941E+02  0.24398141534E+02 -0.10558155478E+04  0.10566423862E+04  0.00000000000E+00 0. -1.
          1    1    1    2  502    0 -0.92036283256E+02 -0.10460170693E+02  0.11948489098E+04  0.11984339823E+04  0.00000000000E+00 0. -1.
         22    1    3    3    0    0  0.75958373154E+02 -0.35603048331E+02  0.22507648848E+03  0.24020132633E+03  0.00000000000E+00 0. -1.
         22    1    3    3    0    0 -0.17854256839E+02  0.21665077490E+02  0.52153441392E+01  0.28554332148E+02  0.00000000000E+00 0. -1.
</event>
<event>
 7    1  0.6219721E-006  0.1909373E+03  0.7818608E-02  0.1196496E+00
          2   -1    0    0  502    0  0.00000000000E+00  0.00000000000E+00  0.16176077353E+04  0.16176077353E+04  0.00000000000E+00 0. -1.
          1   -1    0    0  501    0 -0.00000000000E+00 -0.00000000000E+00 -0.11049112861E+03  0.11049112861E+03  0.00000000000E+00 0. -1.
         25    2    1    2    0    0 -0.13791283649E+03  0.88397712080E+02  0.29411618993E+03  0.35911489006E+03  0.12500026046E+03 0.  0.
          2    1    1    2  501    0 -0.66779859851E+02 -0.10335726688E+03 -0.14987234978E+02  0.12396326678E+03  0.00000000000E+00 0. -1.
          1    1    1    2  502    0  0.20469269634E+03  0.14959554798E+02  0.12279876517E+04  0.12450207071E+04  0.00000000000E+00 0. -1.
         22    1    3    3    0    0 -0.50129660725E+02  0.10412358197E+03  0.14569480025E+03  0.18596149608E+03  0.00000000000E+00 0. -1.
         22    1    3    3    0    0 -0.87783175769E+02 -0.15725869885E+02  0.14842138968E+03  0.17315339398E+03  0.00000000000E+00 0. -1.
</event>
<event>
 7    1  0.6219721E-006  0.8968941E+02  0.7818608E-02  0.1321036E+00
          2   -1    0    0  502    0  0.00000000000E+00  0.00000000000E+00  0.17125661669E+04  0.17125661669E+04  0.00000000000E+00 0. -1.
          1   -1    0    0  501    0 -0.00000000000E+00 -0.00000000000E+00 -0.46805561407E+02  0.46805561407E+02  0.00000000000E+00 0. -1.
         25    2    1    2    0    0  0.10759831568E+03  0.54503092957E+02  0.30885852730E+03  0.35435373679E+03  0.12499998482E+03 0.  0.
          2    1    1    2  501    0 -0.20401076858E+02 -0.73845620716E+02  0.42550566340E+02  0.87635211712E+02  0.00000000000E+00 0. -1.
          1    1    1    2  502    0 -0.87197238826E+02  0.19342527759E+02  0.13143515119E+04  0.13173827798E+04  0.00000000000E+00 0. -1.
         22    1    3    3    0    0  0.32124554201E+02  0.67175915463E+02  0.24041542960E+03  0.25168267599E+03  0.00000000000E+00 0. -1.
         22    1    3    3    0    0  0.75473761483E+02 -0.12672822506E+02  0.68443097704E+02  0.10267106080E+03  0.00000000000E+00 0. -1.
</event>
<event>
 7    1  0.6219721E-006  0.6372062E+02  0.7818608E-02  0.1453009E+00
          2   -1    0    0  502    0  0.00000000000E+00  0.00000000000E+00  0.24265369980E+04  0.24265369980E+04  0.00000000000E+00 0. -1.
          1   -1    0    0  501    0 -0.00000000000E+00 -0.00000000000E+00 -0.42578180139E+02  0.42578180139E+02  0.00000000000E+00 0. -1.
         25    2    1    2    0    0 -0.24659476294E+02 -0.93167494899E+02  0.37488593631E+03  0.40676038347E+03  0.12500508968E+03 0.  0.
          2    1    1    2  501    0  0.23607366345E+02  0.56105820334E+02  0.85259525454E+01  0.61464320446E+02  0.00000000000E+00 0. -1.
          1    1    1    2  502    0  0.10521099493E+01  0.37061674565E+02  0.20005469290E+04  0.20008904742E+04  0.00000000000E+00 0. -1.
         22    1    3    3    0    0  0.43232577982E+02 -0.24067763548E+02  0.62596015483E+02  0.79790815233E+02  0.00000000000E+00 0. -1.
         22    1    3    3    0    0 -0.67892054277E+02 -0.69099731352E+02  0.31228992083E+03  0.32696956824E+03  0.00000000000E+00 0. -1.
</event>
<event>
 7    1  0.6219721E-006  0.4823780E+02  0.7818608E-02  0.1515951E+00
          2   -1    0    0  502    0  0.00000000000E+00  0.00000000000E+00  0.22689796238E+03  0.22689796238E+03  0.00000000000E+00 0. -1.
          1   -1    0    0  501    0 -0.00000000000E+00 -0.00000000000E+00 -0.25353028887E+03  0.25353028887E+03  0.00000000000E+00 0. -1.
         25    2    1    2    0    0 -0.13558557255E+02 -0.22670287592E+02 -0.61088943014E+01  0.12790503145E+03  0.12499840826E+03 0.  0.
          2    1    1    2  501    0 -0.27442658065E+01  0.49598354362E+02 -0.18166592068E+03  0.18833489981E+03  0.00000000000E+00 0. -1.
          1    1    1    2  502    0  0.16302823062E+02 -0.26928066771E+02  0.16114248850E+03  0.16418831998E+03  0.00000000000E+00 0. -1.
         22    1    3    3    0    0  0.38181220528E+02  0.33803339327E+02  0.81278970467E+00  0.51001293883E+02  0.00000000000E+00 0.  1.
         22    1    3    3    0    0 -0.51739777783E+02 -0.56473626919E+02 -0.69216840061E+01  0.76903737568E+02  0.00000000000E+00 0.  1.
</event>
<event>
 7    1  0.6219721E-006  0.8023997E+02  0.7818608E-02  0.1431675E+00
          2   -1    0    0  502    0  0.00000000000E+00  0.00000000000E+00  0.17637919301E+04  0.17637919301E+04  0.00000000000E+00 0. -1.
          1   -1    0    0  501    0 -0.00000000000E+00 -0.00000000000E+00 -0.46577787551E+03  0.46577787551E+03  0.00000000000E+00 0. -1.
         25    2    1    2    0    0  0.56911035039E+02  0.27217684868E+02 -0.42941786232E+02  0.14645664494E+03  0.12500353421E+03 0.  0.
          2    1    1    2  501    0 -0.48845485557E+01  0.34166664451E+02 -0.36932814343E+03  0.37093732261E+03  0.00000000000E+00 0. -1.
          1    1    1    2  502    0 -0.52026486483E+02 -0.61384349319E+02  0.17102839842E+04  0.17121758380E+04  0.00000000000E+00 0. -1.
         22    1    3    3    0    0  0.95166980053E+02  0.41259155366E+01 -0.31507108053E+02  0.10033182511E+03  0.00000000000E+00 0.  1.
         22    1    3    3    0    0 -0.38255945015E+02  0.23091769331E+02 -0.11434678178E+02  0.46124819835E+02  0.00000000000E+00 0.  1.
</event>
<event>
 7    1  0.6219721E-006  0.1956519E+03  0.7818608E-02  0.1208733E+00
          2   -1    0    0  502    0  0.00000000000E+00  0.00000000000E+00  0.26348591325E+03  0.26348591325E+03  0.00000000000E+00 0. -1.
          1   -1    0    0  501    0 -0.00000000000E+00 -0.00000000000E+00 -0.23292244284E+04  0.23292244284E+04  0.00000000000E+00 0. -1.
         25    2    1    2    0    0  0.12161874121E+03 -0.59753588070E+02 -0.40119496367E+03  0.44152475746E+03  0.12500041230E+03 0.  0.
          2    1    1    2  501    0  0.81536576006E+02  0.66485502157E+02 -0.18636690106E+04  0.18666362035E+04  0.00000000000E+00 0. -1.
          1    1    1    2  502    0 -0.20315531721E+03 -0.67319140865E+01  0.19912545911E+03  0.28454938068E+03  0.00000000000E+00 0. -1.
         22    1    3    3    0    0  0.11656040342E+03 -0.70708884853E+02 -0.40619518951E+03  0.42846307429E+03  0.00000000000E+00 0. -1.
         22    1    3    3    0    0  0.50583377839E+01  0.10955296782E+02  0.50002258464E+01  0.13061683170E+02  0.00000000000E+00 0. -1.
</event>
<event>
 7    1  0.6219721E-006  0.4545932E+02  0.7818608E-02  0.1485343E+00
          2   -1    0    0  502    0  0.00000000000E+00  0.00000000000E+00  0.30156397200E+02  0.30156397200E+02  0.00000000000E+00 0. -1.
          1   -1    0    0  501    0 -0.00000000000E+00 -0.00000000000E+00 -0.84443027151E+03  0.84443027151E+03  0.00000000000E+00 0. -1.
         25    2    1    2    0    0 -0.48658866813E+02 -0.17425678546E+02 -0.37175864026E+03  0.39560173360E+03  0.12499962173E+03 0.  0.
          2    1    1    2  501    0  0.16678787161E+02  0.43423310447E+02 -0.43451968056E+03  0.43700242405E+03  0.00000000000E+00 0. -1.
          1    1    1    2  502    0  0.31980079652E+02 -0.25997631901E+02 -0.79955534932E+01  0.41982511057E+02  0.00000000000E+00 0. -1.
         22    1    3    3    0    0 -0.92772144917E+01 -0.35895472022E+02 -0.33932193465E+03  0.34134136426E+03  0.00000000000E+00 0.  1.
         22    1    3    3    0    0 -0.39381652322E+02  0.18469793476E+02 -0.32436705608E+02  0.54260369344E+02  0.00000000000E+00 0.  1.
</event>
<event>
 7    1  0.6219721E-006  0.1153518E+03  0.7818608E-02  0.1280034E+00
          2   -1    0    0  502    0  0.00000000000E+00  0.00000000000E+00  0.15450154615E+04  0.15450154615E+04  0.00000000000E+00 0. -1.
          1   -1    0    0  501    0 -0.00000000000E+00 -0.00000000000E+00 -0.56654231844E+02  0.56654231844E+02  0.00000000000E+00 0. -1.
         25    2    1    2    0    0  0.89714601769E+02 -0.71693135398E+02  0.74769974207E+03  0.76672985160E+03  0.12502457998E+03 0.  0.
          2    1    1    2  501    0  0.37044976880E+02  0.78616832823E+02  0.35538994382E+01  0.86980267397E+02  0.00000000000E+00 0. -1.
          1    1    1    2  502    0 -0.12675957865E+03 -0.69236974254E+01  0.73710758819E+03  0.74795957440E+03  0.00000000000E+00 0. -1.
         22    1    3    3    0    0  0.13948821531E+02 -0.90489784180E+02  0.38788040218E+03  0.39854005703E+03  0.00000000000E+00 0.  1.
         22    1    3    3    0    0  0.75765780238E+02  0.18796648782E+02  0.35981933989E+03  0.36818979456E+03  0.00000000000E+00 0.  1.
</event>
<event>
 7    1  0.6219721E-006  0.1362100E+03  0.7818608E-02  0.1238532E+00
          2   -1    0    0  502    0  0.00000000000E+00  0.00000000000E+00  0.30978417143E+03  0.30978417143E+03  0.00000000000E+00 0. -1.
          1   -1    0    0  501    0 -0.00000000000E+00 -0.00000000000E+00 -0.74472684551E+03  0.74472684551E+03  0.00000000000E+00 0. -1.
         25    2    1    2    0    0  0.15810086753E+03 -0.79048888456E+02 -0.11641287917E+02  0.21681494617E+03  0.12501436005E+03 0.  0.
          2    1    1    2  501    0 -0.26690083204E+02  0.10746353036E+03 -0.60310436022E+03  0.61318483365E+03  0.00000000000E+00 0. -1.
          1    1    1    2  502    0 -0.13141078433E+03 -0.28414641905E+02  0.17980297406E+03  0.22451123712E+03  0.00000000000E+00 0. -1.
         22    1    3    3    0    0  0.12865895570E+03 -0.37748307138E+02 -0.59854920700E+02  0.14683553080E+03  0.00000000000E+00 0. -1.
         22    1    3    3    0    0  0.29441911834E+02 -0.41300581318E+02  0.48213632783E+02  0.69979415372E+02  0.00000000000E+00 0. -1.
</event>
<event>
 7    1  0.6219721E-006  0.5636562E+02  0.7818608E-02  0.1489446E+00
          2   -1    0    0  502    0  0.00000000000E+00  0.00000000000E+00  0.14052376298E+04  0.14052376298E+04  0.00000000000E+00 0. -1.
          1   -1    0    0  501    0 -0.00000000000E+00 -0.00000000000E+00 -0.82056288100E+02  0.82056288100E+02  0.00000000000E+00 0. -1.
         25    2    1    2    0    0 -0.58467834218E+02  0.65292626277E+02  0.62737216474E+02  0.16505448345E+03  0.12500163796E+03 0.  0.
          2    1    1    2  501    0  0.25109550318E+02 -0.20316919369E+02 -0.21674900998E+02  0.38898175575E+02  0.00000000000E+00 0. -1.
          1    1    1    2  502    0  0.33358283900E+02 -0.44975706909E+02  0.12821190262E+04  0.12833412589E+04  0.00000000000E+00 0. -1.
         22    1    3    3    0    0 -0.22178226311E+02  0.16092077073E+02  0.92918318284E+02  0.96874364719E+02  0.00000000000E+00 0. -1.
         22    1    3    3    0    0 -0.36289607907E+02  0.49200549204E+02 -0.30181101810E+02  0.68180118733E+02  0.00000000000E+00 0. -1.
</event>
<event>
 7    1  0.6219721E-006  0.1550013E+03  0.7818608E-02  0.1313799E+00
          2   -1    0    0  502    0  0.00000000000E+00  0.00000000000E+00  0.24639955806E+04  0.24639955806E+04  0.00000000000E+00 0. -1.
          1   -1    0    0  501    0 -0.00000000000E+00 -0.00000000000E+00 -0.67305557678E+02  0.67305557678E+02  0.00000000000E+00 0. -1.
         25    2    1    2    0    0  0.96360210963E+02 -0.87395350864E+02  0.17582556266E+03  0.25191786967E+03  0.12499898787E+03 0.  0.
          2    1    1    2  501    0  0.44139465879E+02  0.17009872523E+02 -0.53718873593E+01  0.47607618982E+02  0.00000000000E+00 0. -1.
          1    1    1    2  502    0 -0.14049967684E+03  0.70385478341E+02  0.22262363476E+04  0.22317756496E+04  0.00000000000E+00 0. -1.
         22    1    3    3    0    0  0.71408943092E+02 -0.11982648788E+03  0.13633965454E+03  0.19505416107E+03  0.00000000000E+00 0.  1.
         22    1    3    3    0    0  0.24951267871E+02  0.32431137015E+02  0.39485908119E+02  0.56863708606E+02  0.00000000000E+00 0.  1.
</event>
<event>
 7    1  0.6219721E-006  0.1724394E+03  0.7818608E-02  0.1340134E+00
          2   -1    0    0  502    0  0.00000000000E+00  0.00000000000E+00  0.52090580006E+03  0.52090580006E+03  0.00000000000E+00 0. -1.
          1   -1    0    0  501    0 -0.00000000000E+00 -0.00000000000E+00 -0.50908501245E+03  0.50908501245E+03  0.00000000000E+00 0. -1.
         25    2    1    2    0    0 -0.18070655685E+03  0.57330294014E+02 -0.87305357257E+02  0.24328639358E+03  0.12499768636E+03 0.  0.
          2    1    1    2  501    0  0.11723610426E+02 -0.31584613628E+02 -0.32639782041E+03  0.32813193692E+03  0.00000000000E+00 0. -1.
          1    1    1    2  502    0  0.16898294643E+03 -0.25745680387E+02  0.42552396527E+03  0.45857248201E+03  0.00000000000E+00 0. -1.
         22    1    3    3    0    0 -0.16047953671E+03  0.24876297220E+00 -0.37318346815E+02  0.16476165390E+03  0.00000000000E+00 0. -1.
         22    1    3    3    0    0 -0.20227020141E+02  0.57081531042E+02 -0.49987010443E+02  0.78524739687E+02  0.00000000000E+00 0. -1.
</event>
<event>
 7    1  0.6219721E-006  0.1544818E+03  0.7818608E-02  0.1288590E+00
          2   -1    0    0  502    0  0.00000000000E+00  0.00000000000E+00  0.16506420464E+03  0.16506420464E+03  0.00000000000E+00 0. -1.
          1   -1    0    0  501    0 -0.00000000000E+00 -0.00000000000E+00 -0.92880383321E+03  0.92880383321E+03  0.00000000000E+00 0. -1.
         25    2    1    2    0    0  0.10357563799E+03  0.43001963918E+02 -0.10755436029E+03  0.19942392496E+03  0.12499951897E+03 0.  0.
          2    1    1    2  501    0 -0.13188461881E+03 -0.95737804656E+02 -0.75855319204E+03  0.77586224620E+03  0.00000000000E+00 0. -1.
          1    1    1    2  502    0  0.28308980820E+02  0.52735840738E+02  0.10236792376E+03  0.11858186669E+03  0.00000000000E+00 0. -1.
         22    1    3    3    0    0  0.25282736478E+02 -0.27501520776E+02  0.12780978460E+02  0.39482956060E+02  0.00000000000E+00 0. -1.
         22    1    3    3    0    0  0.78292901513E+02  0.70503484694E+02 -0.12033533875E+03  0.15994096890E+03  0.00000000000E+00 0. -1.
</event>
<event>
 7    1  0.6219721E-006  0.1223827E+03  0.7818608E-02  0.1281109E+00
          2   -1    0    0  502    0  0.00000000000E+00  0.00000000000E+00  0.19969376858E+04  0.19969376858E+04  0.00000000000E+00 0. -1.
          1   -1    0    0  501    0 -0.00000000000E+00 -0.00000000000E+00 -0.57913986152E+03  0.57913986152E+03  0.00000000000E+00 0. -1.
         25    2    1    2    0    0  0.85569203675E+01 -0.48884013278E+02 -0.29397148083E+02  0.13766601210E+03  0.12499948372E+03 0.  0.
          2    1    1    2  501    0  0.59639592860E+02 -0.54931159919E+02 -0.49028990584E+03  0.49694919774E+03  0.00000000000E+00 0. -1.
          1    1    1    2  502    0 -0.68196513227E+02  0.10381517320E+03  0.19374848782E+04  0.19414623375E+04  0.00000000000E+00 0. -1.
         22    1    3    3    0    0  0.33390251735E+02  0.10360071187E+02 -0.57703230953E+02  0.67467791192E+02  0.00000000000E+00 0. -1.
         22    1    3    3    0    0 -0.24833331368E+02 -0.59244084465E+02  0.28306082870E+02  0.70198220906E+02  0.00000000000E+00 0. -1.
</event>
<event>
 7    1  0.6219721E-006  0.8233150E+02  0.7818608E-02  0.1396903E+00
          2   -1    0    0  502    0  0.00000000000E+00  0.00000000000E+00  0.27602826068E+02  0.27602826068E+02  0.00000000000E+00 0. -1.
          1   -1    0    0  501    0 -0.00000000000E+00 -0.00000000000E+00 -0.19177503377E+04  0.19177503377E+04  0.00000000000E+00 0. -1.
         25    2    1    2    0    0 -0.52174132468E+02 -0.21855251841E+01 -0.36064374342E+03  0.38524741563E+03  0.12499897985E+03 0.  0.
          2    1    1    2  501    0 -0.40429364166E+02 -0.17487797342E+02 -0.13946158573E+04  0.13953113438E+04  0.00000000000E+00 0. -1.
          1    1    1    2  502    0  0.92603496634E+02  0.19673322527E+02 -0.13488791090E+03  0.16479440438E+03  0.00000000000E+00 0. -1.
         22    1    3    3    0    0  0.14944915534E+02  0.47537651372E+02 -0.10339138851E+03  0.11477350746E+03  0.00000000000E+00 0. -1.
         22    1    3    3    0    0 -0.67119048002E+02 -0.49723176556E+02 -0.25725235491E+03  0.27047390817E+03  0.00000000000E+00 0. -1.
</event>
<event>
 7    1  0.6219721E-006  0.2892985E+02  0.7818608E-02  0.1630827E+00
          2   -1    0    0  502    0  0.00000000000E+00  0.00000000000E+00  0.76156202423E+03  0.76156202423E+03  0.00000000000E+00 0. -1.
          1   -1    0    0  501    0 -0.00000000000E+00 -0.00000000000E+00 -0.53634168578E+03  0.53634168578E+03  0.00000000000E+00 0. -1.
         25    2    1    2    0    0 -0.54054326763E+02  0.60243227615E+01 -0.79291276977E+02  0.15767569356E+03  0.12496541533E+03 0.  0.
          2    1    1    2  501    0  0.25220427166E+02 -0.46194753189E+01 -0.41717603616E+03  0.41796322164E+03  0.00000000000E+00 0. -1.
          1    1    1    2  502    0  0.28833899597E+02 -0.14048474427E+01  0.72168765158E+03  0.72226479480E+03  0.00000000000E+00 0. -1.
         22    1    3    3    0    0  0.25144921333E+02  0.33499866644E+02 -0.57357713662E+02  0.71024048396E+02  0.00000000000E+00 0.  1.
         22    1    3    3    0    0 -0.79199248096E+02 -0.27475543883E+02 -0.21933563315E+02  0.86651645168E+02  0.00000000000E+00 0.  1.
</event>
<event>
 7    1  0.6219721E-006  0.1249855E+03  0.7818608E-02  0.1258967E+00
          2   -1    0    0  502    0  0.00000000000E+00  0.00000000000E+00  0.12606568419E+04  0.12606568419E+04  0.00000000000E+00 0. -1.
          1   -1    0    0  501    0 -0.00000000000E+00 -0.00000000000E+00 -0.12726802615E+04  0.12726802615E+04  0.00000000000E+00 0. -1.
         25    2    1    2    0    0 -0.22161667488E+03  0.60928965399E+01 -0.41991956449E+03  0.49102725085E+03  0.12499698585E+03 0.  0.
          2    1    1    2  501    0  0.97488358877E+02 -0.12983932548E+02 -0.81107478168E+03  0.81701582854E+03  0.00000000000E+00 0. -1.
          1    1    1    2  502    0  0.12412831600E+03  0.68910360081E+01  0.12189709266E+04  0.12252940239E+04  0.00000000000E+00 0. -1.
         22    1    3    3    0    0 -0.16192282568E+03 -0.35712246591E+02 -0.20254165216E+03  0.26175845142E+03  0.00000000000E+00 0.  1.
         22    1    3    3    0    0 -0.59693849197E+02  0.41805143130E+02 -0.21737791233E+03  0.22926879943E+03  0.00000000000E+00 0.  1.
</event>
<event>
 7    1  0.6219721E-006  0.8575431E+02  0.7818608E-02  0.1371657E+00
          2   -1    0    0  502    0  0.00000000000E+00  0.00000000000E+00  0.78188270105E+03  0.78188270105E+03  0.00000000000E+00 0. -1.
          1   -1    0    0  501    0 -0.00000000000E+00 -0.00000000000E+00 -0.24701811484E+04  0.24701811484E+04  0.00000000000E+00 0. -1.
         25    2    1    2    0    0  0.49482759180E+02 -0.87537404020E+02  0.72390525521E+02  0.17600331707E+03  0.12500175550E+03 0.  0.
          2    1    1    2  501    0  0.23783008862E+01  0.85718430672E+02 -0.24165894771E+04  0.24181104206E+04  0.00000000000E+00 0. -1.
          1    1    1    2  502    0 -0.51861060066E+02  0.18189733477E+01  0.65590050417E+03  0.65795011177E+03  0.00000000000E+00 0. -1.
         22    1    3    3    0    0 -0.36995062668E+02 -0.29014344370E+02  0.51095232031E+02  0.69434786508E+02  0.00000000000E+00 0. -1.
         22    1    3    3    0    0  0.86477821848E+02 -0.58523059650E+02  0.21295293491E+02  0.10656853057E+03  0.00000000000E+00 0. -1.
</event>
<event>
 7    1  0.6219721E-006  0.1090742E+03  0.7818608E-02  0.1376815E+00
          2   -1    0    0  502    0  0.00000000000E+00  0.00000000000E+00  0.11927789435E+04  0.11927789435E+04  0.00000000000E+00 0. -1.
          1   -1    0    0  501    0 -0.00000000000E+00 -0.00000000000E+00 -0.54778214953E+02  0.54778214953E+02  0.00000000000E+00 0. -1.
         25    2    1    2    0    0 -0.35096535528E+01 -0.86912333978E+02  0.16697545758E+03  0.22598873229E+03  0.12499612883E+03 0.  0.
          2    1    1    2  501    0  0.32979613978E+02 -0.21010227798E+02 -0.47588881889E+01  0.39392024917E+02  0.00000000000E+00 0. -1.
          1    1    1    2  502    0 -0.29469960425E+02  0.10792256178E+03  0.97578415912E+03  0.98217640122E+03  0.00000000000E+00 0. -1.
         22    1    3    3    0    0  0.68655356557E+01 -0.24977768603E+02  0.16081696675E+03  0.16288990545E+03  0.00000000000E+00 0.  1.
         22    1    3    3    0    0 -0.10375189208E+02 -0.61934565375E+02  0.61584908370E+01  0.63098826841E+02  0.00000000000E+00 0.  1.
</event>
<event>
 7    1  0.6219721E-006  0.1165229E+03  0.7818608E-02  0.1267786E+00
          2   -1    0    0  502    0  0.00000000000E+00  0.00000000000E+00  0.78246988035E+03  0.78246988035E+03  0.00000000000E+00 0. -1.
          1   -1    0    0  501    0 -0.00000000000E+00 -0.00000000000E+00 -0.29176999920E+03  0.29176999920E+03  0.00000000000E+00 0. -1.
         25    2    1    2    0    0 -0.76881165743E+01 -0.67472222930E+02  0.13259088465E+03  0.19446573250E+03  0.12499988168E+03 0.  0.
          2    1    1    2  501    0 -0.95693561881E+02 -0.14459508474E+02 -0.24446800418E+03  0.26292763308E+03  0.00000000000E+00 0. -1.
          1    1    1    2  502    0  0.10338167846E+03  0.81931731404E+02  0.60257700068E+03  0.61684651397E+03  0.00000000000E+00 0. -1.
         22    1    3    3    0    0 -0.42476888610E+02 -0.69967403354E+02  0.31802317201E+02  0.87812931721E+02  0.00000000000E+00 0.  1.
         22    1    3    3    0    0  0.34788772036E+02  0.24951804240E+01  0.10078856745E+03  0.10665280077E+03  0.00000000000E+00 0.  1.
</event>
<event>
 7    1  0.6219721E-006  0.5289031E+02  0.7818608E-02  0.1430836E+00
          2   -1    0    0  502    0  0.00000000000E+00  0.00000000000E+00  0.78361252414E+03  0.78361252414E+03  0.00000000000E+00 0. -1.
          1   -1    0    0  501    0 -0.00000000000E+00 -0.00000000000E+00 -0.94384740297E+03  0.94384740297E+03  0.00000000000E+00 0. -1.
         25    2    1    2    0    0  0.89165347654E+02  0.56200829387E+02 -0.70088562663E+03  0.71970658972E+03  0.12501168439E+03 0.  0.
          2    1    1    2  501    0 -0.45866630440E+02 -0.25942727588E+02 -0.22966288030E+03  0.23563066755E+03  0.00000000000E+00 0. -1.
          1    1    1    2  502    0 -0.43298717214E+02 -0.30258101799E+02  0.77031362810E+03  0.77212266983E+03  0.00000000000E+00 0. -1.
         22    1    3    3    0    0  0.97559189336E+02  0.44793330031E+02 -0.30100278840E+03  0.31957302212E+03  0.00000000000E+00 0. -1.
         22    1    3    3    0    0 -0.83938416815E+01  0.11407499355E+02 -0.39988283822E+03  0.40013356760E+03  0.00000000000E+00 0. -1.
</event>
<event>
 7    1  0.6219721E-006  0.1416803E+03  0.7818608E-02  0.1310632E+00
          2   -1    0    0  502    0  0.00000000000E+00  0.00000000000E+00  0.21076091581E+04  0.21076091581E+04  0.00000000000E+00 0. -1.
          1   -1    0    0  501    0 -0.00000000000E+00 -0.00000000000E+00 -0.72139024548E+03  0.72139024548E+03  0.00000000000E+00 0. -1.
         25    2    1    2    0    0  0.74614795725E+02  0.70581832077E+02  0.58483075718E+03  0.60679579327E+03  0.12499982968E+03 0.  0.
          2    1    1    2  501    0  0.38522217157E+02  0.36770865802E+02 -0.70537886398E+03  0.70738631563E+03  0.00000000000E+00 0. -1.
          1    1    1    2  502    0 -0.11313701288E+03 -0.10735269788E+03  0.15067670194E+04  0.15148172946E+04  0.00000000000E+00 0. -1.
         22    1    3    3    0    0  0.17863573430E+02  0.96500379292E+02  0.39331007554E+03  0.40536927114E+03  0.00000000000E+00 0.  1.
         22    1    3    3    0    0  0.56751222295E+02 -0.25918547215E+02  0.19152068164E+03  0.20142652213E+03  0.00000000000E+00 0.  1.
</event>
<event>
 7    1  0.6219721E-006  0.1019906E+03  0.7818608E-02  0.1431369E+00
          2   -1    0    0  502    0  0.00000000000E+00  0.00000000000E+00  0.54804638028E+02  0.54804638028E+02  0.00000000000E+00 0. -1.
          1   -1    0    0  501    0 -0.00000000000E+00 -0.00000000000E+00 -0.24178605163E+04  0.24178605163E+04  0.00000000000E+00 0. -1.
         25    2    1    2    0    0 -0.76478450917E+02  0.85435092396E+02 -0.31169754375E+03  0.35486392167E+03  0.12499974262E+03 0.  0.
          2    1    1    2  501    0  0.82553401072E+02 -0.58905092480E+02 -0.20775530314E+04  0.20800267960E+04  0.00000000000E+00 0. -1.
          1    1    1    2  502    0 -0.60749501556E+01 -0.26529999915E+02  0.26194696899E+02  0.37774436601E+02  0.00000000000E+00 0. -1.
         22    1    3    3    0    0 -0.69079431036E+02  0.92941261933E+02 -0.13504233018E+03  0.17789456682E+03  0.00000000000E+00 0. -1.
         22    1    3    3    0    0 -0.73990198811E+01 -0.75061695372E+01 -0.17665521357E+03  0.17696935486E+03  0.00000000000E+00 0. -1.
</event>
<event>
 7    1  0.6219721E-006  0.8991787E+02  0.7818608E-02  0.1418732E+00
          2   -1    0    0  502    0  0.00000000000E+00  0.00000000000E+00  0.48718247618E+02  0.48718247618E+02  0.00000000000E+00 0. -1.
          1   -1    0    0  501    0 -0.00000000000E+00 -0.00000000000E+00 -0.19004851088E+04  0.19004851088E+04  0.00000000000E+00 0. -1.
         25    2    1    2    0    0 -0.84355866968E+02  0.86272026742E+02 -0.55728008318E+03  0.58373121476E+03  0.12498905983E+03 0.  0.
          2    1    1    2  501    0  0.26633460671E+02 -0.21130353267E+02 -0.12760522168E+04  0.12765050305E+04  0.00000000000E+00 0. -1.
          1    1    1    2  502    0  0.57722406297E+02 -0.65141673475E+02 -0.18434561210E+02  0.88967111108E+02  0.00000000000E+00 0. -1.
         22    1    3    3    0    0 -0.10457592201E+03  0.31273360245E+02 -0.28431829140E+03  0.30455054974E+03  0.00000000000E+00 0. -1.
         22    1    3    3    0    0  0.20220055044E+02  0.54998666497E+02 -0.27296179179E+03  0.27918066501E+03  0.00000000000E+00 0. -1.
</event>
<event>
 7    1  0.6219721E-006  0.5378865E+02  0.7818608E-02  0.1439731E+00
          2   -1    0    0  502    0  0.00000000000E+00  0.00000000000E+00  0.45565190003E+03  0.45565190003E+03  0.00000000000E+00 0. -1.
          1   -1    0    0  501    0 -0.00000000000E+00 -0.00000000000E+00 -0.21349516879E+03  0.21349516879E+03  0.00000000000E+00 0. -1.
         25    2    1    2    0    0 -0.22530794997E+02 -0.64250005642E+01  0.15538689660E+03  0.20082200021E+03  0.12504187610E+03 0.  0.
          2    1    1    2  501    0  0.11293089246E+02  0.53564808045E+02 -0.18465988906E+03  0.19260321169E+03  0.00000000000E+00 0. -1.
          1    1    1    2  502    0  0.11237705751E+02 -0.47139807481E+02  0.27142972369E+03  0.27572185692E+03  0.00000000000E+00 0. -1.
         22    1    3    3    0    0  0.56497750612E+01  0.25307908379E+02 -0.11686495192E+02  0.28442650275E+02  0.00000000000E+00 0. -1.
         22    1    3    3    0    0 -0.28180570059E+02 -0.31732908943E+02  0.16707339180E+03  0.17237934994E+03  0.00000000000E+00 0. -1.
</event>
<event>
 7    1  0.6219721E-006  0.5012114E+02  0.7818608E-02  0.1573100E+00
          2   -1    0    0  502    0  0.00000000000E+00  0.00000000000E+00  0.59076685343E+02  0.59076685343E+02  0.00000000000E+00 0. -1.
          1   -1    0    0  501    0 -0.00000000000E+00 -0.00000000000E+00 -0.39763367277E+03  0.39763367277E+03  0.00000000000E+00 0. -1.
         25    2    1    2    0    0  0.25481596593E+02 -0.30977471780E+02 -0.45949332900E+02  0.13908470638E+03  0.12499719529E+03 0.  0.
          2    1    1    2  501    0  0.89346716253E+00 -0.20909792390E+02 -0.23431797534E+03  0.23525078378E+03  0.00000000000E+00 0. -1.
          1    1    1    2  502    0 -0.26375063755E+02  0.51887264169E+02 -0.58289679182E+02  0.82374867953E+02  0.00000000000E+00 0. -1.
         22    1    3    3    0    0  0.11484029853E+02  0.48403690590E+02 -0.25609696415E+02  0.55952272115E+02  0.00000000000E+00 0.  1.
         22    1    3    3    0    0  0.13997566739E+02 -0.79381162369E+02 -0.20339636486E+02  0.83132434261E+02  0.00000000000E+00 0.  1.
</event>
<event>
 7    1  0.6219721E-006  0.2741770E+03  0.7818608E-02  0.1111397E+00
          2   -1    0    0  502    0  0.00000000000E+00  0.00000000000E+00  0.25112499604E+04  0.25112499604E+04  0.00000000000E+00 0. -1.
          1   -1    0    0  501    0 -0.00000000000E+00 -0.00000000000E+00 -0.52336686081E+03  0.52336686081E+03  0.00000000000E+00 0. -1.
         25    2    1    2    0    0 -0.35828343130E+03 -0.17096619819E+03  0.52400448360E+03  0.66917983985E+03  0.12499800464E+03 0.  0.
          2    1    1    2  501    0  0.13364922228E+03  0.23482897805E+03 -0.40234789656E+03  0.48465512833E+03  0.00000000000E+00 0. -1.
          1    1    1    2  502    0  0.22463420902E+03 -0.63862779851E+02  0.18662265125E+04  0.18807818530E+04  0.00000000000E+00 0. -1.
         22    1    3    3    0    0 -0.20435871895E+03 -0.36860102250E+02  0.21570932317E+03  0.29941887925E+03  0.00000000000E+00 0. -1.
         22    1    3    3    0    0 -0.15392471235E+03 -0.13410609594E+03  0.30829516043E+03  0.36976096061E+03  0.00000000000E+00 0. -1.
</event>
<event>
 7    1  0.6219721E-006  0.1052526E+03  0.7818608E-02  0.1377862E+00
          2   -1    0    0  502    0  0.00000000000E+00  0.00000000000E+00  0.33084934225E+03  0.33084934225E+03  0.00000000000E+00 0. -1.
          1   -1    0    0  501    0 -0.00000000000E+00 -0.00000000000E+00 -0.28235950083E+03  0.28235950083E+03  0.00000000000E+00 0. -1.
         25    2    1    2    0    0 -0.11117242474E+03 -0.40146570760E+02  0.10030132912E+03  0.19915782228E+03  0.12502970201E+03 0.  0.
          2    1    1    2  501    0  0.80873549885E+02  0.66532557824E+02 -0.21865401368E+03  0.24243904393E+03  0.00000000000E+00 0. -1.
          1    1    1    2  502    0  0.30298874859E+02 -0.26385987064E+02  0.16684252598E+03  0.17161197688E+03  0.00000000000E+00 0. -1.
         22    1    3    3    0    0 -0.62807381110E+02  0.42783959851E+02  0.41746752006E+02  0.86706549034E+02  0.00000000000E+00 0.  1.
         22    1    3    3    0    0 -0.48365043634E+02 -0.82930530611E+02  0.58554577114E+02  0.11245127324E+03  0.00000000000E+00 0.  1.
</event>
<event>
 7    1  0.6219721E-006  0.3899599E+02  0.7818608E-02  0.1581139E+00
          2   -1    0    0  502    0  0.00000000000E+00  0.00000000000E+00  0.25180434125E+03  0.25180434125E+03  0.00000000000E+00 0. -1.
          1   -1    0    0  501    0 -0.00000000000E+00 -0.00000000000E+00 -0.79732800200E+02  0.79732800200E+02  0.00000000000E+00 0. -1.
         25    2    1    2    0    0  0.20052314225E+02  0.52462962904E+02  0.42401255236E+02  0.14344670235E+03  0.12499852874E+03 0.  0.
          2    1    1    2  501    0  0.64958636235E+01 -0.24754245242E+02 -0.20690571273E+02  0.32910008224E+02  0.00000000000E+00 0. -1.
          1    1    1    2  502    0 -0.26548177849E+02 -0.27708717661E+02  0.15036085709E+03  0.15518043087E+03  0.00000000000E+00 0. -1.
         22    1    3    3    0    0 -0.20080699090E+02  0.47001730226E+02  0.75476787132E+02  0.91154498057E+02  0.00000000000E+00 0. -1.
         22    1    3    3    0    0  0.40133013315E+02  0.54612326777E+01 -0.33075531896E+02  0.52292204298E+02  0.00000000000E+00 0. -1.
</event>
<event>
 7    1  0.6219721E-006  0.1062475E+03  0.7818608E-02  0.1369156E+00
          2   -1    0    0  502    0  0.00000000000E+00  0.00000000000E+00  0.19591129978E+03  0.19591129978E+03  0.00000000000E+00 0. -1.
          1   -1    0    0  501    0 -0.00000000000E+00 -0.00000000000E+00 -0.54649122756E+03  0.54649122756E+03  0.00000000000E+00 0. -1.
         25    2    1    2    0    0  0.25627709820E+02  0.64847651421E+02 -0.15670809340E+03  0.21224714631E+03  0.12501770744E+03 0.  0.
          2    1    1    2  501    0 -0.27636299705E+01  0.42669914231E+02 -0.34257616463E+03  0.34523439546E+03  0.00000000000E+00 0. -1.
          1    1    1    2  502    0 -0.22864079850E+02 -0.10751756565E+03  0.14870433025E+03  0.18492098557E+03  0.00000000000E+00 0. -1.
         22    1    3    3    0    0 -0.39949681491E+02  0.40829226268E+02 -0.23353105260E+02  0.61711994735E+02  0.00000000000E+00 0.  1.
         22    1    3    3    0    0  0.65577391311E+02  0.24018425153E+02 -0.13335498814E+03  0.15053515157E+03  0.00000000000E+00 0.  1.
</event>
<event>
 7    1  0.6219721E-006  0.6077104E+02  0.7818608E-02  0.1451645E+00
          2   -1    0    0  502    0  0.00000000000E+00  0.00000000000E+00  0.91743532869E+02  0.91743532869E+02  0.00000000000E+00 0. -1.
          1   -1    0    0  501    0 -0.00000000000E+00 -0.00000000000E+00 -0.50697504604E+03  0.50697504604E+03  0.00000000000E+00 0. -1.
         25    2    1    2    0    0  0.38139126930E+02 -0.42723696876E+02 -0.18417759025E+02  0.13871952786E+03  0.12499594507E+03 0.  0.
          2    1    1    2  501    0 -0.31816323008E+02 -0.23014094809E+02 -0.39180545249E+03  0.39376825617E+03  0.00000000000E+00 0. -1.
          1    1    1    2  502    0 -0.63228039225E+01  0.65737791685E+02 -0.50083016604E+01  0.66230794881E+02  0.00000000000E+00 0. -1.
         22    1    3    3    0    0 -0.12027443213E+02 -0.20528307367E+02 -0.63438561358E+02  0.67753390032E+02  0.00000000000E+00 0.  1.
         22    1    3    3    0    0  0.50166570144E+02 -0.22195389509E+02  0.45020802333E+02  0.70966137827E+02  0.00000000000E+00 0.  1.
</event>
<event>
 7    1  0.6219721E-006  0.1022165E+03  0.7818608E-02  0.1290634E+00
          2   -1    0    0  502    0  0.00000000000E+00  0.00000000000E+00  0.53439911882E+03  0.53439911882E+03  0.00000000000E+00 0. -1.
          1   -1    0    0  501    0 -0.00000000000E+00 -0.00000000000E+00 -0.38965484982E+03  0.38965484982E+03  0.00000000000E+00 0. -1.
         25    2    1    2    0    0 -0.15809707487E+03  0.62470481578E+02  0.23065558384E+03  0.31260796400E+03  0.12499797860E+03 0.  0.
          2    1    1    2  501    0  0.69929287831E+02 -0.72543630429E+02 -0.33352380307E+03  0.34841184083E+03  0.00000000000E+00 0. -1.
          1    1    1    2  502    0  0.88167787036E+02  0.10073148851E+02  0.24761248824E+03  0.26303416381E+03  0.00000000000E+00 0. -1.
         22    1    3    3    0    0 -0.64963622408E+02  0.62312210327E+02  0.19145420643E+03  0.21156038607E+03  0.00000000000E+00 0. -1.
         22    1    3    3    0    0 -0.93133452459E+02  0.15827125125E+00  0.39201377404E+02  0.10104757794E+03  0.00000000000E+00 0. -1.
</event>
<event>
 7    1  0.7312491E-006  0.8935453E+02  0.7818608E-02  0.1307442E+00
          2   -1    0    0  502    0  0.00000000000E+00  0.00000000000E+00  0.98956610531E+03  0.98956610531E+03  0.00000000000E+00 0. -1.
          1   -1    0    0  501    0 -0.00000000000E+00 -0.00000000000E+00 -0.25444011528E+04  0.25444011528E+04  0.00000000000E+00 0. -1.
         25    2    1    2    0    0 -0.14581579566E+02 -0.14637160738E+03 -0.17418200606E+04  0.17524833802E+04  0.12499441807E+03 0.  0.
          2    1    1    2  501    0  0.55439392146E+02  0.66950120695E+02 -0.79284290290E+03  0.79759370204E+03  0.00000000000E+00 0. -1.
          1    1    1    2  502    0 -0.40857812580E+02  0.79421486688E+02  0.97982791594E+03  0.98389017591E+03  0.00000000000E+00 0. -1.
         22    1    3    3    0    0  0.26041456517E+02 -0.76184175941E+02 -0.38951005085E+03  0.39774397020E+03  0.00000000000E+00 0. -1.
         22    1    3    3    0    0 -0.40623036083E+02 -0.70187431442E+02 -0.13523100097E+04  0.13547394100E+04  0.00000000000E+00 0. -1.
</event>
<event>
 7    1  0.6219721E-006  0.4412717E+02  0.7818608E-02  0.1569198E+00
          2   -1    0    0  502    0  0.00000000000E+00  0.00000000000E+00  0.57961154678E+03  0.57961154678E+03  0.00000000000E+00 0. -1.
          1   -1    0    0  501    0 -0.00000000000E+00 -0.00000000000E+00 -0.25700495708E+02  0.25700495708E+02  0.00000000000E+00 0. -1.
         25    2    1    2    0    0 -0.25147618917E+02 -0.21965017149E+01  0.35950478114E+03  0.38145227304E+03  0.12499968637E+03 0.  0.
          2    1    1    2  501    0 -0.24343137300E+02  0.85804832318E+00  0.11747171870E+01  0.24386564764E+02  0.00000000000E+00 0. -1.
          1    1    1    2  502    0  0.49490756216E+02  0.13384533917E+01  0.19323155274E+03  0.19947320468E+03  0.00000000000E+00 0. -1.
         22    1    3    3    0    0 -0.24958586017E+02  0.29595192633E+02  0.34383575872E+03  0.34600843259E+03  0.00000000000E+00 0. -1.
         22    1    3    3    0    0 -0.18903289928E+00 -0.31791694348E+02  0.15669022413E+02  0.35443840457E+02  0.00000000000E+00 0. -1.
</event>
<event>
 7    1  0.6219721E-006  0.6234134E+02  0.7818608E-02  0.1434348E+00
          2   -1    0    0  502    0  0.00000000000E+00  0.00000000000E+00  0.61123802717E+03  0.61123802717E+03  0.00000000000E+00 0. -1.
          1   -1    0    0  501    0 -0.00000000000E+00 -0.00000000000E+00 -0.77483571840E+02  0.77483571840E+02  0.00000000000E+00 0. -1.
         25    2    1    2    0    0 -0.65209989695E+01 -0.52814706561E+02  0.25156326521E+03  0.28590441098E+03  0.12500135662E+03 0.  0.
          2    1    1    2  501    0  0.43480467198E+02 -0.22009214770E+01 -0.48717744605E+02  0.65336159380E+02  0.00000000000E+00 0. -1.
          1    1    1    2  502    0 -0.36959468228E+02  0.55015628038E+02  0.33090893472E+03  0.33748102865E+03  0.00000000000E+00 0. -1.
         22    1    3    3    0    0 -0.16537458771E+02 -0.62277698784E+02  0.44326924358E+02  0.78210456663E+02  0.00000000000E+00 0. -1.
         22    1    3    3    0    0  0.10016459802E+02  0.94629922228E+01  0.20723634086E+03  0.20769395432E+03  0.00000000000E+00 0. -1.
</event>
<event>
 7    1  0.6219721E-006  0.9640440E+02  0.7818608E-02  0.1480997E+00
          2   -1    0    0  502    0  0.00000000000E+00  0.00000000000E+00  0.99857881188E+02  0.99857881188E+02  0.00000000000E+00 0. -1.
          1   -1    0    0  501    0 -0.00000000000E+00 -0.00000000000E+00 -0.27832525838E+03  0.27832525838E+03  0.00000000000E+00 0. -1.
         25    2    1    2    0    0  0.86054423352E+02  0.67273670657E+02 -0.72548988792E+02  0.18116145842E+03  0.12500003080E+03 0.  0.
          2    1    1    2  501    0 -0.19646239086E+02 -0.39407007182E+01 -0.10329189340E+03  0.10521748465E+03  0.00000000000E+00 0. -1.
          1    1    1    2  502    0 -0.66408184266E+02 -0.63332969939E+02 -0.26264949946E+01  0.91804196499E+02  0.00000000000E+00 0. -1.
         22    1    3    3    0    0 -0.19707477012E+02  0.49205448644E+02 -0.25782479023E+01  0.53067958211E+02  0.00000000000E+00 0. -1.
         22    1    3    3    0    0  0.10576190036E+03  0.18068222013E+02 -0.69970740890E+02  0.12809350021E+03  0.00000000000E+00 0. -1.
</event>
<event>
 7    1  0.6219721E-006  0.7489467E+02  0.7818608E-02  0.1348027E+00
          2   -1    0    0  502    0  0.00000000000E+00  0.00000000000E+00  0.14927945679E+04  0.14927945679E+04  0.00000000000E+00 0. -1.
          1   -1    0    0  501    0 -0.00000000000E+00 -0.00000000000E+00 -0.12549481103E+03  0.12549481103E+03  0.00000000000E+00 0. -1.
         25    2    1    2    0    0 -0.31524201751E+02  0.13502466902E+03  0.29093680534E+03  0.34568238807E+03  0.12500660854E+03 0.  0.
          2    1    1    2  501    0  0.36354105717E+02 -0.62695529866E+02 -0.83452115581E+02  0.11052875672E+03  0.00000000000E+00 0. -1.
          1    1    1    2  502    0 -0.48299039654E+01 -0.72329139157E+02  0.11598150671E+04  0.11620782341E+04  0.00000000000E+00 0. -1.
         22    1    3    3    0    0  0.25769005341E+02 -0.65933036882E+01  0.86333385614E+02  0.90338069281E+02  0.00000000000E+00 0.  1.
         22    1    3    3    0    0 -0.57293207092E+02  0.14161797271E+03  0.20460341973E+03  0.25534431879E+03  0.00000000000E+00 0.  1.
</event>
<event>
 7    1  0.6219721E-006  0.1631356E+03  0.7818608E-02  0.1187747E+00
          2   -1    0    0  502    0  0.00000000000E+00  0.00000000000E+00  0.77111387966E+03  0.77111387966E+03  0.00000000000E+00 0. -1.
          1   -1    0    0  501    0 -0.00000000000E+00 -0.00000000000E+00 -0.10504853406E+04  0.10504853406E+04  0.00000000000E+00 0. -1.
         25    2    1    2    0    0 -0.16211347189E+03  0.11527425614E+03  0.56522684858E+02  0.24163903585E+03  0.12500271135E+03 0.  0.
          2    1    1    2  501    0  0.12070230525E+01 -0.15857967099E+03 -0.94000566400E+03  0.95328884254E+03  0.00000000000E+00 0. -1.
          1    1    1    2  502    0  0.16090644883E+03  0.43305414857E+02  0.60411151823E+03  0.62667134184E+03  0.00000000000E+00 0. -1.
         22    1    3    3    0    0 -0.78635466291E+02  0.71929314515E+02 -0.33226297955E+02  0.11163041575E+03  0.00000000000E+00 0. -1.
         22    1    3    3    0    0 -0.83478005595E+02  0.43344941620E+02  0.89748982813E+02  0.13000862009E+03  0.00000000000E+00 0. -1.
</event>
<event>
 7    1  0.6219721E-006  0.9531558E+02  0.7818608E-02  0.1329468E+00
          2   -1    0    0  502    0  0.00000000000E+00  0.00000000000E+00  0.31549129169E+04  0.31549129169E+04  0.00000000000E+00 0. -1.
          1   -1    0    0  501    0 -0.00000000000E+00 -0.00000000000E+00 -0.29520723008E+03  0.29520723008E+03  0.00000000000E+00 0. -1.
         25    2    1    2    0    0  0.94045752439E+02 -0.87676566142E+02  0.21321752535E+03  0.27859966793E+03  0.12499711217E+03 0.  0.
          2    1    1    2  501    0 -0.92433101786E+02  0.20796673583E+02 -0.25356940977E+03  0.27069138425E+03  0.00000000000E+00 0. -1.
          1    1    1    2  502    0 -0.16126506531E+01  0.66879892559E+02  0.29000575712E+04  0.29008290948E+04  0.00000000000E+00 0. -1.
         22    1    3    3    0    0  0.19692415918E+02 -0.56228398114E+02  0.10628389107E+02  0.60517655723E+02  0.00000000000E+00 0.  1.
         22    1    3    3    0    0  0.74353336520E+02 -0.31448168028E+02  0.20258913624E+03  0.21808201221E+03  0.00000000000E+00 0.  1.
</event>
<event>
 7    1  0.6219721E-006  0.7693061E+02  0.7818608E-02  0.1489984E+00
          2   -1    0    0  502    0  0.00000000000E+00  0.00000000000E+00  0.10502855930E+03  0.10502855930E+03  0.00000000000E+00 0. -1.
          1   -1    0    0  501    0 -0.00000000000E+00 -0.00000000000E+00 -0.15331343904E+04  0.15331343904E+04  0.00000000000E+00 0. -1.
         25    2    1    2    0    0  0.52339777268E+02 -0.83374785229E+02 -0.57910555550E+03  0.60056317230E+03  0.12498828911E+03 0.  0.
          2    1    1    2  501    0 -0.57275514120E+01  0.22870462507E+02 -0.92766040667E+03  0.92795996304E+03  0.00000000000E+00 0. -1.
          1    1    1    2  502    0 -0.46612225856E+02  0.60504322722E+02  0.78660131089E+02  0.10963981435E+03  0.00000000000E+00 0. -1.
         22    1    3    3    0    0 -0.15046656893E+02 -0.81735524125E+02 -0.41341879625E+03  0.42168969501E+03  0.00000000000E+00 0. -1.
         22    1    3    3    0    0  0.67386434161E+02 -0.16392611040E+01 -0.16568675925E+03  0.17887347728E+03  0.00000000000E+00 0. -1.
</event>
<event>
 7    1  0.6219721E-006  0.1326398E+03  0.7818608E-02  0.1237222E+00
          2   -1    0    0  502    0  0.00000000000E+00  0.00000000000E+00  0.63620778484E+03  0.63620778484E+03  0.00000000000E+00 0. -1.
          1   -1    0    0  501    0 -0.00000000000E+00 -0.00000000000E+00 -0.36453631083E+04  0.36453631083E+04  0.00000000000E+00 0. -1.
         25    2    1    2    0    0  0.69985084631E+02  0.15371244370E+03 -0.89852421167E+03  0.92276587169E+03  0.12500267022E+03 0.  0.
          2    1    1    2  501    0  0.52479527689E+02 -0.10259326917E+03 -0.27264325578E+04  0.27288667926E+04  0.00000000000E+00 0. -1.
          1    1    1    2  502    0 -0.12246461232E+03 -0.51119174537E+02  0.61580144599E+03  0.62993822885E+03  0.00000000000E+00 0. -1.
         22    1    3    3    0    0  0.61557711381E+02  0.67393206484E+02 -0.70259426307E+03  0.70849833776E+03  0.00000000000E+00 0. -1.
         22    1    3    3    0    0  0.84273732495E+01  0.86319237220E+02 -0.19592994861E+03  0.21426753393E+03  0.00000000000E+00 0. -1.
</event>
<event>
 7    1  0.6219721E-006  0.7504127E+02  0.7818608E-02  0.1486640E+00
          2   -1    0    0  502    0  0.00000000000E+00  0.00000000000E+00  0.10063064180E+04  0.10063064180E+04  0.00000000000E+00 0. -1.
          1   -1    0    0  501    0 -0.00000000000E+00 -0.00000000000E+00 -0.15293309477E+03  0.15293309477E+03  0.00000000000E+00 0. -1.
         25    2    1    2    0    0 -0.84096083522E+02  0.52789449362E+02  0.60425065492E+03  0.62498225862E+03  0.12500036958E+03 0.  0.
          2    1    1    2  501    0  0.62160708549E+02 -0.41345273807E+02 -0.13236576645E+03  0.15196736979E+03  0.00000000000E+00 0. -1.
          1    1    1    2  502    0  0.21935374973E+02 -0.11444175555E+02  0.38148843475E+03  0.38228988435E+03  0.00000000000E+00 0. -1.
         22    1    3    3    0    0 -0.40621138568E+02  0.79591945610E+02  0.22160073145E+03  0.23893898569E+03  0.00000000000E+00 0.  1.
         22    1    3    3    0    0 -0.43474944954E+02 -0.26802496248E+02  0.38264992347E+03  0.38604327293E+03  0.00000000000E+00 0.  1.
</event>
<event>
 7    1  0.6219721E-006  0.1849713E+03  0.7818608E-02  0.1374590E+00
          2   -1    0    0  502    0  0.00000000000E+00  0.00000000000E+00  0.14814517565E+04  0.14814517565E+04  0.00000000000E+00 0. -1.
          1   -1    0    0  501    0 -0.00000000000E+00 -0.00000000000E+00 -0.79623434464E+02  0.79623434464E+02  0.00000000000E+00 0. -1.
         25    2    1    2    0    0  0.61032326907E+02  0.15408889961E+03  0.12256620681E+03  0.24107128483E+03  0.12499822161E+03 0.  0.
          2    1    1    2  501    0 -0.16009330854E+01  0.23428938115E+02 -0.34215621766E+01  0.23731523669E+02  0.00000000000E+00 0. -1.
          1    1    1    2  502    0 -0.59431393822E+02 -0.17751783772E+03  0.12826836774E+04  0.12962723825E+04  0.00000000000E+00 0. -1.
         22    1    3    3    0    0  0.75417649113E+02  0.27683399686E+02  0.45486195475E+02  0.92321104817E+02  0.00000000000E+00 0. -1.
         22    1    3    3    0    0 -0.14385322206E+02  0.12640549992E+03  0.77080011340E+02  0.14875018001E+03  0.00000000000E+00 0. -1.
</event>
<event>
 7    1  0.6219721E-006  0.7292316E+02  0.7818608E-02  0.1425916E+00
          2   -1    0    0  502    0  0.00000000000E+00  0.00000000000E+00  0.57550900304E+03  0.57550900304E+03  0.00000000000E+00 0. -1.
          1   -1    0    0  501    0 -0.00000000000E+00 -0.00000000000E+00 -0.28585914056E+04  0.28585914056E+04  0.00000000000E+00 0. -1.
         25    2    1    2    0    0 -0.68606557406E+01  0.46614285058E+02 -0.55494821988E+02  0.14465783508E+03  0.12500501515E+03 0.  0.
          2    1    1    2  501    0  0.32724643966E+02  0.22431861451E+02 -0.27558117780E+04  0.27560973580E+04  0.00000000000E+00 0. -1.
          1    1    1    2  502    0 -0.25863988225E+02 -0.69046146509E+02  0.52822419745E+03  0.53334521560E+03  0.00000000000E+00 0. -1.
         22    1    3    3    0    0  0.30038770573E+02  0.55497813040E+02 -0.78156894564E+02  0.10045314907E+03  0.00000000000E+00 0. -1.
         22    1    3    3    0    0 -0.36899426314E+02 -0.88835279817E+01  0.22662072577E+02  0.44204686009E+02  0.00000000000E+00 0. -1.
</event>
<event>
 7    1  0.6219721E-006  0.2443185E+02  0.7818608E-02  0.1680992E+00
          2   -1    0    0  502    0  0.00000000000E+00  0.00000000000E+00  0.13897621155E+04  0.13897621155E+04  0.00000000000E+00 0. -1.
          1   -1    0    0  501    0 -0.00000000000E+00 -0.00000000000E+00 -0.72984481289E+03  0.72984481289E+03  0.00000000000E+00 0. -1.
         25    2    1    2    0    0  0.25605459977E+02  0.16441517513E+01  0.26789246135E+03  0.29673187383E+03  0.12500036514E+03 0.  0.
          2    1    1    2  501    0 -0.15477014492E+02  0.18913482736E+02 -0.71509778133E+03  0.71551526515E+03  0.00000000000E+00 0. -1.
          1    1    1    2  502    0 -0.10128445485E+02 -0.20557634488E+02  0.11071226225E+04  0.11073597894E+04  0.00000000000E+00 0. -1.
         22    1    3    3    0    0  0.15369110885E+02  0.33569295121E+01  0.28019499162E+03  0.28063626258E+03  0.00000000000E+00 0.  1.
         22    1    3    3    0    0  0.10236349093E+02 -0.17127777608E+01 -0.12302530274E+02  0.16095611251E+02  0.00000000000E+00 0.  1.
</event>
<event>
 7    1  0.6219721E-006  0.3863313E+02  0.7818608E-02  0.1526058E+00
          2   -1    0    0  502    0  0.00000000000E+00  0.00000000000E+00  0.13564188817E+04  0.13564188817E+04  0.00000000000E+00 0. -1.
          1   -1    0    0  501    0 -0.00000000000E+00 -0.00000000000E+00 -0.42427082035E+03  0.42427082035E+03  0.00000000000E+00 0. -1.
         25    2    1    2    0    0 -0.22996602818E+02  0.28515932369E+02 -0.25067077594E+03  0.28249268734E+03  0.12499711336E+03 0.  0.
          2    1    1    2  501    0 -0.15349657483E+02 -0.33379262177E+02 -0.15526625607E+03  0.15955374456E+03  0.00000000000E+00 0. -1.
          1    1    1    2  502    0  0.38346260301E+02  0.48633298081E+01  0.13380850934E+04  0.13386432702E+04  0.00000000000E+00 0. -1.
         22    1    3    3    0    0 -0.49373086289E+02  0.47041098627E+02 -0.23846926201E+03  0.24802853774E+03  0.00000000000E+00 0.  1.
         22    1    3    3    0    0  0.26376483471E+02 -0.18525166258E+02 -0.12201513931E+02  0.34464149596E+02  0.00000000000E+00 0.  1.
</event>
<event>
 7    1  0.6219721E-006  0.1286560E+03  0.7818608E-02  0.1231280E+00
          2   -1    0    0  502    0  0.00000000000E+00  0.00000000000E+00  0.65196193845E+03  0.65196193845E+03  0.00000000000E+00 0. -1.
          1   -1    0    0  501    0 -0.00000000000E+00 -0.00000000000E+00 -0.17744612484E+04  0.17744612484E+04  0.00000000000E+00 0. -1.
         25    2    1    2    0    0  0.49420738742E+02  0.12895281826E+03 -0.63388980665E+03  0.66069025021E+03  0.12499632390E+03 0.  0.
          2    1    1    2  501    0  0.76335851289E+02 -0.11760818534E+03 -0.11165014709E+04  0.11252708038E+04  0.00000000000E+00 0. -1.
          1    1    1    2  502    0 -0.12575659003E+03 -0.11344632919E+02  0.62789196758E+03  0.64046213283E+03  0.00000000000E+00 0. -1.
         22    1    3    3    0    0 -0.40093402779E+02  0.34101070938E+02 -0.13136973202E+03  0.14152162548E+03  0.00000000000E+00 0. -1.
         22    1    3    3    0    0  0.89514141521E+02  0.94851747319E+02 -0.50252007463E+03  0.51916862473E+03  0.00000000000E+00 0. -1.
</event>
<event>
 7    1  0.6219721E-006  0.4977364E+02  0.7818608E-02  0.1521055E+00
          2   -1    0    0  502    0  0.00000000000E+00  0.00000000000E+00  0.58956268442E+03  0.58956268442E+03  0.00000000000E+00 0. -1.
          1   -1    0    0  501    0 -0.00000000000E+00 -0.00000000000E+00 -0.10873619771E+03  0.10873619771E+03  0.00000000000E+00 0. -1.
         25    2    1    2    0    0 -0.43132091764E+02 -0.85703705477E+01  0.23675265215E+03  0.27131368552E+03  0.12500187623E+03 0.  0.
          2    1    1    2  501    0 -0.37870480097E+01  0.29237374163E+02 -0.87054608157E+02  0.91911210317E+02  0.00000000000E+00 0. -1.
          1    1    1    2  502    0  0.46919139773E+02 -0.20667003615E+02  0.33112844271E+03  0.33507398629E+03  0.00000000000E+00 0. -1.
         22    1    3    3    0    0  0.11436742661E+02  0.54887076812E+01 -0.11270843736E+02  0.16969293245E+02  0.00000000000E+00 0. -1.
         22    1    3    3    0    0 -0.54568834424E+02 -0.14059078229E+02  0.24802349588E+03  0.25434439228E+03  0.00000000000E+00 0. -1.
</event>
<event>
 7    1  0.6219721E-006  0.7721121E+02  0.7818608E-02  0.1441043E+00
          2   -1    0    0  502    0  0.00000000000E+00  0.00000000000E+00  0.96178764252E+03  0.96178764252E+03  0.00000000000E+00 0. -1.
          1   -1    0    0  501    0 -0.00000000000E+00 -0.00000000000E+00 -0.96115025466E+03  0.96115025466E+03  0.00000000000E+00 0. -1.
         25    2    1    2    0    0 -0.18666503075E+02 -0.87517928032E+02  0.66052007449E+02  0.16732610003E+03  0.12500931966E+03 0.  0.
          2    1    1    2  501    0  0.42668703161E+02  0.64247440327E+02 -0.90854811345E+03  0.91181578527E+03  0.00000000000E+00 0. -1.
          1    1    1    2  502    0 -0.24002200086E+02  0.23270487704E+02  0.84313349385E+03  0.84379601188E+03  0.00000000000E+00 0. -1.
         22    1    3    3    0    0  0.19192141420E+02 -0.81129563126E+02 -0.81636027569E+01  0.83767468120E+02  0.00000000000E+00 0.  1.
         22    1    3    3    0    0 -0.37858644496E+02 -0.63883649059E+01  0.74215610206E+02  0.83558631914E+02  0.00000000000E+00 0.  1.
</event>
<event>
 7    1  0.6219721E-006  0.8993686E+02  0.7818608E-02  0.1335059E+00
          2   -1    0    0  502    0  0.00000000000E+00  0.00000000000E+00  0.15078424769E+04  0.15078424769E+04  0.00000000000E+00 0. -1.
          1   -1    0    0  501    0 -0.00000000000E+00 -0.00000000000E+00 -0.13245994228E+03  0.13245994228E+03  0.00000000000E+00 0. -1.
         25    2    1    2    0    0  0.11573438065E+02  0.24794098506E+02  0.65313083172E+02  0.14366346235E+03  0.12499879917E+03 0.  0.
          2    1    1    2  501    0  0.54383826428E+02  0.39999084164E+02 -0.79329720978E+02  0.10416684665E+03  0.00000000000E+00 0. -1.
          1    1    1    2  502    0 -0.65957264494E+02 -0.64793182670E+02  0.13893991725E+04  0.13924721102E+04  0.00000000000E+00 0. -1.
         22    1    3    3    0    0 -0.56584968667E+02  0.15125974139E+02  0.36654781357E+02  0.69095779676E+02  0.00000000000E+00 0.  1.
         22    1    3    3    0    0  0.68158406732E+02  0.96681243672E+01  0.28658301815E+02  0.74567682678E+02  0.00000000000E+00 0.  1.
</event>
<event>
 7    1  0.6219721E-006  0.1581088E+03  0.7818608E-02  0.1277247E+00
          2   -1    0    0  502    0  0.00000000000E+00  0.00000000000E+00  0.13798822920E+04  0.13798822920E+04  0.00000000000E+00 0. -1.
          1   -1    0    0  501    0 -0.00000000000E+00 -0.00000000000E+00 -0.57399164997E+02  0.57399164997E+02  0.00000000000E+00 0. -1.
         25    2    1    2    0    0  0.50416149074E+02 -0.99858867412E+02  0.64785340914E+03  0.66921634863E+03  0.12499159995E+03 0.  0.
          2    1    1    2  501    0 -0.42683927657E+02  0.16451153646E+03  0.11627551087E+03  0.20592706898E+03  0.00000000000E+00 0. -1.
          1    1    1    2  502    0 -0.77322214172E+01 -0.64652669047E+02  0.55835420702E+03  0.56213803942E+03  0.00000000000E+00 0. -1.
         22    1    3    3    0    0  0.51892142998E+01 -0.11653800506E+03  0.51021818928E+03  0.52338383166E+03  0.00000000000E+00 0. -1.
         22    1    3    3    0    0  0.45226934774E+02  0.16679137649E+02  0.13763521985E+03  0.14583251697E+03  0.00000000000E+00 0. -1.
</event>
<event>
 7    1  0.6219721E-006  0.1590594E+03  0.7818608E-02  0.1400017E+00
          2   -1    0    0  502    0  0.00000000000E+00  0.00000000000E+00  0.19374717695E+04  0.19374717695E+04  0.00000000000E+00 0. -1.
          1   -1    0    0  501    0 -0.00000000000E+00 -0.00000000000E+00 -0.19453516012E+03  0.19453516012E+03  0.00000000000E+00 0. -1.
         25    2    1    2    0    0 -0.16261549868E+03  0.37436530564E+02  0.15270271109E+04  0.15411949808E+04  0.12499950891E+03 0.  0.
          2    1    1    2  501    0  0.22040860135E+02 -0.30009058384E+01 -0.17373642856E+03  0.17515465041E+03  0.00000000000E+00 0. -1.
          1    1    1    2  502    0  0.14057463854E+03 -0.34435624725E+02  0.38964592702E+03  0.41565729838E+03  0.00000000000E+00 0. -1.
         22    1    3    3    0    0 -0.50547446191E+02  0.22359976569E+02  0.10293672359E+04  0.10308500954E+04  0.00000000000E+00 0. -1.
         22    1    3    3    0    0 -0.11206805249E+03  0.15076553995E+02  0.49765987502E+03  0.51034488542E+03  0.00000000000E+00 0. -1.
</event>
<event>
 7    1  0.6219721E-006  0.1565279E+03  0.7818608E-02  0.1203843E+00
          2   -1    0    0  502    0  0.00000000000E+00  0.00000000000E+00  0.20061678317E+03  0.20061678317E+03  0.00000000000E+00 0. -1.
          1   -1    0    0  501    0 -0.00000000000E+00 -0.00000000000E+00 -0.11060700825E+04  0.11060700825E+04  0.00000000000E+00 0. -1.
         25    2    1    2    0    0 -0.11132715533E+03 -0.94444599937E+02 -0.87977524646E+03  0.90052410773E+03  0.12500266531E+03 0.  0.
          2    1    1    2  501    0 -0.43834654389E+02  0.13148368187E+03 -0.14976931702E+03  0.20405951054E+03  0.00000000000E+00 0. -1.
          1    1    1    2  502    0  0.15516180972E+03 -0.37039081929E+02  0.12409126413E+03  0.20210324742E+03  0.00000000000E+00 0. -1.
         22    1    3    3    0    0 -0.83840130330E+02  0.67912764334E+01 -0.31201247440E+03  0.32315178024E+03  0.00000000000E+00 0.  1.
         22    1    3    3    0    0 -0.27487024999E+02 -0.10123587637E+03 -0.56776277206E+03  0.57737232749E+03  0.00000000000E+00 0.  1.
</event>
<event>
 7    1  0.6219721E-006  0.1304287E+03  0.7818608E-02  0.1360621E+00
          2   -1    0    0  502    0  0.00000000000E+00  0.00000000000E+00  0.21510754926E+04  0.21510754926E+04  0.00000000000E+00 0. -1.
          1   -1    0    0  501    0 -0.00000000000E+00 -0.00000000000E+00 -0.18760266948E+03  0.18760266948E+03  0.00000000000E+00 0. -1.
         25    2    1    2    0    0 -0.88001400016E+02 -0.33064377119E+02  0.88119533554E+03  0.89497071011E+03  0.12501941102E+03 0.  0.
          2    1    1    2  501    0  0.12307131486E+03  0.46065463839E+02 -0.15650611576E+03  0.20435933982E+03  0.00000000000E+00 0. -1.
          1    1    1    2  502    0 -0.35069914843E+02 -0.13001086720E+02  0.12387836034E+04  0.12393481122E+04  0.00000000000E+00 0. -1.
         22    1    3    3    0    0 -0.10693637251E+02 -0.27205711169E+02  0.65881347705E+03  0.65946167602E+03  0.00000000000E+00 0.  1.
         22    1    3    3    0    0 -0.77307762765E+02 -0.58586659504E+01  0.22238185849E+03  0.23550903409E+03  0.00000000000E+00 0.  1.
</event>
<event>
 7    1  0.6219721E-006  0.1150432E+03  0.7818608E-02  0.1259429E+00
          2   -1    0    0  502    0  0.00000000000E+00  0.00000000000E+00  0.16069262632E+04  0.16069262632E+04  0.00000000000E+00 0. -1.
          1   -1    0    0  501    0 -0.00000000000E+00 -0.00000000000E+00 -0.59392774777E+03  0.59392774777E+03  0.00000000000E+00 0. -1.
         25    2    1    2    0    0 -0.36637454374E+02  0.10009007463E+03  0.13776892899E+03  0.21439704333E+03  0.12500195314E+03 0.  0.
          2    1    1    2  501    0 -0.69555274707E+02 -0.94055052858E+02 -0.54744906459E+03  0.55980779517E+03  0.00000000000E+00 0. -1.
          1    1    1    2  502    0  0.10619272908E+03 -0.60350217704E+01  0.14226786511E+04  0.14266491725E+04  0.00000000000E+00 0. -1.
         22    1    3    3    0    0  0.44867516493E+02  0.17759896957E+02  0.36143786698E+02  0.60289976721E+02  0.00000000000E+00 0. -1.
         22    1    3    3    0    0 -0.81504970867E+02  0.82330177672E+02  0.10162514229E+03  0.15410706660E+03  0.00000000000E+00 0. -1.
</event>
<event>
 7    1  0.6219721E-006  0.1713707E+03  0.7818608E-02  0.1182757E+00
          2   -1    0    0  502    0  0.00000000000E+00  0.00000000000E+00  0.40089220145E+04  0.40089220145E+04  0.00000000000E+00 0. -1.
          1   -1    0    0  501    0 -0.00000000000E+00 -0.00000000000E+00 -0.16651397263E+03  0.16651397263E+03  0.00000000000E+00 0. -1.
         25    2    1    2    0    0  0.36075740659E+02  0.79608879664E+02  0.37637860358E+03  0.40611401662E+03  0.12501483302E+03 0.  0.
          2    1    1    2  501    0 -0.17590178799E+03  0.19469901425E+02 -0.97242010098E+02  0.20193198015E+03  0.00000000000E+00 0. -1.
          1    1    1    2  502    0  0.13982604734E+03 -0.99078781089E+02  0.35632714484E+04  0.35673899904E+04  0.00000000000E+00 0. -1.
         22    1    3    3    0    0 -0.72105041829E+01  0.73042622819E+02  0.88732049746E+02  0.11515464720E+03  0.00000000000E+00 0. -1.
         22    1    3    3    0    0  0.43286244842E+02  0.65662568455E+01  0.28764655384E+03  0.29095936943E+03  0.00000000000E+00 0. -1.
</event>
<event>
 7    1  0.6219721E-006  0.9502324E+02  0.7818608E-02  0.1292526E+00
          2   -1    0    0  502    0  0.00000000000E+00  0.00000000000E+00  0.21588744746E+03  0.21588744746E+03  0.00000000000E+00 0. -1.
          1   -1    0    0  501    0 -0.00000000000E+00 -0.00000000000E+00 -0.80294556994E+03  0.80294556994E+03  0.00000000000E+00 0. -1.
         25    2    1    2    0    0  0.11797640468E+02  0.49963957447E+01 -0.82385999387E+02  0.15025345103E+03  0.12499799342E+03 0.  0.
          2    1    1    2  501    0  0.92835067404E+02  0.13332209783E+02 -0.66755951719E+03  0.67411557358E+03  0.00000000000E+00 0. -1.
          1    1    1    2  502    0 -0.10463270787E+03 -0.18328605528E+02  0.16288739409E+03  0.19446399279E+03  0.00000000000E+00 0. -1.
         22    1    3    3    0    0  0.56033515767E+02  0.90165310534E+01 -0.88787038724E+02  0.10537642510E+03  0.00000000000E+00 0.  1.
         22    1    3    3    0    0 -0.44235875299E+02 -0.40201353087E+01  0.64010393372E+01  0.44877025926E+02  0.00000000000E+00 0.  1.
</event>
<event>
 7    1  0.6219721E-006  0.4775496E+02  0.7818608E-02  0.1561972E+00
          2   -1    0    0  502    0  0.00000000000E+00  0.00000000000E+00  0.46776943500E+03  0.46776943500E+03  0.00000000000E+00 0. -1.
          1   -1    0    0  501    0 -0.00000000000E+00 -0.00000000000E+00 -0.12322657409E+03  0.12322657409E+03  0.00000000000E+00 0. -1.
         25    2    1    2    0    0  0.12594553249E+02 -0.29736914493E+02 -0.73525263287E+01  0.12931312204E+03  0.12499966813E+03 0.  0.
          2    1    1    2  501    0  0.23454119201E+02 -0.21754188524E+01 -0.50865503619E+02  0.56054684132E+02  0.00000000000E+00 0. -1.
          1    1    1    2  502    0 -0.36048672450E+02  0.31912333345E+02  0.40276089085E+03  0.40562820292E+03  0.00000000000E+00 0. -1.
         22    1    3    3    0    0 -0.12152676575E+02  0.45687658976E+02 -0.14914441812E+02  0.49573080449E+02  0.00000000000E+00 0. -1.
         22    1    3    3    0    0  0.24747229824E+02 -0.75424573469E+02  0.75619154831E+01  0.79740041589E+02  0.00000000000E+00 0. -1.
</event>
<event>
 7    1  0.6219721E-006  0.9545053E+02  0.7818608E-02  0.1349713E+00
          2   -1    0    0  502    0  0.00000000000E+00  0.00000000000E+00  0.45845039348E+04  0.45845039348E+04  0.00000000000E+00 0. -1.
          1   -1    0    0  501    0 -0.00000000000E+00 -0.00000000000E+00 -0.23943887185E+03  0.23943887185E+03  0.00000000000E+00 0. -1.
         25    2    1    2    0    0  0.12695191728E+03  0.10191263872E+02  0.19332807664E+04  0.19414994936E+04  0.12500044385E+03 0.  0.
          2    1    1    2  501    0 -0.46263450564E+02  0.31647236876E+02 -0.23119948728E+03  0.23789715715E+03  0.00000000000E+00 0. -1.
          1    1    1    2  502    0 -0.80688466713E+02 -0.41838500748E+02  0.26429837839E+04  0.26445461559E+04  0.00000000000E+00 0. -1.
         22    1    3    3    0    0  0.14912576951E+03 -0.12746694293E+01  0.17759715984E+04  0.17822219947E+04  0.00000000000E+00 0. -1.
         22    1    3    3    0    0 -0.22173852235E+02  0.11465933301E+02  0.15730916794E+03  0.15927749893E+03  0.00000000000E+00 0. -1.
</event>
<event>
 7    1  0.6219721E-006  0.1020301E+03  0.7818608E-02  0.1335521E+00
          2   -1    0    0  502    0  0.00000000000E+00  0.00000000000E+00  0.46140920757E+02  0.46140920757E+02  0.00000000000E+00 0. -1.
          1   -1    0    0  501    0 -0.00000000000E+00 -0.00000000000E+00 -0.12376523660E+04  0.12376523660E+04  0.00000000000E+00 0. -1.
         25    2    1    2    0    0  0.54959522699E+02  0.93213668837E+02 -0.27026777488E+03  0.31682631332E+03  0.12499962191E+03 0.  0.
          2    1    1    2  501    0 -0.58206457024E+02  0.11168517040E+02 -0.81790101679E+03  0.82004560890E+03  0.00000000000E+00 0. -1.
          1    1    1    2  502    0  0.32469343247E+01 -0.10438218588E+03 -0.10334265357E+03  0.14692136454E+03  0.00000000000E+00 0. -1.
         22    1    3    3    0    0  0.23090017865E+02  0.20845659128E+02  0.40212649461E+01  0.31366558645E+02  0.00000000000E+00 0. -1.
         22    1    3    3    0    0  0.31869504834E+02  0.72368009709E+02 -0.27428903983E+03  0.28545975467E+03  0.00000000000E+00 0. -1.
</event>
<event>
 7    1  0.6219721E-006  0.5638154E+02  0.7818608E-02  0.1460251E+00
          2   -1    0    0  502    0  0.00000000000E+00  0.00000000000E+00  0.44915885883E+02  0.44915885883E+02  0.00000000000E+00 0. -1.
          1   -1    0    0  501    0 -0.00000000000E+00 -0.00000000000E+00 -0.27288872146E+04  0.27288872146E+04  0.00000000000E+00 0. -1.
         25    2    1    2    0    0  0.36079703500E+02  0.92808581402E+01 -0.24617388329E+03  0.27858359768E+03  0.12497744097E+03 0.  0.
          2    1    1    2  501    0 -0.20094772524E+01  0.39694558537E+02 -0.24351771922E+04  0.24355015199E+04  0.00000000000E+00 0. -1.
          1    1    1    2  502    0 -0.34070226248E+02 -0.48975416678E+02 -0.26202532240E+01  0.59717982906E+02  0.00000000000E+00 0. -1.
         22    1    3    3    0    0  0.18616947965E+02 -0.57924682776E+02 -0.12122699755E+03  0.13563865437E+03  0.00000000000E+00 0. -1.
         22    1    3    3    0    0  0.17462755535E+02  0.67205540916E+02 -0.12494688574E+03  0.14294494331E+03  0.00000000000E+00 0. -1.
</event>
<event>
 7    1  0.6219721E-006  0.1292318E+03  0.7818608E-02  0.1384778E+00
          2   -1    0    0  502    0  0.00000000000E+00  0.00000000000E+00  0.75996337414E+03  0.75996337414E+03  0.00000000000E+00 0. -1.
          1   -1    0    0  501    0 -0.00000000000E+00 -0.00000000000E+00 -0.49300626440E+03  0.49300626440E+03  0.00000000000E+00 0. -1.
         25    2    1    2    0    0  0.31894330451E+01  0.14532154210E+03  0.16291978179E+03  0.25158894993E+03  0.12500248536E+03 0.  0.
          2    1    1    2  501    0  0.22650800318E+02 -0.21063964592E+02 -0.44083684118E+03  0.44192066018E+03  0.00000000000E+00 0. -1.
          1    1    1    2  502    0 -0.25840233363E+02 -0.12425757751E+03  0.54487416912E+03  0.55946002842E+03  0.00000000000E+00 0. -1.
         22    1    3    3    0    0  0.51867083772E+02  0.10555427586E+03  0.62673292918E+02  0.13326605411E+03  0.00000000000E+00 0. -1.
         22    1    3    3    0    0 -0.48677650727E+02  0.39767266242E+02  0.10024648888E+03  0.11832289583E+03  0.00000000000E+00 0. -1.
</event>
<event>
 7    1  0.6219721E-006  0.3613071E+02  0.7818608E-02  0.1573754E+00
          2   -1    0    0  502    0  0.00000000000E+00  0.00000000000E+00  0.12473603821E+02  0.12473603821E+02  0.00000000000E+00 0. -1.
          1   -1    0    0  501    0 -0.00000000000E+00 -0.00000000000E+00 -0.14573457455E+04  0.14573457455E+04  0.00000000000E+00 0. -1.
         25    2    1    2    0    0 -0.87438739982E+01  0.41939189228E+02 -0.84820077262E+03  0.85843152078E+03  0.12499909708E+03 0.  0.
          2    1    1    2  501    0 -0.20504451285E+02 -0.20387183929E+02 -0.55639701605E+03  0.55714783430E+03  0.00000000000E+00 0. -1.
          1    1    1    2  502    0  0.29248325283E+02 -0.21552005299E+02 -0.40274352973E+02  0.54239994208E+02  0.00000000000E+00 0. -1.
         22    1    3    3    0    0 -0.48703624882E+02 -0.57587192669E+01 -0.61883190409E+03  0.62077220576E+03  0.00000000000E+00 0.  1.
         22    1    3    3    0    0  0.39959750884E+02  0.47697908495E+02 -0.22936886853E+03  0.23765931502E+03  0.00000000000E+00 0.  1.
</event>
<event>
 7    1  0.6219721E-006  0.2841698E+02  0.7818608E-02  0.1638021E+00
          2   -1    0    0  502    0  0.00000000000E+00  0.00000000000E+00  0.19203188390E+04  0.19203188390E+04  0.00000000000E+00 0. -1.
          1   -1    0    0  501    0 -0.00000000000E+00 -0.00000000000E+00 -0.20962917533E+02  0.20962917533E+02  0.00000000000E+00 0. -1.
         25    2    1    2    0    0  0.33006235664E+01 -0.28271235295E+02  0.47658568505E+03  0.49352681123E+03  0.12499856540E+03 0.  0.
          2    1    1    2  501    0 -0.23665956930E+02  0.81914298824E+01  0.34871131971E+00  0.25045930618E+02  0.00000000000E+00 0. -1.
          1    1    1    2  502    0  0.20365333364E+02  0.20079805412E+02  0.14224215251E+04  0.14227090147E+04  0.00000000000E+00 0. -1.
         22    1    3    3    0    0 -0.14871645964E+02 -0.72787525863E+02  0.21281401671E+03  0.22540850801E+03  0.00000000000E+00 0.  1.
         22    1    3    3    0    0  0.18172269530E+02  0.44516290569E+02  0.26377166833E+03  0.26811830322E+03  0.00000000000E+00 0.  1.
</event>
<event>
 7    1  0.6219721E-006  0.1319039E+03  0.7818608E-02  0.1234623E+00
          2   -1    0    0  502    0  0.00000000000E+00  0.00000000000E+00  0.12065119242E+04  0.12065119242E+04  0.00000000000E+00 0. -1.
          1   -1    0    0  501    0 -0.00000000000E+00 -0.00000000000E+00 -0.68825097835E+03  0.68825097835E+03  0.00000000000E+00 0. -1.
         25    2    1    2    0    0 -0.18511059505E+03 -0.16033492683E+03  0.26463706765E+03  0.38161834644E+03  0.12500625425E+03 0.  0.
          2    1    1    2  501    0  0.82600826154E+02  0.99897126561E+02 -0.61900887942E+03  0.63243523398E+03  0.00000000000E+00 0. -1.
          1    1    1    2  502    0  0.10250976890E+03  0.60437800274E+02  0.87263275759E+03  0.88070932210E+03  0.00000000000E+00 0. -1.
         22    1    3    3    0    0 -0.67553130050E+02 -0.65794024325E+02  0.19259713087E+03  0.21444331148E+03  0.00000000000E+00 0. -1.
         22    1    3    3    0    0 -0.11755746500E+03 -0.94540902510E+02  0.72039936778E+02  0.16717503496E+03  0.00000000000E+00 0. -1.
</event>
<event>
 7    1  0.6219721E-006  0.7927155E+02  0.7818608E-02  0.1375495E+00
          2   -1    0    0  502    0  0.00000000000E+00  0.00000000000E+00  0.24016208011E+03  0.24016208011E+03  0.00000000000E+00 0. -1.
          1   -1    0    0  501    0 -0.00000000000E+00 -0.00000000000E+00 -0.19772404001E+04  0.19772404001E+04  0.00000000000E+00 0. -1.
         25    2    1    2    0    0 -0.51288555421E+02 -0.92378866404E+02 -0.24405809001E+03  0.29386045180E+03  0.12500097183E+03 0.  0.
          2    1    1    2  501    0  0.52698602180E+02  0.13460643671E+02 -0.17005962081E+04  0.17014657783E+04  0.00000000000E+00 0. -1.
          1    1    1    2  502    0 -0.14100467594E+01  0.78918222734E+02  0.20757597820E+03  0.22207625006E+03  0.00000000000E+00 0. -1.
         22    1    3    3    0    0 -0.28448227889E+02 -0.69683291838E+02 -0.25002938489E+03  0.26111253539E+03  0.00000000000E+00 0.  1.
         22    1    3    3    0    0 -0.22840327532E+02 -0.22695574566E+02  0.59712948776E+01  0.32747916410E+02  0.00000000000E+00 0.  1.
</event>
<event>
 7    1  0.6219721E-006  0.1159680E+03  0.7818608E-02  0.1272382E+00
          2   -1    0    0  502    0  0.00000000000E+00  0.00000000000E+00  0.19126903386E+04  0.19126903386E+04  0.00000000000E+00 0. -1.
          1   -1    0    0  501    0 -0.00000000000E+00 -0.00000000000E+00 -0.52208415699E+03  0.52208415699E+03  0.00000000000E+00 0. -1.
         25    2    1    2    0    0 -0.17769470652E+03 -0.64073229136E+02  0.22243254472E+03  0.31746271516E+03  0.12500220458E+03 0.  0.
          2    1    1    2  501    0  0.85459830715E+02  0.76102912986E+02 -0.46632914857E+03  0.48016446228E+03  0.00000000000E+00 0. -1.
          1    1    1    2  502    0  0.92234875805E+02 -0.12029683850E+02  0.16345027854E+04  0.16371473181E+04  0.00000000000E+00 0. -1.
         22    1    3    3    0    0 -0.43890146128E+02 -0.53026989482E+01  0.14598622508E+03  0.15253341096E+03  0.00000000000E+00 0.  1.
         22    1    3    3    0    0 -0.13380456039E+03 -0.58770530188E+02  0.76446319636E+02  0.16492930421E+03  0.00000000000E+00 0.  1.
</event>
<event>
 7    1  0.6219721E-006  0.7119269E+02  0.7818608E-02  0.1415414E+00
          2   -1    0    0  502    0  0.00000000000E+00  0.00000000000E+00  0.14948254448E+04  0.14948254448E+04  0.00000000000E+00 0. -1.
          1   -1    0    0  501    0 -0.00000000000E+00 -0.00000000000E+00 -0.26435885865E+02  0.26435885865E+02  0.00000000000E+00 0. -1.
         25    2    1    2    0    0 -0.33984105256E+02  0.97627688723E+01  0.10337572288E+04  0.10418871870E+04  0.12499868479E+03 0.  0.
          2    1    1    2  501    0  0.72747629029E+02  0.11169413995E+02  0.42936408794E+02  0.85208617747E+02  0.00000000000E+00 0. -1.
          1    1    1    2  502    0 -0.38763523773E+02 -0.20932182867E+02  0.39169592131E+03  0.39416552592E+03  0.00000000000E+00 0. -1.
         22    1    3    3    0    0  0.24874566056E+02  0.29864500072E+02  0.12268393003E+03  0.12869335293E+03  0.00000000000E+00 0. -1.
         22    1    3    3    0    0 -0.58858671311E+02 -0.20101731200E+02  0.91107329877E+03  0.91319383403E+03  0.00000000000E+00 0. -1.
</event>
<event>
 7    1  0.6219721E-006  0.2210257E+03  0.7818608E-02  0.1222202E+00
          2   -1    0    0  502    0  0.00000000000E+00  0.00000000000E+00  0.11777889951E+04  0.11777889951E+04  0.00000000000E+00 0. -1.
          1   -1    0    0  501    0 -0.00000000000E+00 -0.00000000000E+00 -0.10927624627E+04  0.10927624627E+04  0.00000000000E+00 0. -1.
         25    2    1    2    0    0 -0.27949228662E+03  0.11667413950E+02  0.82704681725E+02  0.31735024790E+03  0.12497619228E+03 0.  0.
          2    1    1    2  501    0  0.21470961165E+03  0.36557284752E+02 -0.96157210789E+03  0.98592980028E+03  0.00000000000E+00 0. -1.
          1    1    1    2  502    0  0.64782674969E+02 -0.48224698701E+02  0.96389395854E+03  0.96727140961E+03  0.00000000000E+00 0. -1.
         22    1    3    3    0    0 -0.69220196456E+02 -0.39713662298E+02 -0.12684569619E+02  0.80805376534E+02  0.00000000000E+00 0. -1.
         22    1    3    3    0    0 -0.21027209016E+03  0.51381076247E+02  0.95389251344E+02  0.23654487137E+03  0.00000000000E+00 0. -1.
</event>
<event>
 7    1  0.6219721E-006  0.8896387E+02  0.7818608E-02  0.1384456E+00
          2   -1    0    0  502    0  0.00000000000E+00  0.00000000000E+00  0.14481617563E+04  0.14481617563E+04  0.00000000000E+00 0. -1.
          1   -1    0    0  501    0 -0.00000000000E+00 -0.00000000000E+00 -0.16130188994E+03  0.16130188994E+03  0.00000000000E+00 0. -1.
         25    2    1    2    0    0 -0.74045219614E+02  0.99651083296E+02  0.26455240260E+01  0.17619450186E+03  0.12499788294E+03 0.  0.
          2    1    1    2  501    0  0.46544459283E+01 -0.44808089115E+02 -0.66138228632E+02  0.80023084192E+02  0.00000000000E+00 0. -1.
          1    1    1    2  502    0  0.69390773686E+02 -0.54842994180E+02  0.13503525710E+04  0.13532460602E+04  0.00000000000E+00 0. -1.
         22    1    3    3    0    0  0.17992060123E+02  0.35024988310E+02  0.41503235766E+02  0.57209987001E+02  0.00000000000E+00 0. -1.
         22    1    3    3    0    0 -0.92037279738E+02  0.64626094985E+02 -0.38857711740E+02  0.11898451486E+03  0.00000000000E+00 0. -1.
</event>
<event>
 7    1  0.6219721E-006  0.1662067E+03  0.7818608E-02  0.1249977E+00
          2   -1    0    0  502    0  0.00000000000E+00  0.00000000000E+00  0.19942632553E+04  0.19942632553E+04  0.00000000000E+00 0. -1.
          1   -1    0    0  501    0 -0.00000000000E+00 -0.00000000000E+00 -0.12339785282E+03  0.12339785282E+03  0.00000000000E+00 0. -1.
         25    2    1    2    0    0  0.96913926131E+01  0.11254224518E+03  0.97010292211E+03  0.98462592529E+03  0.12501541198E+03 0.  0.
          2    1    1    2  501    0 -0.81659643071E+02 -0.14939011753E+03 -0.51092030320E+02  0.17775291864E+03  0.00000000000E+00 0. -1.
          1    1    1    2  502    0  0.71968250458E+02  0.36847872350E+02  0.95185451066E+03  0.95528226417E+03  0.00000000000E+00 0. -1.
         22    1    3    3    0    0 -0.10560787345E+02  0.10124717120E+02  0.76166354759E+01  0.16494037167E+02  0.00000000000E+00 0. -1.
         22    1    3    3    0    0  0.20252179958E+02  0.10241752806E+03  0.96248628663E+03  0.96813188812E+03  0.00000000000E+00 0. -1.
</event>
<event>
 7    1  0.6219721E-006  0.4551587E+02  0.7818608E-02  0.1484487E+00
          2   -1    0    0  502    0  0.00000000000E+00  0.00000000000E+00  0.28641691762E+04  0.28641691762E+04  0.00000000000E+00 0. -1.
          1   -1    0    0  501    0 -0.00000000000E+00 -0.00000000000E+00 -0.17546451843E+02  0.17546451843E+02  0.00000000000E+00 0. -1.
         25    2    1    2    0    0  0.42828622928E+02  0.11335974948E+02  0.13697397637E+04  0.13761444754E+04  0.12499520649E+03 0.  0.
          2    1    1    2  501    0 -0.35434968174E+02  0.29409554885E+02  0.23685533774E+02  0.51783814056E+02  0.00000000000E+00 0. -1.
          1    1    1    2  502    0 -0.73936547543E+01 -0.40745529834E+02  0.14531974269E+04  0.14537873386E+04  0.00000000000E+00 0. -1.
         22    1    3    3    0    0 -0.22200528605E+02  0.42460948184E+01  0.51012271764E+02  0.55795561312E+02  0.00000000000E+00 0.  1.
         22    1    3    3    0    0  0.65029151533E+02  0.70898801299E+01  0.13187274919E+04  0.13203489141E+04  0.00000000000E+00 0.  1.
</event>
<event>
 7    1  0.6219721E-006  0.2446130E+03  0.7818608E-02  0.1274543E+00
          2   -1    0    0  502    0  0.00000000000E+00  0.00000000000E+00  0.13354378849E+04  0.13354378849E+04  0.00000000000E+00 0. -1.
          1   -1    0    0  501    0 -0.00000000000E+00 -0.00000000000E+00 -0.22352700428E+04  0.22352700428E+04  0.00000000000E+00 0. -1.
         25    2    1    2    0    0 -0.11530625396E+03 -0.16760854031E+03  0.10664705542E+04  0.10928735777E+04  0.12500023548E+03 0.  0.
          2    1    1    2  501    0  0.14960576522E+03  0.19385713625E+03 -0.22134437628E+04  0.22269476342E+04  0.00000000000E+00 0. -1.
          1    1    1    2  502    0 -0.34299511260E+02 -0.26248595948E+02  0.24714105067E+03  0.25088671584E+03  0.00000000000E+00 0. -1.
         22    1    3    3    0    0  0.74273609617E+01 -0.84732423228E+02  0.28207255237E+03  0.29461784406E+03  0.00000000000E+00 0.  1.
         22    1    3    3    0    0 -0.12273361492E+03 -0.82876117078E+02  0.78439800188E+03  0.79825573368E+03  0.00000000000E+00 0.  1.
</event>
<event>
 7    1  0.6219721E-006  0.1303452E+03  0.7818608E-02  0.1377430E+00
          2   -1    0    0  502    0  0.00000000000E+00  0.00000000000E+00  0.73199231864E+03  0.73199231864E+03  0.00000000000E+00 0. -1.
          1   -1    0    0  501    0 -0.00000000000E+00 -0.00000000000E+00 -0.59766454274E+03  0.59766454274E+03  0.00000000000E+00 0. -1.
         25    2    1    2    0    0 -0.43789750791E+02  0.11526907756E+03  0.45136067337E+03  0.48431041672E+03  0.12500247905E+03 0.  0.
          2    1    1    2  501    0  0.14602847498E+02 -0.12969584786E+03 -0.57281744403E+03  0.58749815343E+03  0.00000000000E+00 0. -1.
          1    1    1    2  502    0  0.29186903293E+02  0.14426770301E+02  0.25578454656E+03  0.25784829122E+03  0.00000000000E+00 0. -1.
         22    1    3    3    0    0 -0.87941765289E+02  0.77851197076E+02  0.28974826577E+03  0.31264775785E+03  0.00000000000E+00 0. -1.
         22    1    3    3    0    0  0.44152014497E+02  0.37417880485E+02  0.16161240759E+03  0.17166265888E+03  0.00000000000E+00 0. -1.
</event>
<event>
 7    1  0.6219721E-006  0.3587732E+02  0.7818608E-02  0.1546315E+00
          2   -1    0    0  502    0  0.00000000000E+00  0.00000000000E+00  0.82503820927E+03  0.82503820927E+03  0.00000000000E+00 0. -1.
          1   -1    0    0  501    0 -0.00000000000E+00 -0.00000000000E+00 -0.35620605570E+02  0.35620605570E+02  0.00000000000E+00 0. -1.
         25    2    1    2    0    0  0.21657362765E+02 -0.26978193914E+02  0.35627894309E+03  0.37915154088E+03  0.12499736538E+03 0.  0.
          2    1    1    2  501    0  0.12177665152E+02  0.34453171469E+02 -0.93055834127E+01  0.37708227689E+02  0.00000000000E+00 0. -1.
          1    1    1    2  502    0 -0.33835027916E+02 -0.74749775551E+01  0.44244424402E+03  0.44379904627E+03  0.00000000000E+00 0. -1.
         22    1    3    3    0    0 -0.47675204625E+02  0.67200563028E+01  0.18781048051E+03  0.19388362716E+03  0.00000000000E+00 0.  1.
         22    1    3    3    0    0  0.69332567390E+02 -0.33698250217E+02  0.16846846259E+03  0.18526791372E+03  0.00000000000E+00 0.  1.
</event>
<event>
 7    1  0.6219721E-006  0.9268620E+02  0.7818608E-02  0.1384187E+00
          2   -1    0    0  502    0  0.00000000000E+00  0.00000000000E+00  0.61408144843E+03  0.61408144843E+03  0.00000000000E+00 0. -1.
          1   -1    0    0  501    0 -0.00000000000E+00 -0.00000000000E+00 -0.17138154584E+04  0.17138154584E+04  0.00000000000E+00 0. -1.
         25    2    1    2    0    0 -0.36248626360E+02 -0.12831772438E+03 -0.10136423672E+03  0.20897064462E+03  0.12495847520E+03 0.  0.
          2    1    1    2  501    0  0.34302808237E+02  0.85026977980E+02 -0.15564590205E+04  0.15591571287E+04  0.00000000000E+00 0. -1.
          1    1    1    2  502    0  0.19458181224E+01  0.43290746397E+02  0.55808924722E+03  0.55976913348E+03  0.00000000000E+00 0. -1.
         22    1    3    3    0    0 -0.57266256045E+01 -0.14634713504E+03 -0.73419616089E+02  0.16383137124E+03  0.00000000000E+00 0.  1.
         22    1    3    3    0    0 -0.30522000755E+02  0.18029410665E+02 -0.27944620627E+02  0.45139273377E+02  0.00000000000E+00 0.  1.
</event>
<event>
 7    1  0.6219721E-006  0.1070097E+03  0.7818608E-02  0.1273297E+00
          2   -1    0    0  502    0  0.00000000000E+00  0.00000000000E+00  0.17708761685E+04  0.17708761685E+04  0.00000000000E+00 0. -1.
          1   -1    0    0  501    0 -0.00000000000E+00 -0.00000000000E+00 -0.16513809358E+03  0.16513809358E+03  0.00000000000E+00 0. -1.
         25    2    1    2    0    0 -0.31297226143E+02  0.20992804844E+01  0.39087677615E+03  0.41157474087E+03  0.12500075940E+03 0.  0.
          2    1    1    2  501    0  0.61606261158E+02  0.93111879262E+02 -0.13256327833E+03  0.17331525102E+03  0.00000000000E+00 0. -1.
          1    1    1    2  502    0 -0.30309035016E+02 -0.95211159746E+02  0.13474245771E+04  0.13511242702E+04  0.00000000000E+00 0. -1.
         22    1    3    3    0    0  0.31350988377E+02 -0.78825137582E+01  0.29402063751E+03  0.29579241670E+03  0.00000000000E+00 0. -1.
         22    1    3    3    0    0 -0.62648214520E+02  0.99817942426E+01  0.96856138634E+02  0.11578232417E+03  0.00000000000E+00 0. -1.
</event>
<event>
 7    1  0.6219721E-006  0.7726937E+02  0.7818608E-02  0.1343563E+00
          2   -1    0    0  502    0  0.00000000000E+00  0.00000000000E+00  0.18000934366E+04  0.18000934366E+04  0.00000000000E+00 0. -1.
          1   -1    0    0  501    0 -0.00000000000E+00 -0.00000000000E+00 -0.70770355608E+03  0.70770355608E+03  0.00000000000E+00 0. -1.
         25    2    1    2    0    0  0.89680552879E+02 -0.22424280145E+02  0.47380858933E+02  0.16253017569E+03  0.12500264922E+03 0.  0.
          2    1    1    2  501    0 -0.62927451775E+02 -0.45486470186E+02 -0.64702095223E+03  0.65166325336E+03  0.00000000000E+00 0. -1.
          1    1    1    2  502    0 -0.26753101103E+02  0.67910750331E+02  0.16920299738E+04  0.16936035636E+04  0.00000000000E+00 0. -1.
         22    1    3    3    0    0  0.29569564385E+02 -0.71042580136E+02  0.13523402583E+02  0.78129954229E+02  0.00000000000E+00 0.  1.
         22    1    3    3    0    0  0.60110988493E+02  0.48618299991E+02  0.33857456350E+02  0.84400221458E+02  0.00000000000E+00 0.  1.
</event>
<event>
 7    1  0.6219721E-006  0.1577050E+03  0.7818608E-02  0.1282979E+00
          2   -1    0    0  502    0  0.00000000000E+00  0.00000000000E+00  0.53568050794E+04  0.53568050794E+04  0.00000000000E+00 0. -1.
          1   -1    0    0  501    0 -0.00000000000E+00 -0.00000000000E+00 -0.27450262697E+03  0.27450262697E+03  0.00000000000E+00 0. -1.
         25    2    1    2    0    0 -0.75181040061E+02 -0.12160341119E+03  0.68930902857E+03  0.71499109441E+03  0.12500299925E+03 0.  0.
          2    1    1    2  501    0  0.49716346218E+02 -0.36734494853E+02 -0.25660889533E+03  0.26394935756E+03  0.00000000000E+00 0. -1.
          1    1    1    2  502    0  0.25464693843E+02  0.15833790604E+03  0.46496023192E+04  0.46523672544E+04  0.00000000000E+00 0. -1.
         22    1    3    3    0    0  0.14640415476E+02  0.10161979462E+02  0.19315139075E+02  0.26280833118E+02  0.00000000000E+00 0. -1.
         22    1    3    3    0    0 -0.89821455537E+02 -0.13176539065E+03  0.66999388949E+03  0.68871026129E+03  0.00000000000E+00 0. -1.
</event>
<event>
 7    1  0.6219721E-006  0.5591291E+02  0.7818608E-02  0.1446122E+00
          2   -1    0    0  502    0  0.00000000000E+00  0.00000000000E+00  0.11570249528E+04  0.11570249528E+04  0.00000000000E+00 0. -1.
          1   -1    0    0  501    0 -0.00000000000E+00 -0.00000000000E+00 -0.90420800374E+02  0.90420800374E+02  0.00000000000E+00 0. -1.
         25    2    1    2    0    0 -0.32921189018E+02 -0.10535310324E+02  0.11388800173E+03  0.17259779290E+03  0.12499889489E+03 0.  0.
          2    1    1    2  501    0  0.24015157937E+02  0.54088685356E+02 -0.46116235787E+02  0.75026801194E+02  0.00000000000E+00 0. -1.
          1    1    1    2  502    0  0.89060310814E+01 -0.43553375032E+02  0.99883238650E+03  0.99982115910E+03  0.00000000000E+00 0. -1.
         22    1    3    3    0    0 -0.61666344270E+02 -0.50947367703E+02  0.73698776803E+02  0.10876526097E+03  0.00000000000E+00 0. -1.
         22    1    3    3    0    0  0.28745155252E+02  0.40412057379E+02  0.40189224929E+02  0.63832531929E+02  0.00000000000E+00 0. -1.
</event>
<event>
 7    1  0.6219721E-006  0.4644230E+02  0.7818608E-02  0.1554176E+00
          2   -1    0    0  502    0  0.00000000000E+00  0.00000000000E+00  0.12873747449E+04  0.12873747449E+04  0.00000000000E+00 0. -1.
          1   -1    0    0  501    0 -0.00000000000E+00 -0.00000000000E+00 -0.48833390857E+03  0.48833390857E+03  0.00000000000E+00 0. -1.
         25    2    1    2    0    0 -0.71687890018E+02 -0.11474655022E+01 -0.44126075926E+02  0.15069900195E+03  0.12499043307E+03 0.  0.
          2    1    1    2  501    0  0.25367145687E+02  0.20603430198E+01 -0.39007170060E+03  0.39090109837E+03  0.00000000000E+00 0. -1.
          1    1    1    2  502    0  0.46320744331E+02 -0.91287751761E+00  0.12332386129E+04  0.12341085532E+04  0.00000000000E+00 0. -1.
         22    1    3    3    0    0 -0.37261641224E+02 -0.30986434421E+01 -0.87579279242E+02  0.95226895626E+02  0.00000000000E+00 0.  1.
         22    1    3    3    0    0 -0.34426248794E+02  0.19511779399E+01  0.43453203317E+02  0.55472106323E+02  0.00000000000E+00 0.  1.
</event>
<event>
 7    1  0.6219721E-006  0.1160199E+03  0.7818608E-02  0.1337365E+00
          2   -1    0    0  502    0  0.00000000000E+00  0.00000000000E+00  0.40945047577E+03  0.40945047577E+03  0.00000000000E+00 0. -1.
          1   -1    0    0  501    0 -0.00000000000E+00 -0.00000000000E+00 -0.97275775223E+03  0.97275775223E+03  0.00000000000E+00 0. -1.
         25    2    1    2    0    0  0.13680962553E+03 -0.80417754620E+02 -0.10379040330E+03  0.22711290400E+03  0.12499573772E+03 0.  0.
          2    1    1    2  501    0 -0.29839260470E+02  0.41718256445E+02 -0.79715796660E+03  0.79880637084E+03  0.00000000000E+00 0. -1.
          1    1    1    2  502    0 -0.10697036507E+03  0.38699498175E+02  0.33764109344E+03  0.35628895316E+03  0.00000000000E+00 0. -1.
         22    1    3    3    0    0  0.27389791804E+02  0.47699799134E+01 -0.82195981402E+02  0.86770575440E+02  0.00000000000E+00 0. -1.
         22    1    3    3    0    0  0.10941983373E+03 -0.85187734533E+02 -0.21594421901E+02  0.14034232856E+03  0.00000000000E+00 0. -1.
</event>
<event>
 7    1  0.6219721E-006  0.5074718E+02  0.7818608E-02  0.1487209E+00
          2   -1    0    0  502    0  0.00000000000E+00  0.00000000000E+00  0.13349878228E+04  0.13349878228E+04  0.00000000000E+00 0. -1.
          1   -1    0    0  501    0 -0.00000000000E+00 -0.00000000000E+00 -0.10293493288E+04  0.10293493288E+04  0.00000000000E+00 0. -1.
         25    2    1    2    0    0  0.10348069173E+02 -0.20142863051E+02  0.47768987788E+03  0.49429054747E+03  0.12499083338E+03 0.  0.
          2    1    1    2  501    0  0.11178589364E+02  0.49545147284E+02 -0.10200258177E+04  0.10212895531E+04  0.00000000000E+00 0. -1.
          1    1    1    2  502    0 -0.21526658536E+02 -0.29402284233E+02  0.84797443385E+03  0.84875705111E+03  0.00000000000E+00 0. -1.
         22    1    3    3    0    0  0.40080744588E+02  0.29343842733E+02  0.35772012738E+03  0.36115262248E+03  0.00000000000E+00 0. -1.
         22    1    3    3    0    0 -0.29732675415E+02 -0.49486705785E+02  0.11996975049E+03  0.13313792499E+03  0.00000000000E+00 0. -1.
</event>
<event>
 7    1  0.6219721E-006  0.6626994E+02  0.7818608E-02  0.1481432E+00
          2   -1    0    0  502    0  0.00000000000E+00  0.00000000000E+00  0.35045135929E+03  0.35045135929E+03  0.00000000000E+00 0. -1.
          1   -1    0    0  501    0 -0.00000000000E+00 -0.00000000000E+00 -0.82867039723E+02  0.82867039723E+02  0.00000000000E+00 0. -1.
         25    2    1    2    0    0  0.26727854036E+02  0.56768173573E+02  0.19303264726E+03  0.23837598946E+03  0.12499802291E+03 0.  0.
          2    1    1    2  501    0  0.26424452018E+02 -0.12092444384E+02 -0.46824690298E+02  0.55109259632E+02  0.00000000000E+00 0. -1.
          1    1    1    2  502    0 -0.53152306055E+02 -0.44675729189E+02  0.12137636261E+03  0.13983314992E+03  0.00000000000E+00 0. -1.
         22    1    3    3    0    0 -0.40526463878E+02 -0.11961303313E+02  0.75480715245E+02  0.86503210491E+02  0.00000000000E+00 0.  1.
         22    1    3    3    0    0  0.67254317915E+02  0.68729476887E+02  0.11755193201E+03  0.15187277897E+03  0.00000000000E+00 0.  1.
</event>
<event>
 7    1  0.6219721E-006  0.1100663E+03  0.7818608E-02  0.1333232E+00
          2   -1    0    0  502    0  0.00000000000E+00  0.00000000000E+00  0.17868852136E+03  0.17868852136E+03  0.00000000000E+00 0. -1.
          1   -1    0    0  501    0 -0.00000000000E+00 -0.00000000000E+00 -0.16841047492E+04  0.16841047492E+04  0.00000000000E+00 0. -1.
         25    2    1    2    0    0 -0.47316764231E+02 -0.15258190695E+03 -0.46374210633E+03  0.50616380006E+03  0.12499974722E+03 0.  0.
          2    1    1    2  501    0  0.39214067616E+02  0.97119704039E+02 -0.11917937081E+04  0.11963871542E+04  0.00000000000E+00 0. -1.
          1    1    1    2  502    0  0.81026966150E+01  0.55462202915E+02  0.15011958661E+03  0.16024231629E+03  0.00000000000E+00 0. -1.
         22    1    3    3    0    0  0.19645364225E+02 -0.10811271848E+03 -0.17670761685E+03  0.20808623713E+03  0.00000000000E+00 0.  1.
         22    1    3    3    0    0 -0.66962128456E+02 -0.44469188478E+02 -0.28703448948E+03  0.29807756293E+03  0.00000000000E+00 0.  1.
</event>
<event>
 7    1  0.6219721E-006  0.8515218E+02  0.7818608E-02  0.1365171E+00
          2   -1    0    0  502    0  0.00000000000E+00  0.00000000000E+00  0.19234462565E+04  0.19234462565E+04  0.00000000000E+00 0. -1.
          1   -1    0    0  501    0 -0.00000000000E+00 -0.00000000000E+00 -0.24446711843E+03  0.24446711843E+03  0.00000000000E+00 0. -1.
         25    2    1    2    0    0  0.68200929313E+02 -0.16611774218E+02  0.57464972549E+03  0.59226271575E+03  0.12500199862E+03 0.  0.
          2    1    1    2  501    0  0.13934454729E+02  0.53360233464E+02 -0.23089895252E+03  0.23739378640E+03  0.00000000000E+00 0. -1.
          1    1    1    2  502    0 -0.82135384041E+02 -0.36748459246E+02  0.13352283651E+04  0.13382568728E+04  0.00000000000E+00 0. -1.
         22    1    3    3    0    0  0.10359173087E+03 -0.90771133814E+00  0.44827590218E+03  0.46009059447E+03  0.00000000000E+00 0. -1.
         22    1    3    3    0    0 -0.35390801553E+02 -0.15704062880E+02  0.12637382332E+03  0.13217212129E+03  0.00000000000E+00 0. -1.
</event>
<event>
 7    1  0.6219721E-006  0.7987093E+02  0.7818608E-02  0.1429583E+00
          2   -1    0    0  502    0  0.00000000000E+00  0.00000000000E+00  0.77508143125E+03  0.77508143125E+03  0.00000000000E+00 0. -1.
          1   -1    0    0  501    0 -0.00000000000E+00 -0.00000000000E+00 -0.17126908761E+04  0.17126908761E+04  0.00000000000E+00 0. -1.
         25    2    1    2    0    0  0.61885007944E+02 -0.60242940569E+01 -0.47245294827E+02  0.14740893263E+03  0.12502491435E+03 0.  0.
          2    1    1    2  501    0 -0.75911801979E+02 -0.26290180520E+02 -0.16139361723E+04  0.16159343253E+04  0.00000000000E+00 0. -1.
          1    1    1    2  502    0  0.14026794035E+02  0.32314474577E+02  0.72357202230E+03  0.72442904944E+03  0.00000000000E+00 0. -1.
         22    1    3    3    0    0  0.65761112948E+02  0.38206363042E+02  0.80666970677E+01  0.76480858747E+02  0.00000000000E+00 0. -1.
         22    1    3    3    0    0 -0.38761050039E+01 -0.44230657099E+02 -0.55311991895E+02  0.70928073884E+02  0.00000000000E+00 0. -1.
</event>
<event>
 7    1  0.6219721E-006  0.7336144E+02  0.7818608E-02  0.1415505E+00
          2   -1    0    0  502    0  0.00000000000E+00  0.00000000000E+00  0.56890167663E+03  0.56890167663E+03  0.00000000000E+00 0. -1.
          1   -1    0    0  501    0 -0.00000000000E+00 -0.00000000000E+00 -0.98632588958E+03  0.98632588958E+03  0.00000000000E+00 0. -1.
         25    2    1    2    0    0  0.23620131268E+02  0.11228149707E+03 -0.10255204327E+03  0.19826920248E+03  0.12501483868E+03 0.  0.
          2    1    1    2  501    0 -0.14526585129E+02 -0.70538657039E+02 -0.83348408357E+03  0.83658976887E+03  0.00000000000E+00 0. -1.
          1    1    1    2  502    0 -0.90935461394E+01 -0.41742840028E+02  0.51861191389E+03  0.52036859485E+03  0.00000000000E+00 0. -1.
         22    1    3    3    0    0  0.64184075625E+02  0.74774448456E+02 -0.22626089090E+02  0.10110763380E+03  0.00000000000E+00 0.  1.
         22    1    3    3    0    0 -0.40563944356E+02  0.37507048611E+02 -0.79925954177E+02  0.97161568680E+02  0.00000000000E+00 0.  1.
</event>
<event>
 7    1  0.6219721E-006  0.4495378E+02  0.7818608E-02  0.1499400E+00
          2   -1    0    0  502    0  0.00000000000E+00  0.00000000000E+00  0.45130877941E+03  0.45130877941E+03  0.00000000000E+00 0. -1.
          1   -1    0    0  501    0 -0.00000000000E+00 -0.00000000000E+00 -0.39493757392E+03  0.39493757392E+03  0.00000000000E+00 0. -1.
         25    2    1    2    0    0  0.65465335236E+02 -0.48143191960E+02 -0.76034231127E+02  0.16736203670E+03  0.12500147989E+03 0.  0.
          2    1    1    2  501    0 -0.36318225512E+02  0.24072217959E+02 -0.27061230790E+03  0.27409762196E+03  0.00000000000E+00 0. -1.
          1    1    1    2  502    0 -0.29147109724E+02  0.24070974001E+02  0.40301774451E+03  0.40478669468E+03  0.00000000000E+00 0. -1.
         22    1    3    3    0    0  0.81927259909E+02 -0.78625634426E+02 -0.65796917472E+02  0.13123757333E+03  0.00000000000E+00 0. -1.
         22    1    3    3    0    0 -0.16461924673E+02  0.30482442466E+02 -0.10237313655E+02  0.36124463367E+02  0.00000000000E+00 0. -1.
</event>
<event>
 7    1  0.6219721E-006  0.8816958E+02  0.7818608E-02  0.1364865E+00
          2   -1    0    0  502    0  0.00000000000E+00  0.00000000000E+00  0.17318288809E+04  0.17318288809E+04  0.00000000000E+00 0. -1.
          1   -1    0    0  501    0 -0.00000000000E+00 -0.00000000000E+00 -0.12845090374E+04  0.12845090374E+04  0.00000000000E+00 0. -1.
         25    2    1    2    0    0 -0.47228643100E+01  0.79238739579E+02  0.50849137790E+03  0.52961248799E+03  0.12499929093E+03 0.  0.
          2    1    1    2  501    0  0.56818245846E+02 -0.67514981793E+02 -0.12718312144E+04  0.12748887103E+04  0.00000000000E+00 0. -1.
          1    1    1    2  502    0 -0.52095381536E+02 -0.11723757786E+02  0.12106596799E+04  0.12118367200E+04  0.00000000000E+00 0. -1.
         22    1    3    3    0    0 -0.10646319946E+01  0.23947869239E+01  0.37888155205E+03  0.37889061605E+03  0.00000000000E+00 0.  1.
         22    1    3    3    0    0 -0.36582323154E+01  0.76843952655E+02  0.12960982585E+03  0.15072187194E+03  0.00000000000E+00 0.  1.
</event>
<event>
 7    1  0.6219721E-006  0.6196245E+02  0.7818608E-02  0.1463796E+00
          2   -1    0    0  502    0  0.00000000000E+00  0.00000000000E+00  0.80719557832E+03  0.80719557832E+03  0.00000000000E+00 0. -1.
          1   -1    0    0  501    0 -0.00000000000E+00 -0.00000000000E+00 -0.59292665562E+02  0.59292665562E+02  0.00000000000E+00 0. -1.
         25    2    1    2    0    0  0.67953043224E+02  0.43117077518E+02  0.39787354602E+03  0.42474134184E+03  0.12500060153E+03 0.  0.
          2    1    1    2  501    0 -0.34646566625E+02  0.64879586013E+01 -0.36432654361E+02  0.50693357449E+02  0.00000000000E+00 0. -1.
          1    1    1    2  502    0 -0.33306476599E+02 -0.49605036119E+02  0.38646202109E+03  0.39105354459E+03  0.00000000000E+00 0. -1.
         22    1    3    3    0    0  0.92834845954E+02  0.45108661321E+02  0.38069853062E+03  0.39444197440E+03  0.00000000000E+00 0.  1.
         22    1    3    3    0    0 -0.24881802731E+02 -0.19915838032E+01  0.17175015404E+02  0.30299367441E+02  0.00000000000E+00 0.  1.
</event>
<event>
 7    1  0.6219721E-006  0.1113425E+03  0.7818608E-02  0.1296225E+00
          2   -1    0    0  502    0  0.00000000000E+00  0.00000000000E+00  0.65927578402E+03  0.65927578402E+03  0.00000000000E+00 0. -1.
          1   -1    0    0  501    0 -0.00000000000E+00 -0.00000000000E+00 -0.95503014340E+03  0.95503014340E+03  0.00000000000E+00 0. -1.
         25    2    1    2    0    0  0.87252805212E+02 -0.10846162353E+03 -0.29870587101E+03  0.35245859750E+03  0.12499955910E+03 0.  0.
          2    1    1    2  501    0 -0.99233436352E+01  0.10935137521E+03 -0.62225894427E+03  0.63187213084E+03  0.00000000000E+00 0. -1.
          1    1    1    2  502    0 -0.77329461576E+02 -0.88975168470E+00  0.62521045591E+03  0.62997519909E+03  0.00000000000E+00 0. -1.
         22    1    3    3    0    0  0.10895618359E+03 -0.11998621407E+03 -0.26705308082E+03  0.31238676266E+03  0.00000000000E+00 0.  1.
         22    1    3    3    0    0 -0.21703378382E+02  0.11524590538E+02 -0.31652790199E+02  0.40071834843E+02  0.00000000000E+00 0.  1.
</event>
<event>
 7    1  0.6219721E-006  0.5208939E+02  0.7818608E-02  0.1462919E+00
          2   -1    0    0  502    0  0.00000000000E+00  0.00000000000E+00  0.15700203188E+03  0.15700203188E+03  0.00000000000E+00 0. -1.
          1   -1    0    0  501    0 -0.00000000000E+00 -0.00000000000E+00 -0.31419233037E+03  0.31419233037E+03  0.00000000000E+00 0. -1.
         25    2    1    2    0    0  0.88613174936E+02 -0.12693955444E+02  0.87778645029E+01  0.15399709865E+03  0.12499849683E+03 0.  0.
          2    1    1    2  501    0 -0.42196578193E+02  0.61180529191E-01 -0.23182963471E+03  0.23563856748E+03  0.00000000000E+00 0. -1.
          1    1    1    2  502    0 -0.46416596743E+02  0.12632774915E+02  0.65861471721E+02  0.81558696119E+02  0.00000000000E+00 0. -1.
         22    1    3    3    0    0  0.94460387964E+02 -0.48999298790E+02  0.31243242711E+02  0.11090462746E+03  0.00000000000E+00 0.  1.
         22    1    3    3    0    0 -0.58472130278E+01  0.36305343346E+02 -0.22465378208E+02  0.43092471195E+02  0.00000000000E+00 0.  1.
</event>
<event>
 7    1  0.6219721E-006  0.8263226E+02  0.7818608E-02  0.1434303E+00
          2   -1    0    0  502    0  0.00000000000E+00  0.00000000000E+00  0.55295758301E+03  0.55295758301E+03  0.00000000000E+00 0. -1.
          1   -1    0    0  501    0 -0.00000000000E+00 -0.00000000000E+00 -0.50811281161E+03  0.50811281161E+03  0.00000000000E+00 0. -1.
         25    2    1    2    0    0 -0.93961053344E+02 -0.20318950149E+02  0.18246542566E+03  0.24116422009E+03  0.12500004083E+03 0.  0.
          2    1    1    2  501    0  0.13402811100E+02  0.29998739569E+02 -0.47336140879E+03  0.47450035095E+03  0.00000000000E+00 0. -1.
          1    1    1    2  502    0  0.80558242243E+02 -0.96797894198E+01  0.33574075453E+03  0.34540582358E+03  0.00000000000E+00 0. -1.
         22    1    3    3    0    0 -0.10613792412E+03  0.12876578688E+01  0.18786826434E+03  0.21578091144E+03  0.00000000000E+00 0. -1.
         22    1    3    3    0    0  0.12176870775E+02 -0.21606608018E+02 -0.54028386749E+01  0.25383308643E+02  0.00000000000E+00 0. -1.
</event>
<event>
 7    1  0.6219721E-006  0.8184072E+02  0.7818608E-02  0.1352395E+00
          2   -1    0    0  502    0  0.00000000000E+00  0.00000000000E+00  0.10384750040E+04  0.10384750040E+04  0.00000000000E+00 0. -1.
          1   -1    0    0  501    0 -0.00000000000E+00 -0.00000000000E+00 -0.86308192946E+03  0.86308192946E+03  0.00000000000E+00 0. -1.
         25    2    1    2    0    0  0.12285296070E+03 -0.40221854056E+02  0.33832132543E+02  0.18297287542E+03  0.12499524971E+03 0.  0.
          2    1    1    2  501    0 -0.42255573500E+02  0.47929907973E+02 -0.78544967191E+03  0.78804441288E+03  0.00000000000E+00 0. -1.
          1    1    1    2  502    0 -0.80597387195E+02 -0.77080539173E+01  0.92701061387E+03  0.93053964512E+03  0.00000000000E+00 0. -1.
         22    1    3    3    0    0  0.65077431566E+02  0.40512050997E+02  0.33594783310E+02  0.83695327473E+02  0.00000000000E+00 0. -1.
         22    1    3    3    0    0  0.57775529129E+02 -0.80733905053E+02  0.23734923338E+00  0.99277547945E+02  0.00000000000E+00 0. -1.
</event>
<event>
 7    1  0.6219721E-006  0.1636634E+03  0.7818608E-02  0.1297662E+00
          2   -1    0    0  502    0  0.00000000000E+00  0.00000000000E+00  0.48726636146E+03  0.48726636146E+03  0.00000000000E+00 0. -1.
          1   -1    0    0  501    0 -0.00000000000E+00 -0.00000000000E+00 -0.13785021708E+04  0.13785021708E+04  0.00000000000E+00 0. -1.
         25    2    1    2    0    0  0.18175001187E+03  0.11176437107E+03 -0.30785787235E+01  0.24730130654E+03  0.12499646840E+03 0.  0.
          2    1    1    2  501    0 -0.13901254598E+03 -0.82289585218E+02 -0.12462270151E+04  0.12566534275E+04  0.00000000000E+00 0. -1.
          1    1    1    2  502    0 -0.42737465890E+02 -0.29474785855E+02  0.35806978449E+03  0.36181379818E+03  0.00000000000E+00 0. -1.
         22    1    3    3    0    0  0.51419201943E+02 -0.25805653489E+02  0.39546104821E+01  0.57667191925E+02  0.00000000000E+00 0.  1.
         22    1    3    3    0    0  0.13033080993E+03  0.13757002456E+03 -0.70331892056E+01  0.18963411461E+03  0.00000000000E+00 0.  1.
</event>
<event>
 7    1  0.6219721E-006  0.3067363E+03  0.7818608E-02  0.1265270E+00
          2   -1    0    0  502    0  0.00000000000E+00  0.00000000000E+00  0.15583909230E+04  0.15583909230E+04  0.00000000000E+00 0. -1.
          1   -1    0    0  501    0 -0.00000000000E+00 -0.00000000000E+00 -0.16060303402E+03  0.16060303402E+03  0.00000000000E+00 0. -1.
         25    2    1    2    0    0 -0.75938058904E+02 -0.28026734170E+03  0.31236114728E+03  0.44442214629E+03  0.12500074467E+03 0.  0.
          2    1    1    2  501    0  0.10806636728E+03  0.29994425974E+03  0.17562519453E+03  0.36399053235E+03  0.00000000000E+00 0. -1.
          1    1    1    2  502    0 -0.32128308374E+02 -0.19676918047E+02  0.90980154713E+03  0.91058127834E+03  0.00000000000E+00 0. -1.
         22    1    3    3    0    0 -0.77256064522E+01 -0.57638323515E+02  0.14911286324E+03  0.16005157705E+03  0.00000000000E+00 0. -1.
         22    1    3    3    0    0 -0.68212452452E+02 -0.22262901818E+03  0.16324828404E+03  0.28437056924E+03  0.00000000000E+00 0. -1.
</event>
<event>
 7    1  0.6219721E-006  0.8030377E+02  0.7818608E-02  0.1352370E+00
          2   -1    0    0  502    0  0.00000000000E+00  0.00000000000E+00  0.10034591700E+04  0.10034591700E+04  0.00000000000E+00 0. -1.
          1   -1    0    0  501    0 -0.00000000000E+00 -0.00000000000E+00 -0.21280255760E+03  0.21280255760E+03  0.00000000000E+00 0. -1.
         25    2    1    2    0    0  0.11971988376E+03  0.56443326705E+02  0.45078479720E+03  0.48615902271E+03  0.12499984912E+03 0.  0.
          2    1    1    2  501    0 -0.79371268656E+02 -0.53123346154E+01 -0.18490956165E+03  0.20129472218E+03  0.00000000000E+00 0. -1.
          1    1    1    2  502    0 -0.40348615108E+02 -0.51130992089E+02  0.52478137683E+03  0.52880798270E+03  0.00000000000E+00 0. -1.
         22    1    3    3    0    0  0.32098199167E+02 -0.87656386707E+01  0.28928622337E+03  0.29119349210E+03  0.00000000000E+00 0.  1.
         22    1    3    3    0    0  0.87621684596E+02  0.65208965375E+02  0.16149857383E+03  0.19496553061E+03  0.00000000000E+00 0.  1.
</event>
<event>
 7    1  0.6219721E-006  0.3984455E+02  0.7818608E-02  0.1533015E+00
          2   -1    0    0  502    0  0.00000000000E+00  0.00000000000E+00  0.19857669404E+03  0.19857669404E+03  0.00000000000E+00 0. -1.
          1   -1    0    0  501    0 -0.00000000000E+00 -0.00000000000E+00 -0.12273636185E+04  0.12273636185E+04  0.00000000000E+00 0. -1.
         25    2    1    2    0    0  0.72383778135E+02 -0.44314264354E+00 -0.13218871156E+02  0.14505184441E+03  0.12500276516E+03 0.  0.
          2    1    1    2  501    0 -0.39029663159E+02  0.71585104007E+01 -0.11456976196E+04  0.11463845753E+04  0.00000000000E+00 0. -1.
          1    1    1    2  502    0 -0.33354114976E+02 -0.67153677572E+01  0.13012956633E+03  0.13450389282E+03  0.00000000000E+00 0. -1.
         22    1    3    3    0    0  0.97223946602E+02  0.61562516618E+01 -0.42330427000E+02  0.10621798472E+03  0.00000000000E+00 0.  1.
         22    1    3    3    0    0 -0.24840168467E+02 -0.65993943053E+01  0.29111555844E+02  0.38833859689E+02  0.00000000000E+00 0.  1.
</event>
<event>
 7    1  0.6219721E-006  0.5334535E+02  0.7818608E-02  0.1429427E+00
          2   -1    0    0  502    0  0.00000000000E+00  0.00000000000E+00  0.68871307744E+03  0.68871307744E+03  0.00000000000E+00 0. -1.
          1   -1    0    0  501    0 -0.00000000000E+00 -0.00000000000E+00 -0.15797734673E+04  0.15797734673E+04  0.00000000000E+00 0. -1.
         25    2    1    2    0    0  0.12700987306E+02 -0.42882147348E+02  0.87502997604E+02  0.15900450929E+03  0.12500186296E+03 0.  0.
          2    1    1    2  501    0  0.40999386583E+02  0.33280247074E+02 -0.15422540585E+04  0.15431578356E+04  0.00000000000E+00 0. -1.
          1    1    1    2  502    0 -0.53700373889E+02  0.96019002744E+01  0.56369067109E+03  0.56632419983E+03  0.00000000000E+00 0. -1.
         22    1    3    3    0    0 -0.33316822505E+02 -0.35394637636E+02  0.99608043578E+02  0.11083570445E+03  0.00000000000E+00 0. -1.
         22    1    3    3    0    0  0.46017809811E+02 -0.74875097123E+01 -0.12105045973E+02  0.48168804838E+02  0.00000000000E+00 0. -1.
</event>
<event>
 7    1  0.6219721E-006  0.7529485E+02  0.7818608E-02  0.1397217E+00
          2   -1    0    0  502    0  0.00000000000E+00  0.00000000000E+00  0.17405363599E+04  0.17405363599E+04  0.00000000000E+00 0. -1.
          1   -1    0    0  501    0 -0.00000000000E+00 -0.00000000000E+00 -0.28084572595E+02  0.28084572595E+02  0.00000000000E+00 0. -1.
         25    2    1    2    0    0 -0.60377296852E+02  0.57547963941E+02  0.77440128849E+03  0.78884764701E+03  0.12500427370E+03 0.  0.
          2    1    1    2  501    0 -0.14859794943E+02 -0.45690505681E+02  0.10601344263E+02  0.49201873087E+02  0.00000000000E+00 0. -1.
          1    1    1    2  502    0  0.75237091795E+02 -0.11857458259E+02  0.92744915453E+03  0.93057141238E+03  0.00000000000E+00 0. -1.
         22    1    3    3    0    0 -0.11044180761E+02 -0.14521395141E+02  0.51137693007E+03  0.51170226641E+03  0.00000000000E+00 0. -1.
         22    1    3    3    0    0 -0.49333116091E+02  0.72069359082E+02  0.26302435842E+03  0.27714538060E+03  0.00000000000E+00 0. -1.
</event>
<event>
 7    1  0.6219721E-006  0.1025654E+03  0.7818608E-02  0.1298660E+00
          2   -1    0    0  502    0  0.00000000000E+00  0.00000000000E+00  0.26566160567E+03  0.26566160567E+03  0.00000000000E+00 0. -1.
          1   -1    0    0  501    0 -0.00000000000E+00 -0.00000000000E+00 -0.10406296983E+04  0.10406296983E+04  0.00000000000E+00 0. -1.
         25    2    1    2    0    0  0.73945568544E+02 -0.15092871930E+03  0.70794530439E+02  0.22109817420E+03  0.12500044672E+03 0.  0.
          2    1    1    2  501    0 -0.22569328946E+02  0.78917820062E+02 -0.94711582092E+03  0.95066596403E+03  0.00000000000E+00 0. -1.
          1    1    1    2  502    0 -0.51376239599E+02  0.72010899235E+02  0.10135319786E+03  0.13452716573E+03  0.00000000000E+00 0. -1.
         22    1    3    3    0    0  0.10601940087E+03 -0.13022599217E+03  0.41496954217E+02  0.17297664468E+03  0.00000000000E+00 0.  1.
         22    1    3    3    0    0 -0.32073832328E+02 -0.20702727131E+02  0.29297576222E+02  0.48121529520E+02  0.00000000000E+00 0.  1.
</event>
<event>
 7    1  0.6219721E-006  0.1249839E+03  0.7818608E-02  0.1297174E+00
          2   -1    0    0  502    0  0.00000000000E+00  0.00000000000E+00  0.16422629905E+04  0.16422629905E+04  0.00000000000E+00 0. -1.
          1   -1    0    0  501    0 -0.00000000000E+00 -0.00000000000E+00 -0.49816890713E+03  0.49816890713E+03  0.00000000000E+00 0. -1.
         25    2    1    2    0    0  0.16823867411E+03  0.82683778750E+02  0.31494356544E+03  0.38724110867E+03  0.12500147238E+03 0.  0.
          2    1    1    2  501    0 -0.64842918253E+02 -0.21424510097E+02 -0.45667917034E+03  0.46175694722E+03  0.00000000000E+00 0. -1.
          1    1    1    2  502    0 -0.10339575586E+03 -0.61259268653E+02  0.12858296883E+04  0.12914338417E+04  0.00000000000E+00 0. -1.
         22    1    3    3    0    0  0.11698444207E+03 -0.10414045159E+01  0.11275601268E+03  0.16248188393E+03  0.00000000000E+00 0.  1.
         22    1    3    3    0    0  0.51254232042E+02  0.83725183266E+02  0.20218755275E+03  0.22475922473E+03  0.00000000000E+00 0.  1.
</event>
<event>
 7    1  0.6219721E-006  0.5296062E+02  0.7818608E-02  0.1562817E+00
          2   -1    0    0  502    0  0.00000000000E+00  0.00000000000E+00  0.16599772425E+03  0.16599772425E+03  0.00000000000E+00 0. -1.
          1   -1    0    0  501    0 -0.00000000000E+00 -0.00000000000E+00 -0.18686318969E+03  0.18686318969E+03  0.00000000000E+00 0. -1.
         25    2    1    2    0    0 -0.46881220823E+02  0.24926670871E+02 -0.86660979186E+01  0.13608581032E+03  0.12500023492E+03 0.  0.
          2    1    1    2  501    0  0.53112618041E+02 -0.47401138183E+01 -0.10705240548E+03  0.11959781098E+03  0.00000000000E+00 0. -1.
          1    1    1    2  502    0 -0.62313972174E+01 -0.20186557053E+02  0.94853037952E+02  0.97177292644E+02  0.00000000000E+00 0. -1.
         22    1    3    3    0    0 -0.80948853788E+02  0.24497913324E+02  0.24995808757E+02  0.88191015088E+02  0.00000000000E+00 0.  1.
         22    1    3    3    0    0  0.34067632965E+02  0.42875754757E+00 -0.33661906676E+02  0.47894795228E+02  0.00000000000E+00 0.  1.
</event>
<event>
 7    1  0.6219721E-006  0.2319399E+03  0.7818608E-02  0.1178718E+00
          2   -1    0    0  502    0  0.00000000000E+00  0.00000000000E+00  0.74704666457E+03  0.74704666457E+03  0.00000000000E+00 0. -1.
          1   -1    0    0  501    0 -0.00000000000E+00 -0.00000000000E+00 -0.56971912885E+03  0.56971912885E+03  0.00000000000E+00 0. -1.
         25    2    1    2    0    0 -0.19271608737E+03 -0.22678806592E+03  0.47915598182E+03  0.57774362982E+03  0.12499971884E+03 0.  0.
          2    1    1    2  501    0  0.52310197702E+02  0.11174714461E+03 -0.47342247828E+03  0.48923677708E+03  0.00000000000E+00 0. -1.
          1    1    1    2  502    0  0.14040588967E+03  0.11504092132E+03  0.17159403218E+03  0.24978538651E+03  0.00000000000E+00 0. -1.
         22    1    3    3    0    0 -0.88337668339E+02 -0.19319843517E+03  0.29754930459E+03  0.36560192513E+03  0.00000000000E+00 0.  1.
         22    1    3    3    0    0 -0.10437841903E+03 -0.33589630757E+02  0.18160667723E+03  0.21214170469E+03  0.00000000000E+00 0.  1.
</event>
<event>
 7    1  0.6219721E-006  0.1471501E+03  0.7818608E-02  0.1286524E+00
          2   -1    0    0  502    0  0.00000000000E+00  0.00000000000E+00  0.96707426515E+03  0.96707426515E+03  0.00000000000E+00 0. -1.
          1   -1    0    0  501    0 -0.00000000000E+00 -0.00000000000E+00 -0.61527090174E+03  0.61527090174E+03  0.00000000000E+00 0. -1.
         25    2    1    2    0    0  0.96294940346E+02  0.16975503483E+03  0.61053017197E+03  0.65303945214E+03  0.12499579100E+03 0.  0.
          2    1    1    2  501    0 -0.38899738555E+02 -0.14128616059E+03 -0.58178430029E+03  0.59995661585E+03  0.00000000000E+00 0. -1.
          1    1    1    2  502    0 -0.57395201791E+02 -0.28468874246E+02  0.32305749172E+03  0.32934909890E+03  0.00000000000E+00 0. -1.
         22    1    3    3    0    0  0.43743431136E+02  0.17138521777E+03  0.50613454900E+03  0.53615162251E+03  0.00000000000E+00 0. -1.
         22    1    3    3    0    0  0.52551509210E+02 -0.16301829366E+01  0.10439562298E+03  0.11688782962E+03  0.00000000000E+00 0. -1.
</event>
<event>
 7    1  0.6219721E-006  0.1094509E+03  0.7818608E-02  0.1340378E+00
          2   -1    0    0  502    0  0.00000000000E+00  0.00000000000E+00  0.29115934470E+03  0.29115934470E+03  0.00000000000E+00 0. -1.
          1   -1    0    0  501    0 -0.00000000000E+00 -0.00000000000E+00 -0.29300361105E+03  0.29300361105E+03  0.00000000000E+00 0. -1.
         25    2    1    2    0    0  0.92487067586E+02  0.80533244276E+02 -0.70651077103E+02  0.18883197315E+03  0.12500591299E+03 0.  0.
          2    1    1    2  501    0 -0.49159165543E+02  0.19718575008E+02 -0.14547768451E+03  0.15481990327E+03  0.00000000000E+00 0. -1.
          1    1    1    2  502    0 -0.43327902043E+02 -0.10025181928E+03  0.21428449527E+03  0.24051107932E+03  0.00000000000E+00 0. -1.
         22    1    3    3    0    0  0.81573953852E+02  0.76627447511E+02 -0.10445796170E+03  0.15309324421E+03  0.00000000000E+00 0. -1.
         22    1    3    3    0    0  0.10913113734E+02  0.39057967645E+01  0.33806884601E+02  0.35738728939E+02  0.00000000000E+00 0. -1.
</event>
<event>
 7    1  0.6219721E-006  0.5783665E+02  0.7818608E-02  0.1451766E+00
          2   -1    0    0  502    0  0.00000000000E+00  0.00000000000E+00  0.12404591709E+04  0.12404591709E+04  0.00000000000E+00 0. -1.
          1   -1    0    0  501    0 -0.00000000000E+00 -0.00000000000E+00 -0.75924780368E+03  0.75924780368E+03  0.00000000000E+00 0. -1.
         25    2    1    2    0    0  0.15742871977E+01  0.59618312334E+02  0.16844364399E+03  0.21808106176E+03  0.12501706585E+03 0.  0.
          2    1    1    2  501    0  0.37719177527E+02 -0.16630993898E+02 -0.73303980278E+03  0.73419798336E+03  0.00000000000E+00 0. -1.
          1    1    1    2  502    0 -0.39293464725E+02 -0.42987318437E+02  0.10458075260E+04  0.10474279295E+04  0.00000000000E+00 0. -1.
         22    1    3    3    0    0 -0.47170930947E+02 -0.14540468591E+02  0.68363748579E+02  0.84321551652E+02  0.00000000000E+00 0.  1.
         22    1    3    3    0    0  0.48745218145E+02  0.74158780925E+02  0.10007989541E+03  0.13375951011E+03  0.00000000000E+00 0.  1.
</event>
<event>
 7    1  0.6219721E-006  0.1139956E+03  0.7818608E-02  0.1258257E+00
          2   -1    0    0  502    0  0.00000000000E+00  0.00000000000E+00  0.15370269462E+04  0.15370269462E+04  0.00000000000E+00 0. -1.
          1   -1    0    0  501    0 -0.00000000000E+00 -0.00000000000E+00 -0.64181421417E+03  0.64181421417E+03  0.00000000000E+00 0. -1.
         25    2    1    2    0    0 -0.19529440438E+02 -0.18431431009E+03  0.32540872335E+02  0.22591394046E+03  0.12500014470E+03 0.  0.
          2    1    1    2  501    0  0.69442610235E+02  0.87878388416E+02 -0.53724968308E+03  0.54880060973E+03  0.00000000000E+00 0. -1.
          1    1    1    2  502    0 -0.49913169797E+02  0.96435921670E+02  0.13999215427E+04  0.14041266101E+04  0.00000000000E+00 0. -1.
         22    1    3    3    0    0 -0.36693492394E+02 -0.74029152028E+02 -0.41014106500E+02  0.92243615855E+02  0.00000000000E+00 0. -1.
         22    1    3    3    0    0  0.17164051957E+02 -0.11028515806E+03  0.73554978836E+02  0.13367032460E+03  0.00000000000E+00 0. -1.
</event>
<event>
 7    1  0.6219721E-006  0.7977762E+02  0.7818608E-02  0.1413410E+00
          2   -1    0    0  502    0  0.00000000000E+00  0.00000000000E+00  0.11632318149E+03  0.11632318149E+03  0.00000000000E+00 0. -1.
          1   -1    0    0  501    0 -0.00000000000E+00 -0.00000000000E+00 -0.59689290287E+03  0.59689290287E+03  0.00000000000E+00 0. -1.
         25    2    1    2    0    0  0.69632180991E+02 -0.90723904917E+02 -0.43917043001E+02  0.17502220376E+03  0.12499839036E+03 0.  0.
          2    1    1    2  501    0 -0.57864361590E+02  0.52568377148E+02 -0.47585686582E+03  0.48223591256E+03  0.00000000000E+00 0. -1.
          1    1    1    2  502    0 -0.11767819401E+02  0.38155527769E+02  0.39204187440E+02  0.55957968026E+02  0.00000000000E+00 0. -1.
         22    1    3    3    0    0  0.10613221127E+03 -0.63284253210E+02 -0.35736233343E+02  0.12863133890E+03  0.00000000000E+00 0. -1.
         22    1    3    3    0    0 -0.36500030280E+02 -0.27439651707E+02 -0.81808096579E+01  0.46390864865E+02  0.00000000000E+00 0. -1.
</event>
<event>
 7    1  0.6219721E-006  0.5943611E+02  0.7818608E-02  0.1441563E+00
          2   -1    0    0  502    0  0.00000000000E+00  0.00000000000E+00  0.21522738494E+04  0.21522738494E+04  0.00000000000E+00 0. -1.
          1   -1    0    0  501    0 -0.00000000000E+00 -0.00000000000E+00 -0.26261096608E+02  0.26261096608E+02  0.00000000000E+00 0. -1.
         25    2    1    2    0    0  0.37730078925E+02 -0.94229147746E+02  0.24928437873E+03  0.29676720388E+03  0.12500152271E+03 0.  0.
          2    1    1    2  501    0 -0.12578197322E+02  0.41391755785E+02  0.23201496622E+03  0.23601362894E+03  0.00000000000E+00 0. -1.
          1    1    1    2  502    0 -0.25151881603E+02  0.52837391960E+02  0.16447134078E+04  0.16457541132E+04  0.00000000000E+00 0. -1.
         22    1    3    3    0    0  0.21740327536E+02 -0.31055276265E+02  0.22348927965E+03  0.22668156110E+03  0.00000000000E+00 0.  1.
         22    1    3    3    0    0  0.15989751389E+02 -0.63173871480E+02  0.25795099080E+02  0.70085642780E+02  0.00000000000E+00 0.  1.
</event>
<event>
 7    1  0.6219721E-006  0.2436407E+02  0.7818608E-02  0.1676338E+00
          2   -1    0    0  502    0  0.00000000000E+00  0.00000000000E+00  0.41344451829E+03  0.41344451829E+03  0.00000000000E+00 0. -1.
          1   -1    0    0  501    0 -0.00000000000E+00 -0.00000000000E+00 -0.43473489951E+03  0.43473489951E+03  0.00000000000E+00 0. -1.
         25    2    1    2    0    0 -0.23632252240E+02 -0.22845235286E+02 -0.18722112592E+03  0.22750219012E+03  0.12500043360E+03 0.  0.
          2    1    1    2  501    0  0.24387872214E+02 -0.71392775054E+00 -0.22636395043E+03  0.22767502291E+03  0.00000000000E+00 0. -1.
          1    1    1    2  502    0 -0.75561997438E+00  0.23559163036E+02  0.39229469513E+03  0.39300220477E+03  0.00000000000E+00 0. -1.
         22    1    3    3    0    0  0.22191894861E+01 -0.70642118292E+02 -0.13369603918E+03  0.15122785647E+03  0.00000000000E+00 0.  1.
         22    1    3    3    0    0 -0.25851441726E+02  0.47796883006E+02 -0.53525086733E+02  0.76274333653E+02  0.00000000000E+00 0.  1.
</event>
<event>
 7    1  0.6219721E-006  0.1020722E+03  0.7818608E-02  0.1285121E+00
          2   -1    0    0  502    0  0.00000000000E+00  0.00000000000E+00  0.76281936496E+03  0.76281936496E+03  0.00000000000E+00 0. -1.
          1   -1    0    0  501    0 -0.00000000000E+00 -0.00000000000E+00 -0.97671665032E+02  0.97671665032E+02  0.00000000000E+00 0. -1.
         25    2    1    2    0    0 -0.30752464870E+02 -0.92308447929E+02  0.22077632205E+03  0.27172866058E+03  0.12501086731E+03 0.  0.
          2    1    1    2  501    0  0.93591584726E+02  0.24994672051E+00 -0.32472286615E+02  0.99065112945E+02  0.00000000000E+00 0. -1.
          1    1    1    2  502    0 -0.62839119856E+02  0.92058501208E+02  0.47684366450E+03  0.48969725647E+03  0.00000000000E+00 0. -1.
         22    1    3    3    0    0 -0.38625412701E+01 -0.85402149287E+02  0.22761175598E+03  0.24313691161E+03  0.00000000000E+00 0.  1.
         22    1    3    3    0    0 -0.26889923600E+02 -0.69062986412E+01 -0.68354339247E+01  0.28591748968E+02  0.00000000000E+00 0.  1.
</event>
<event>
 7    1  0.6219721E-006  0.5626290E+02  0.7818608E-02  0.1416551E+00
          2   -1    0    0  502    0  0.00000000000E+00  0.00000000000E+00  0.49006153021E+02  0.49006153021E+02  0.00000000000E+00 0. -1.
          1   -1    0    0  501    0 -0.00000000000E+00 -0.00000000000E+00 -0.54676797559E+03  0.54676797559E+03  0.00000000000E+00 0. -1.
         25    2    1    2    0    0 -0.27587924248E+02 -0.35253736035E+02 -0.15841377371E+03  0.20669694131E+03  0.12499912950E+03 0.  0.
          2    1    1    2  501    0  0.57714315109E+02 -0.12263777377E+02 -0.32594172181E+03  0.33123911065E+03  0.00000000000E+00 0. -1.
          1    1    1    2  502    0 -0.30126390861E+02  0.47517513412E+02 -0.13406327049E+02  0.57838076664E+02  0.00000000000E+00 0. -1.
         22    1    3    3    0    0 -0.27906453846E+02  0.31187395821E+02 -0.84792973119E+01  0.42700378303E+02  0.00000000000E+00 0. -1.
         22    1    3    3    0    0  0.31852959774E+00 -0.66441131855E+02 -0.14993447640E+03  0.16399656300E+03  0.00000000000E+00 0. -1.
</event>
<event>
 7    1  0.6219721E-006  0.5494820E+02  0.7818608E-02  0.1478722E+00
          2   -1    0    0  502    0  0.00000000000E+00  0.00000000000E+00  0.10888590754E+04  0.10888590754E+04  0.00000000000E+00 0. -1.
          1   -1    0    0  501    0 -0.00000000000E+00 -0.00000000000E+00 -0.84543609019E+03  0.84543609019E+03  0.00000000000E+00 0. -1.
         25    2    1    2    0    0  0.48722721502E+01 -0.65683240838E+02  0.57335434769E+02  0.15248041768E+03  0.12499959413E+03 0.  0.
          2    1    1    2  501    0 -0.33133079897E+02  0.43829421384E+02 -0.79659272475E+03  0.79848530875E+03  0.00000000000E+00 0. -1.
          1    1    1    2  502    0  0.28260807747E+02  0.21853819453E+02  0.98268027518E+03  0.98332943916E+03  0.00000000000E+00 0. -1.
         22    1    3    3    0    0 -0.15453914894E+02  0.31081539198E+02  0.38478791538E+02  0.51821838665E+02  0.00000000000E+00 0.  1.
         22    1    3    3    0    0  0.20326187044E+02 -0.96764780035E+02  0.18856643231E+02  0.10065857901E+03  0.00000000000E+00 0.  1.
</event>
<event>
 7    1  0.6219721E-006  0.1565231E+03  0.7818608E-02  0.1219958E+00
          2   -1    0    0  502    0  0.00000000000E+00  0.00000000000E+00  0.24581868769E+03  0.24581868769E+03  0.00000000000E+00 0. -1.
          1   -1    0    0  501    0 -0.00000000000E+00 -0.00000000000E+00 -0.28011357769E+03  0.28011357769E+03  0.00000000000E+00 0. -1.
         25    2    1    2    0    0 -0.93282897502E+02 -0.55516501463E+02 -0.26579225951E+02  0.16767103094E+03  0.12499335367E+03 0.  0.
          2    1    1    2  501    0  0.13517801482E+03  0.16449793140E+03 -0.72271267145E+02  0.22484617226E+03  0.00000000000E+00 0. -1.
          1    1    1    2  502    0 -0.41895117323E+02 -0.10898142993E+03  0.64555603090E+02  0.13341506218E+03  0.00000000000E+00 0. -1.
         22    1    3    3    0    0 -0.63700189269E+02  0.26917653403E+02  0.14935399074E+02  0.70748429827E+02  0.00000000000E+00 0. -1.
         22    1    3    3    0    0 -0.29582708233E+02 -0.82434154865E+02 -0.41514625025E+02  0.96922601109E+02  0.00000000000E+00 0. -1.
</event>
<event>
 7    1  0.6219721E-006  0.4523609E+02  0.7818608E-02  0.1580996E+00
          2   -1    0    0  502    0  0.00000000000E+00  0.00000000000E+00  0.61832339156E+03  0.61832339156E+03  0.00000000000E+00 0. -1.
          1   -1    0    0  501    0 -0.00000000000E+00 -0.00000000000E+00 -0.29132003892E+02  0.29132003892E+02  0.00000000000E+00 0. -1.
         25    2    1    2    0    0 -0.39299533291E+02  0.27947621031E+02  0.30410697576E+03  0.33231361557E+03  0.12500305416E+03 0.  0.
          2    1    1    2  501    0  0.18298703674E+02  0.12359145374E+02 -0.40561649147E+01  0.22450913219E+02  0.00000000000E+00 0. -1.
          1    1    1    2  502    0  0.21000829616E+02 -0.40306766405E+02  0.28914057682E+03  0.29269086666E+03  0.00000000000E+00 0. -1.
         22    1    3    3    0    0  0.89848706694E+01  0.45205817351E+02  0.33721186766E+02  0.57108775685E+02  0.00000000000E+00 0. -1.
         22    1    3    3    0    0 -0.48284403960E+02 -0.17258196321E+02  0.27038578899E+03  0.27520483988E+03  0.00000000000E+00 0. -1.
</event>
<event>
 7    1  0.6219721E-006  0.9806723E+02  0.7818608E-02  0.1337100E+00
          2   -1    0    0  502    0  0.00000000000E+00  0.00000000000E+00  0.12107703589E+04  0.12107703589E+04  0.00000000000E+00 0. -1.
          1   -1    0    0  501    0 -0.00000000000E+00 -0.00000000000E+00 -0.11966385155E+03  0.11966385155E+03  0.00000000000E+00 0. -1.
         25    2    1    2    0    0 -0.18915183448E+01  0.78623704831E+02  0.54777920496E+03  0.56733594081E+03  0.12499098985E+03 0.  0.
          2    1    1    2  501    0 -0.58908970091E+02 -0.80206119898E+02 -0.85582617449E+02  0.13125422978E+03  0.00000000000E+00 0. -1.
          1    1    1    2  502    0  0.60800488435E+02  0.15824150675E+01  0.62890991982E+03  0.63184403984E+03  0.00000000000E+00 0. -1.
         22    1    3    3    0    0  0.33048807596E+02  0.10043708818E+03  0.36730504226E+03  0.38222091313E+03  0.00000000000E+00 0. -1.
         22    1    3    3    0    0 -0.34940325941E+02 -0.21813383347E+02  0.18047416270E+03  0.18511502768E+03  0.00000000000E+00 0. -1.
</event>
<event>
 7    1  0.6219721E-006  0.4177981E+02  0.7818608E-02  0.1560410E+00
          2   -1    0    0  502    0  0.00000000000E+00  0.00000000000E+00  0.23506306125E+04  0.23506306125E+04  0.00000000000E+00 0. -1.
          1   -1    0    0  501    0 -0.00000000000E+00 -0.00000000000E+00 -0.15110634383E+02  0.15110634383E+02  0.00000000000E+00 0. -1.
         25    2    1    2    0    0 -0.37582488295E+02 -0.30195402203E+02  0.33815913829E+03  0.36373197728E+03  0.12500057098E+03 0.  0.
          2    1    1    2  501    0 -0.40973020421E+01  0.26880433174E+02  0.86107781262E+02  0.90298923391E+02  0.00000000000E+00 0. -1.
          1    1    1    2  502    0  0.41679790337E+02  0.33149690296E+01  0.19112530586E+04  0.19117103462E+04  0.00000000000E+00 0. -1.
         22    1    3    3    0    0 -0.11996518165E+02 -0.67648358334E+02  0.10022112739E+03  0.12150922273E+03  0.00000000000E+00 0.  1.
         22    1    3    3    0    0 -0.25585970129E+02  0.37452956131E+02  0.23793801089E+03  0.24222275454E+03  0.00000000000E+00 0.  1.
</event>
<event>
 7    1  0.6219721E-006  0.5483705E+02  0.7818608E-02  0.1507943E+00
          2   -1    0    0  502    0  0.00000000000E+00  0.00000000000E+00  0.12233647869E+04  0.12233647869E+04  0.00000000000E+00 0. -1.
          1   -1    0    0  501    0 -0.00000000000E+00 -0.00000000000E+00 -0.23171318791E+03  0.23171318791E+03  0.00000000000E+00 0. -1.
         25    2    1    2    0    0 -0.52147300465E+01 -0.26652738894E+02  0.80376622483E+02  0.15107353526E+03  0.12500099886E+03 0.  0.
          2    1    1    2  501    0  0.23798556905E+01  0.55745569213E+02 -0.19220369499E+03  0.20013868334E+03  0.00000000000E+00 0. -1.
          1    1    1    2  502    0  0.28348743559E+01 -0.29092830319E+02  0.11034786715E+04  0.11038657562E+04  0.00000000000E+00 0. -1.
         22    1    3    3    0    0 -0.33513545762E+02 -0.84934316279E+01  0.10425185363E+03  0.10983508144E+03  0.00000000000E+00 0.  1.
         22    1    3    3    0    0  0.28298815715E+02 -0.18159307266E+02 -0.23875231146E+02  0.41238453821E+02  0.00000000000E+00 0.  1.
</event>
<event>
 7    1  0.6219721E-006  0.1687001E+03  0.7818608E-02  0.1253726E+00
          2   -1    0    0  502    0  0.00000000000E+00  0.00000000000E+00  0.27919610254E+04  0.27919610254E+04  0.00000000000E+00 0. -1.
          1   -1    0    0  501    0 -0.00000000000E+00 -0.00000000000E+00 -0.92489360915E+03  0.92489360915E+03  0.00000000000E+00 0. -1.
         25    2    1    2    0    0 -0.14164423723E+03  0.12251857082E+03  0.60812422737E+03  0.64847067763E+03  0.12500101478E+03 0.  0.
          2    1    1    2  501    0  0.16157343806E+03 -0.48412277020E+02 -0.89617005998E+03  0.91190487490E+03  0.00000000000E+00 0. -1.
          1    1    1    2  502    0 -0.19929200837E+02 -0.74106293805E+02  0.21551132489E+04  0.21564790820E+04  0.00000000000E+00 0. -1.
         22    1    3    3    0    0 -0.50924223070E+01 -0.71761015581E+01  0.18638851856E+03  0.18659611210E+03  0.00000000000E+00 0.  1.
         22    1    3    3    0    0 -0.13655181492E+03  0.12969467238E+03  0.42173570882E+03  0.46187456554E+03  0.00000000000E+00 0.  1.
</event>
<event>
 7    1  0.6219721E-006  0.1029729E+03  0.7818608E-02  0.1347950E+00
          2   -1    0    0  502    0  0.00000000000E+00  0.00000000000E+00  0.20567704205E+04  0.20567704205E+04  0.00000000000E+00 0. -1.
          1   -1    0    0  501    0 -0.00000000000E+00 -0.00000000000E+00 -0.42732180590E+03  0.42732180590E+03  0.00000000000E+00 0. -1.
         25    2    1    2    0    0  0.33312699246E+02  0.38195817581E+02  0.87807396466E+03  0.88837234927E+03  0.12499154820E+03 0.  0.
          2    1    1    2  501    0 -0.64752906429E+02 -0.80547616460E+02 -0.41524284007E+03  0.42791059070E+03  0.00000000000E+00 0. -1.
          1    1    1    2  502    0  0.31440207183E+02  0.42351798879E+02  0.11666174901E+04  0.11678092865E+04  0.00000000000E+00 0. -1.
         22    1    3    3    0    0 -0.29947648111E+02 -0.75906545009E+01  0.56003036825E+03  0.56088188866E+03  0.00000000000E+00 0.  1.
         22    1    3    3    0    0  0.63260347357E+02  0.45786472082E+02  0.31804359641E+03  0.32749046061E+03  0.00000000000E+00 0.  1.
</event>
<event>
 7    1  0.6219721E-006  0.1883854E+03  0.7818608E-02  0.1386734E+00
          2   -1    0    0  502    0  0.00000000000E+00  0.00000000000E+00  0.35397927481E+03  0.35397927481E+03  0.00000000000E+00 0. -1.
          1   -1    0    0  501    0 -0.00000000000E+00 -0.00000000000E+00 -0.19159749251E+04  0.19159749251E+04  0.00000000000E+00 0. -1.
         25    2    1    2    0    0  0.15029997858E+02 -0.16852782105E+03 -0.10310393136E+03  0.23427095809E+03  0.12499973535E+03 0.  0.
          2    1    1    2  501    0 -0.13934442607E+02  0.18938492698E+03 -0.17417417674E+04  0.17520631278E+04  0.00000000000E+00 0. -1.
          1    1    1    2  502    0 -0.10955552511E+01 -0.20857105928E+02  0.28285004855E+03  0.28362011402E+03  0.00000000000E+00 0. -1.
         22    1    3    3    0    0 -0.38007482617E+02 -0.65768087287E+01 -0.90314589568E+01  0.39615532293E+02  0.00000000000E+00 0. -1.
         22    1    3    3    0    0  0.53037480476E+02 -0.16195101232E+03 -0.94072472400E+02  0.19465542579E+03  0.00000000000E+00 0. -1.
</event>
<event>
 7    1  0.6219721E-006  0.1475643E+03  0.7818608E-02  0.1344509E+00
          2   -1    0    0  502    0  0.00000000000E+00  0.00000000000E+00  0.10339440202E+04  0.10339440202E+04  0.00000000000E+00 0. -1.
          1   -1    0    0  501    0 -0.00000000000E+00 -0.00000000000E+00 -0.23246616206E+03  0.23246616206E+03  0.00000000000E+00 0. -1.
         25    2    1    2    0    0 -0.60468693756E+02  0.94392847603E+02 -0.53966658623E+02  0.17636317651E+03  0.12500038872E+03 0.  0.
          2    1    1    2  501    0 -0.13090236213E+02  0.35578369448E+02 -0.10832920283E+03  0.11477103660E+03  0.00000000000E+00 0. -1.
          1    1    1    2  502    0  0.73558929969E+02 -0.12997121705E+03  0.96377371958E+03  0.97527596915E+03  0.00000000000E+00 0. -1.
         22    1    3    3    0    0 -0.79669292528E+02  0.24717080936E+02  0.43026306598E+01  0.83526300603E+02  0.00000000000E+00 0.  1.
         22    1    3    3    0    0  0.19200598772E+02  0.69675766667E+02 -0.58269289282E+02  0.92836875903E+02  0.00000000000E+00 0.  1.
</event>
<event>
 7    1  0.6219721E-006  0.4215507E+02  0.7818608E-02  0.1497138E+00
          2   -1    0    0  502    0  0.00000000000E+00  0.00000000000E+00  0.27279904106E+04  0.27279904106E+04  0.00000000000E+00 0. -1.
          1   -1    0    0  501    0 -0.00000000000E+00 -0.00000000000E+00 -0.15487736789E+02  0.15487736789E+02  0.00000000000E+00 0. -1.
         25    2    1    2    0    0  0.15891437055E+02  0.10156607085E+02  0.20675662213E+04  0.20714272288E+04  0.12499996142E+03 0.  0.
          2    1    1    2  501    0  0.38990019670E+02  0.12499043007E+02  0.22364638511E+02  0.46654311330E+02  0.00000000000E+00 0. -1.
          1    1    1    2  502    0 -0.54881456725E+02 -0.22655650092E+02  0.62257181403E+03  0.62539660728E+03  0.00000000000E+00 0. -1.
         22    1    3    3    0    0  0.27700680278E+02 -0.52578592193E+02  0.76906260669E+03  0.77135538441E+03  0.00000000000E+00 0. -1.
         22    1    3    3    0    0 -0.11809243222E+02  0.62735199278E+02  0.12985036146E+04  0.13000718444E+04  0.00000000000E+00 0. -1.
</event>
<event>
 7    1  0.6219721E-006  0.1057510E+03  0.7818608E-02  0.1442405E+00
          2   -1    0    0  502    0  0.00000000000E+00  0.00000000000E+00  0.84454465320E+03  0.84454465320E+03  0.00000000000E+00 0. -1.
          1   -1    0    0  501    0 -0.00000000000E+00 -0.00000000000E+00 -0.15814947214E+04  0.15814947214E+04  0.00000000000E+00 0. -1.
         25    2    1    2    0    0 -0.43237654718E+02  0.83798233997E+02 -0.38662618540E+03  0.41713085830E+03  0.12500682745E+03 0.  0.
          2    1    1    2  501    0 -0.24071702078E+02 -0.20861833208E+01 -0.11761130058E+04  0.11763611696E+04  0.00000000000E+00 0. -1.
          1    1    1    2  502    0  0.67309356796E+02 -0.81712050676E+02  0.82578912301E+03  0.83254734665E+03  0.00000000000E+00 0. -1.
         22    1    3    3    0    0  0.18660808618E+02  0.14871899705E+02 -0.25532595953E+03  0.25643857898E+03  0.00000000000E+00 0.  1.
         22    1    3    3    0    0 -0.61898463336E+02  0.68926334292E+02 -0.13130022587E+03  0.16069227933E+03  0.00000000000E+00 0.  1.
</event>
<event>
 7    1  0.6219721E-006  0.1144071E+03  0.7818608E-02  0.1294920E+00
          2   -1    0    0  502    0  0.00000000000E+00  0.00000000000E+00  0.11104391492E+04  0.11104391492E+04  0.00000000000E+00 0. -1.
          1   -1    0    0  501    0 -0.00000000000E+00 -0.00000000000E+00 -0.64013365942E+03  0.64013365942E+03  0.00000000000E+00 0. -1.
         25    2    1    2    0    0  0.14211278864E+02 -0.54610287787E+02  0.14910927851E+03  0.20259081490E+03  0.12500086947E+03 0.  0.
          2    1    1    2  501    0  0.37873945742E+02  0.11020239694E+03 -0.60628273020E+03  0.61737974780E+03  0.00000000000E+00 0. -1.
          1    1    1    2  502    0 -0.52085224606E+02 -0.55592109155E+02  0.92747894150E+03  0.93060224594E+03  0.00000000000E+00 0. -1.
         22    1    3    3    0    0  0.35811967723E+02  0.25248362748E+02  0.92484208029E+02  0.10233916937E+03  0.00000000000E+00 0. -1.
         22    1    3    3    0    0 -0.21600688859E+02 -0.79858650535E+02  0.56625070480E+02  0.10025164553E+03  0.00000000000E+00 0. -1.
</event>
<event>
 7    1  0.6219721E-006  0.1545307E+03  0.7818608E-02  0.1236406E+00
          2   -1    0    0  502    0  0.00000000000E+00  0.00000000000E+00  0.63572550557E+03  0.63572550557E+03  0.00000000000E+00 0. -1.
          1   -1    0    0  501    0 -0.00000000000E+00 -0.00000000000E+00 -0.21057176097E+04  0.21057176097E+04  0.00000000000E+00 0. -1.
         25    2    1    2    0    0 -0.11766196876E+03  0.19438692961E+03 -0.81425872582E+03  0.85455996175E+03  0.12499935343E+03 0.  0.
          2    1    1    2  501    0 -0.35911046598E+01 -0.99675156151E+02 -0.12596921343E+04  0.12636345619E+04  0.00000000000E+00 0. -1.
          1    1    1    2  502    0  0.12125307342E+03 -0.94711773454E+02  0.60395875607E+03  0.62324859156E+03  0.00000000000E+00 0. -1.
         22    1    3    3    0    0 -0.11617456693E+03  0.10696454904E+03 -0.64501547904E+03  0.66406544327E+03  0.00000000000E+00 0. -1.
         22    1    3    3    0    0 -0.14874018333E+01  0.87422380566E+02 -0.16924324679E+03  0.19049451848E+03  0.00000000000E+00 0. -1.
</event>
<event>
 7    1  0.6219721E-006  0.7758583E+02  0.7818608E-02  0.1465515E+00
          2   -1    0    0  502    0  0.00000000000E+00  0.00000000000E+00  0.18148317825E+03  0.18148317825E+03  0.00000000000E+00 0. -1.
          1   -1    0    0  501    0 -0.00000000000E+00 -0.00000000000E+00 -0.76025769394E+03  0.76025769394E+03  0.00000000000E+00 0. -1.
         25    2    1    2    0    0  0.58615204208E+02 -0.36015840478E+02 -0.28575405022E+02  0.14551052750E+03  0.12499550757E+03 0.  0.
          2    1    1    2  501    0 -0.92584822894E+01 -0.26216887614E+02 -0.66006995316E+03  0.66065527149E+03  0.00000000000E+00 0. -1.
          1    1    1    2  502    0 -0.49356721919E+02  0.62232728091E+02  0.10987084248E+03  0.13557507320E+03  0.00000000000E+00 0. -1.
         22    1    3    3    0    0  0.40133540264E+02 -0.67010815279E+02 -0.59336879925E+02  0.98091873964E+02  0.00000000000E+00 0. -1.
         22    1    3    3    0    0  0.18481663944E+02  0.30994974801E+02  0.30761474903E+02  0.47418653537E+02  0.00000000000E+00 0. -1.
</event>
<event>
 7    1  0.6219721E-006  0.2482438E+03  0.7818608E-02  0.1152000E+00
          2   -1    0    0  502    0  0.00000000000E+00  0.00000000000E+00  0.37645114215E+03  0.37645114215E+03  0.00000000000E+00 0. -1.
          1   -1    0    0  501    0 -0.00000000000E+00 -0.00000000000E+00 -0.10184757051E+04  0.10184757051E+04  0.00000000000E+00 0. -1.
         25    2    1    2    0    0 -0.12187230198E+03 -0.21327473953E+03 -0.30867061274E+03  0.41381307464E+03  0.12499896424E+03 0.  0.
          2    1    1    2  501    0 -0.11125738854E+03  0.11060279756E+03 -0.59536162396E+03  0.61568388692E+03  0.00000000000E+00 0. -1.
          1    1    1    2  502    0  0.23312969052E+03  0.10267194197E+03  0.26200767374E+03  0.36542988571E+03  0.00000000000E+00 0. -1.
         22    1    3    3    0    0  0.19539091661E+02 -0.20052858362E+02 -0.71534156971E+02  0.76818154397E+02  0.00000000000E+00 0.  1.
         22    1    3    3    0    0 -0.14141139364E+03 -0.19322188117E+03 -0.23713645577E+03  0.33699492025E+03  0.00000000000E+00 0.  1.
</event>
<event>
 7    1  0.6219721E-006  0.1375126E+03  0.7818608E-02  0.1319954E+00
          2   -1    0    0  502    0  0.00000000000E+00  0.00000000000E+00  0.10689226378E+04  0.10689226378E+04  0.00000000000E+00 0. -1.
          1   -1    0    0  501    0 -0.00000000000E+00 -0.00000000000E+00 -0.12037856621E+04  0.12037856621E+04  0.00000000000E+00 0. -1.
         25    2    1    2    0    0  0.30450202833E+01  0.17415938914E+03 -0.18536751096E+03  0.28341972197E+03  0.12499943881E+03 0.  0.
          2    1    1    2  501    0 -0.29324814574E+02 -0.13109086471E+03 -0.96410857813E+03  0.97342185613E+03  0.00000000000E+00 0. -1.
          1    1    1    2  502    0  0.26279794291E+02 -0.43068524431E+02  0.10146130648E+04  0.10158667219E+04  0.00000000000E+00 0. -1.
         22    1    3    3    0    0  0.38416832284E+02  0.15230699197E+02 -0.78349868535E+02  0.88580636147E+02  0.00000000000E+00 0. -1.
         22    1    3    3    0    0 -0.35371812000E+02  0.15892868995E+03 -0.10701764243E+03  0.19483908582E+03  0.00000000000E+00 0. -1.
</event>
<event>
 7    1  0.6219721E-006  0.7752509E+02  0.7818608E-02  0.1358288E+00
          2   -1    0    0  502    0  0.00000000000E+00  0.00000000000E+00  0.17875108417E+04  0.17875108417E+04  0.00000000000E+00 0. -1.
          1   -1    0    0  501    0 -0.00000000000E+00 -0.00000000000E+00 -0.46769227235E+03  0.46769227235E+03  0.00000000000E+00 0. -1.
         25    2    1    2    0    0  0.24613625501E+02  0.13756278945E+03 -0.45259358000E+01  0.18755981511E+03  0.12501539324E+03 0.  0.
          2    1    1    2  501    0 -0.14714958014E+01 -0.64155544477E+02 -0.36799801814E+03  0.37355138942E+03  0.00000000000E+00 0. -1.
          1    1    1    2  502    0 -0.23142129700E+02 -0.73407244972E+02  0.16923425233E+04  0.16940919095E+04  0.00000000000E+00 0. -1.
         22    1    3    3    0    0  0.30891792320E+02 -0.13740641939E+01  0.31239976821E+02  0.43955967023E+02  0.00000000000E+00 0. -1.
         22    1    3    3    0    0 -0.62781668185E+01  0.13893685364E+03 -0.35765912621E+02  0.14360384808E+03  0.00000000000E+00 0. -1.
</event>
<event>
 7    1  0.6219721E-006  0.1145446E+03  0.7818608E-02  0.1262695E+00
          2   -1    0    0  502    0  0.00000000000E+00  0.00000000000E+00  0.38070955465E+03  0.38070955465E+03  0.00000000000E+00 0. -1.
          1   -1    0    0  501    0 -0.00000000000E+00 -0.00000000000E+00 -0.49727943344E+03  0.49727943344E+03  0.00000000000E+00 0. -1.
         25    2    1    2    0    0 -0.10439633249E+03  0.29798490537E+02 -0.84426197649E+02  0.18587340941E+03  0.12503838291E+03 0.  0.
          2    1    1    2  501    0  0.99377456483E+02  0.73537385210E+02 -0.34294490050E+03  0.36454743266E+03  0.00000000000E+00 0. -1.
          1    1    1    2  502    0  0.50188760050E+01 -0.10333587575E+03  0.31080121936E+03  0.32756814602E+03  0.00000000000E+00 0. -1.
         22    1    3    3    0    0 -0.81416672778E+02 -0.39767487785E+02 -0.33300920877E+02  0.96535377050E+02  0.00000000000E+00 0. -1.
         22    1    3    3    0    0 -0.22979659710E+02  0.69565978322E+02 -0.51125276772E+02  0.89338032357E+02  0.00000000000E+00 0. -1.
</event>
<event>
 7    1  0.1001660E-005  0.8948471E+02  0.7818608E-02  0.1330640E+00
          2   -1    0    0  502    0  0.00000000000E+00  0.00000000000E+00  0.24478214959E+04  0.24478214959E+04  0.00000000000E+00 0. -1.
          1   -1    0    0  501    0 -0.00000000000E+00 -0.00000000000E+00 -0.19199185370E+04  0.19199185370E+04  0.00000000000E+00 0. -1.
         25    2    1    2    0    0 -0.20286323865E+02  0.88425900423E+02 -0.63922472247E+03  0.65761984962E+03  0.12499978397E+03 0.  0.
          2    1    1    2  501    0  0.69229250718E+02 -0.13471800494E+02 -0.12696957504E+04  0.12716530490E+04  0.00000000000E+00 0. -1.
          1    1    1    2  502    0 -0.48942926853E+02 -0.74954099929E+02  0.24368234318E+04  0.24384671342E+04  0.00000000000E+00 0. -1.
         22    1    3    3    0    0  0.19839216458E+02 -0.21570149995E+02 -0.61191696346E+02  0.67847546618E+02  0.00000000000E+00 0. -1.
         22    1    3    3    0    0 -0.40125540324E+02  0.10999605042E+03 -0.57803302612E+03  0.58977230300E+03  0.00000000000E+00 0. -1.
</event>
<event>
 7    1  0.6219721E-006  0.1270805E+03  0.7818608E-02  0.1259653E+00
          2   -1    0    0  502    0  0.00000000000E+00  0.00000000000E+00  0.20006896872E+03  0.20006896872E+03  0.00000000000E+00 0. -1.
          1   -1    0    0  501    0 -0.00000000000E+00 -0.00000000000E+00 -0.40847488150E+03  0.40847488150E+03  0.00000000000E+00 0. -1.
         25    2    1    2    0    0  0.31663833952E+02 -0.13566389467E+03 -0.44685836192E+02  0.19242992121E+03  0.12500063969E+03 0.  0.
          2    1    1    2  501    0 -0.94028060984E+02  0.19736881120E+02 -0.24378899921E+03  0.26203796836E+03  0.00000000000E+00 0. -1.
          1    1    1    2  502    0  0.62364227033E+02  0.11592701355E+03  0.80068922616E+02  0.15407596066E+03  0.00000000000E+00 0. -1.
         22    1    3    3    0    0 -0.24574834004E+02 -0.19485967121E+01  0.21754082549E+02  0.32877950103E+02  0.00000000000E+00 0. -1.
         22    1    3    3    0    0  0.56238667955E+02 -0.13371529796E+03 -0.66439918741E+02  0.15955197110E+03  0.00000000000E+00 0. -1.
</event>
<event>
 7    1  0.6219721E-006  0.1271972E+03  0.7818608E-02  0.1321453E+00
          2   -1    0    0  502    0  0.00000000000E+00  0.00000000000E+00  0.11082079639E+04  0.11082079639E+04  0.00000000000E+00 0. -1.
          1   -1    0    0  501    0 -0.00000000000E+00 -0.00000000000E+00 -0.12132697736E+04  0.12132697736E+04  0.00000000000E+00 0. -1.
         25    2    1    2    0    0  0.11756959894E+03 -0.48890804539E+02  0.22308082564E+03  0.28566249780E+03  0.12500034607E+03 0.  0.
          2    1    1    2  501    0  0.11071495648E+02  0.52668825704E+02 -0.11765107339E+04  0.11777410964E+04  0.00000000000E+00 0. -1.
          1    1    1    2  502    0 -0.12864109458E+03 -0.37780211647E+01  0.84836809853E+03  0.85807414322E+03  0.00000000000E+00 0. -1.
         22    1    3    3    0    0  0.11443136802E+03 -0.34994008172E+02  0.23715616604E+03  0.26563539991E+03  0.00000000000E+00 0. -1.
         22    1    3    3    0    0  0.31382309185E+01 -0.13896796367E+02 -0.14075340398E+02  0.20027097890E+02  0.00000000000E+00 0. -1.
</event>
<event>
 7    1  0.6219721E-006  0.6681593E+02  0.7818608E-02  0.1402076E+00
          2   -1    0    0  502    0  0.00000000000E+00  0.00000000000E+00  0.92286821836E+03  0.92286821836E+03  0.00000000000E+00 0. -1.
          1   -1    0    0  501    0 -0.00000000000E+00 -0.00000000000E+00 -0.63513531882E+02  0.63513531882E+02  0.00000000000E+00 0. -1.
         25    2    1    2    0    0  0.60906974193E+02 -0.44267656663E+02  0.27515898395E+03  0.31146041202E+03  0.12500334744E+03 0.  0.
          2    1    1    2  501    0 -0.67250961108E+02 -0.74433884408E+01 -0.18367265339E+02  0.70110286246E+02  0.00000000000E+00 0. -1.
          1    1    1    2  502    0  0.63439869147E+01  0.51711045104E+02  0.60256296787E+03  0.60481105198E+03  0.00000000000E+00 0. -1.
         22    1    3    3    0    0 -0.28280017068E+02 -0.37247946273E+02  0.15338431240E+03  0.16035559285E+03  0.00000000000E+00 0.  1.
         22    1    3    3    0    0  0.89186991261E+02 -0.70197103899E+01  0.12177467155E+03  0.15110481917E+03  0.00000000000E+00 0.  1.
</event>
<event>
 7    1  0.6219721E-006  0.7991762E+02  0.7818608E-02  0.1422955E+00
          2   -1    0    0  502    0  0.00000000000E+00  0.00000000000E+00  0.51359323325E+03  0.51359323325E+03  0.00000000000E+00 0. -1.
          1   -1    0    0  501    0 -0.00000000000E+00 -0.00000000000E+00 -0.38426498128E+03  0.38426498128E+03  0.00000000000E+00 0. -1.
         25    2    1    2    0    0 -0.34666709723E+02 -0.26607177617E+02  0.20795901128E+03  0.24653908390E+03  0.12499938741E+03 0.  0.
          2    1    1    2  501    0  0.61640372585E+02  0.51978465769E+02 -0.35929059830E+03  0.36822687363E+03  0.00000000000E+00 0. -1.
          1    1    1    2  502    0 -0.26973662861E+02 -0.25371288152E+02  0.28065983899E+03  0.28309225700E+03  0.00000000000E+00 0. -1.
         22    1    3    3    0    0 -0.42732456788E+02 -0.94755986201E+01  0.21985981561E+03  0.22417445964E+03  0.00000000000E+00 0. -1.
         22    1    3    3    0    0  0.80657470650E+01 -0.17131578997E+02 -0.11900804330E+02  0.22364624261E+02  0.00000000000E+00 0. -1.
</event>
<event>
 7    1  0.6219721E-006  0.7382452E+02  0.7818608E-02  0.1430184E+00
          2   -1    0    0  502    0  0.00000000000E+00  0.00000000000E+00  0.72375690882E+03  0.72375690882E+03  0.00000000000E+00 0. -1.
          1   -1    0    0  501    0 -0.00000000000E+00 -0.00000000000E+00 -0.13758253997E+04  0.13758253997E+04  0.00000000000E+00 0. -1.
         25    2    1    2    0    0  0.92441125378E+02  0.55493987143E+02  0.18242388045E+03  0.24602452368E+03  0.12499859929E+03 0.  0.
          2    1    1    2  501    0 -0.69083039386E+02 -0.25597494447E+02 -0.13423073102E+04  0.13443275691E+04  0.00000000000E+00 0. -1.
          1    1    1    2  502    0 -0.23358085992E+02 -0.29896492696E+02  0.50781493887E+03  0.50923021572E+03  0.00000000000E+00 0. -1.
         22    1    3    3    0    0 -0.28817203979E+02  0.15665398033E+02  0.63997884280E+02  0.71913594911E+02  0.00000000000E+00 0.  1.
         22    1    3    3    0    0  0.12125832936E+03  0.39828589110E+02  0.11842599617E+03  0.17411092877E+03  0.00000000000E+00 0.  1.
</event>
<event>
 7    1  0.6219721E-006  0.3010213E+03  0.7818608E-02  0.1196907E+00
          2   -1    0    0  502    0  0.00000000000E+00  0.00000000000E+00  0.88802810220E+03  0.88802810220E+03  0.00000000000E+00 0. -1.
          1   -1    0    0  501    0 -0.00000000000E+00 -0.00000000000E+00 -0.30594967429E+03  0.30594967429E+03  0.00000000000E+00 0. -1.
         25    2    1    2    0    0  0.21363983870E+03 -0.16569398318E+03  0.40534739439E+03  0.50301863342E+03  0.12499903475E+03 0.  0.
          2    1    1    2  501    0  0.72679361187E+02 -0.27486235043E+02 -0.17899808773E+03  0.19513610140E+03  0.00000000000E+00 0. -1.
          1    1    1    2  502    0 -0.28631919989E+03  0.19318021822E+03  0.35572912125E+03  0.49582304166E+03  0.00000000000E+00 0. -1.
         22    1    3    3    0    0  0.99966877173E+02 -0.15374429199E+03  0.24126857544E+03  0.30305314608E+03  0.00000000000E+00 0.  1.
         22    1    3    3    0    0  0.11367296153E+03 -0.11949691190E+02  0.16407881895E+03  0.19996548735E+03  0.00000000000E+00 0.  1.
</event>
<event>
 7    1  0.6219721E-006  0.7509804E+02  0.7818608E-02  0.1349257E+00
          2   -1    0    0  502    0  0.00000000000E+00  0.00000000000E+00  0.23703861709E+03  0.23703861709E+03  0.00000000000E+00 0. -1.
          1   -1    0    0  501    0 -0.00000000000E+00 -0.00000000000E+00 -0.16280722499E+03  0.16280722499E+03  0.00000000000E+00 0. -1.
         25    2    1    2    0    0 -0.34634141043E+02 -0.10289153656E+02  0.40263850524E+01  0.13017883056E+03  0.12499970296E+03 0.  0.
          2    1    1    2  501    0  0.92893105069E+01 -0.70915218551E+02 -0.73573647310E+02  0.10260770483E+03  0.00000000000E+00 0. -1.
          1    1    1    2  502    0  0.25344830537E+02  0.81204372207E+02  0.14377865436E+03  0.16705930669E+03  0.00000000000E+00 0. -1.
         22    1    3    3    0    0 -0.49606161537E+02 -0.52812564326E+02  0.29690324851E+02  0.78303598914E+02  0.00000000000E+00 0.  1.
         22    1    3    3    0    0  0.14972020494E+02  0.42523410669E+02 -0.25663939799E+02  0.51875231649E+02  0.00000000000E+00 0.  1.
</event>
<event>
 7    1  0.6219721E-006  0.6088399E+02  0.7818608E-02  0.1506778E+00
          2   -1    0    0  502    0  0.00000000000E+00  0.00000000000E+00  0.24934798388E+04  0.24934798388E+04  0.00000000000E+00 0. -1.
          1   -1    0    0  501    0 -0.00000000000E+00 -0.00000000000E+00 -0.96668895913E+02  0.96668895913E+02  0.00000000000E+00 0. -1.
         25    2    1    2    0    0  0.80562746072E+02  0.11758751981E+02  0.81647604020E+03  0.82999054667E+03  0.12499023574E+03 0.  0.
          2    1    1    2  501    0 -0.21294881984E+02 -0.15834742371E+02 -0.87413109489E+02  0.91352409795E+02  0.00000000000E+00 0. -1.
          1    1    1    2  502    0 -0.59267864088E+02  0.40759903899E+01  0.16677480122E+04  0.16688057782E+04  0.00000000000E+00 0. -1.
         22    1    3    3    0    0  0.39502221176E+02 -0.56820971691E+02  0.38761735055E+03  0.39374643966E+03  0.00000000000E+00 0. -1.
         22    1    3    3    0    0  0.41060524897E+02  0.68579723672E+02  0.42885868965E+03  0.43624410700E+03  0.00000000000E+00 0. -1.
</event>
<event>
 7    1  0.6219721E-006  0.1534780E+03  0.7818608E-02  0.1217069E+00
          2   -1    0    0  502    0  0.00000000000E+00  0.00000000000E+00  0.28711619395E+03  0.28711619395E+03  0.00000000000E+00 0. -1.
          1   -1    0    0  501    0 -0.00000000000E+00 -0.00000000000E+00 -0.63690570934E+03  0.63690570934E+03  0.00000000000E+00 0. -1.
         25    2    1    2    0    0 -0.20883114214E+03 -0.10922514129E+03 -0.41832837743E+02  0.27002923274E+03  0.12500089121E+03 0.  0.
          2    1    1    2  501    0  0.86477114773E+02  0.11906425036E+03 -0.44577507223E+03  0.46943583387E+03  0.00000000000E+00 0. -1.
          1    1    1    2  502    0  0.12235402737E+03 -0.98391090721E+01  0.13781839459E+03  0.18455683669E+03  0.00000000000E+00 0. -1.
         22    1    3    3    0    0 -0.10304099639E+03 -0.60609712705E+01 -0.62742589941E+02  0.12079244555E+03  0.00000000000E+00 0. -1.
         22    1    3    3    0    0 -0.10579014575E+03 -0.10316417002E+03  0.20909752198E+02  0.14923678719E+03  0.00000000000E+00 0. -1.
</event>
<event>
 7    1  0.6219721E-006  0.6027450E+02  0.7818608E-02  0.1414590E+00
          2   -1    0    0  502    0  0.00000000000E+00  0.00000000000E+00  0.16151766429E+03  0.16151766429E+03  0.00000000000E+00 0. -1.
          1   -1    0    0  501    0 -0.00000000000E+00 -0.00000000000E+00 -0.21217623735E+04  0.21217623735E+04  0.00000000000E+00 0. -1.
         25    2    1    2    0    0  0.64138484608E+02 -0.35488213798E+02 -0.23793324996E+03  0.27858748842E+03  0.12500239495E+03 0.  0.
          2    1    1    2  501    0 -0.16883967990E+02  0.58057075741E+02 -0.18581375673E+04  0.18591210051E+04  0.00000000000E+00 0. -1.
          1    1    1    2  502    0 -0.47254516618E+02 -0.22568861943E+02  0.13582610807E+03  0.14557154428E+03  0.00000000000E+00 0. -1.
         22    1    3    3    0    0 -0.11332004555E+02  0.35025719234E+02 -0.34580012630E+02  0.50507352025E+02  0.00000000000E+00 0.  1.
         22    1    3    3    0    0  0.75470489163E+02 -0.70513933032E+02 -0.20335323733E+03  0.22808013639E+03  0.00000000000E+00 0.  1.
</event>
<event>
 7    1  0.6219721E-006  0.8192182E+02  0.7818608E-02  0.1468207E+00
          2   -1    0    0  502    0  0.00000000000E+00  0.00000000000E+00  0.28036180132E+03  0.28036180132E+03  0.00000000000E+00 0. -1.
          1   -1    0    0  501    0 -0.00000000000E+00 -0.00000000000E+00 -0.30914911157E+03  0.30914911157E+03  0.00000000000E+00 0. -1.
         25    2    1    2    0    0 -0.88922094869E+02  0.21680641801E+01  0.34073506040E+02  0.15715592527E+03  0.12500056630E+03 0.  0.
          2    1    1    2  501    0  0.11573129572E+02  0.23088888108E+02 -0.23791577810E+03  0.23931350056E+03  0.00000000000E+00 0. -1.
          1    1    1    2  502    0  0.77348965297E+02 -0.25256952288E+02  0.17505496182E+03  0.19304148706E+03  0.00000000000E+00 0. -1.
         22    1    3    3    0    0  0.21041962269E+02  0.27243814205E+02  0.27707833214E+02  0.44189519233E+02  0.00000000000E+00 0.  1.
         22    1    3    3    0    0 -0.10996405714E+03 -0.25075750025E+02  0.63656728255E+01  0.11296640603E+03  0.00000000000E+00 0.  1.
</event>
<event>
 7    1  0.6219721E-006  0.9340218E+02  0.7818608E-02  0.1393889E+00
          2   -1    0    0  502    0  0.00000000000E+00  0.00000000000E+00  0.40203705396E+03  0.40203705396E+03  0.00000000000E+00 0. -1.
          1   -1    0    0  501    0 -0.00000000000E+00 -0.00000000000E+00 -0.65161019112E+03  0.65161019112E+03  0.00000000000E+00 0. -1.
         25    2    1    2    0    0  0.98601479001E+02 -0.78132685277E+02 -0.39864192300E+02  0.18177161962E+03  0.12499919881E+03 0.  0.
          2    1    1    2  501    0 -0.17288853060E+02  0.35818428998E+02 -0.53369359619E+03  0.53517354093E+03  0.00000000000E+00 0. -1.
          1    1    1    2  502    0 -0.81312625941E+02  0.42314256279E+02  0.32398465134E+03  0.33670208452E+03  0.00000000000E+00 0. -1.
         22    1    3    3    0    0 -0.70333764970E+01 -0.70884808492E+02 -0.11501136458E+02  0.72155392035E+02  0.00000000000E+00 0.  1.
         22    1    3    3    0    0  0.10563485550E+03 -0.72478767849E+01 -0.28363055842E+02  0.10961622759E+03  0.00000000000E+00 0.  1.
</event>
<event>
 7    1  0.6219721E-006  0.1214097E+03  0.7818608E-02  0.1315902E+00
          2   -1    0    0  502    0  0.00000000000E+00  0.00000000000E+00  0.63308908901E+03  0.63308908901E+03  0.00000000000E+00 0. -1.
          1   -1    0    0  501    0 -0.00000000000E+00 -0.00000000000E+00 -0.86990954785E+03  0.86990954785E+03  0.00000000000E+00 0. -1.
         25    2    1    2    0    0 -0.99279613149E+02  0.71228186515E+02  0.15274871082E+02  0.17545180415E+03  0.12498046948E+03 0.  0.
          2    1    1    2  501    0  0.12098691235E+03 -0.16088894770E+02 -0.78344895339E+03  0.79289907810E+03  0.00000000000E+00 0. -1.
          1    1    1    2  502    0 -0.21707299197E+02 -0.55139291745E+02  0.53135362347E+03  0.53464775460E+03  0.00000000000E+00 0. -1.
         22    1    3    3    0    0 -0.11399846502E+03  0.90245654404E+02 -0.27122616115E+01  0.14542105944E+03  0.00000000000E+00 0.  1.
         22    1    3    3    0    0  0.14718851868E+02 -0.19017467889E+02  0.17987132693E+02  0.30030744709E+02  0.00000000000E+00 0.  1.
</event>
<event>
 7    1  0.6219721E-006  0.3645188E+02  0.7818608E-02  0.1547379E+00
          2   -1    0    0  502    0  0.00000000000E+00  0.00000000000E+00  0.22482607200E+04  0.22482607200E+04  0.00000000000E+00 0. -1.
          1   -1    0    0  501    0 -0.00000000000E+00 -0.00000000000E+00 -0.30724224991E+02  0.30724224991E+02  0.00000000000E+00 0. -1.
         25    2    1    2    0    0 -0.18921423122E+02  0.66346766088E+02  0.60798980556E+03  0.62452915808E+03  0.12500060800E+03 0.  0.
          2    1    1    2  501    0  0.53764479297E+01 -0.35301514262E+02 -0.79677700866E+01  0.36586725211E+02  0.00000000000E+00 0. -1.
          1    1    1    2  502    0  0.13544975192E+02 -0.31045251826E+02  0.16175144596E+04  0.16178690617E+04  0.00000000000E+00 0. -1.
         22    1    3    3    0    0 -0.30992409307E+02  0.84802977826E+02  0.58759401557E+03  0.59449037135E+03  0.00000000000E+00 0. -1.
         22    1    3    3    0    0  0.12070986185E+02 -0.18456211738E+02  0.20395789987E+02  0.30038786733E+02  0.00000000000E+00 0. -1.
</event>
<event>
 7    1  0.6219721E-006  0.6497511E+02  0.7818608E-02  0.1410385E+00
          2   -1    0    0  502    0  0.00000000000E+00  0.00000000000E+00  0.72724226636E+03  0.72724226636E+03  0.00000000000E+00 0. -1.
          1   -1    0    0  501    0 -0.00000000000E+00 -0.00000000000E+00 -0.46111987260E+03  0.46111987260E+03  0.00000000000E+00 0. -1.
         25    2    1    2    0    0  0.50101382519E+02 -0.19944897134E+02 -0.28899092170E+03  0.31945128936E+03  0.12500170395E+03 0.  0.
          2    1    1    2  501    0  0.78896699212E+01  0.49569384173E+02 -0.15134829551E+03  0.15945431099E+03  0.00000000000E+00 0. -1.
          1    1    1    2  502    0 -0.57991052440E+02 -0.29624487038E+02  0.70646161098E+03  0.70945653862E+03  0.00000000000E+00 0. -1.
         22    1    3    3    0    0  0.72228876271E+01 -0.66697427118E+02 -0.19358093211E+03  0.20487628990E+03  0.00000000000E+00 0. -1.
         22    1    3    3    0    0  0.42878494892E+02  0.46752529984E+02 -0.95409989598E+02  0.11457499945E+03  0.00000000000E+00 0. -1.
</event>
<event>
 7    1  0.6219721E-006  0.1043751E+03  0.7818608E-02  0.1342305E+00
          2   -1    0    0  502    0  0.00000000000E+00  0.00000000000E+00  0.14774412942E+03  0.14774412942E+03  0.00000000000E+00 0. -1.
          1   -1    0    0  501    0 -0.00000000000E+00 -0.00000000000E+00 -0.10927296872E+04  0.10927296872E+04  0.00000000000E+00 0. -1.
         25    2    1    2    0    0  0.23635245812E+02  0.13506506859E+03  0.17846772898E+02  0.18640052307E+03  0.12500180039E+03 0.  0.
          2    1    1    2  501    0 -0.28255782510E+02 -0.46749245864E+02 -0.96408157586E+03  0.96562786110E+03  0.00000000000E+00 0. -1.
          1    1    1    2  502    0  0.46205366972E+01 -0.88315822721E+02  0.12492451970E+01  0.88445432419E+02  0.00000000000E+00 0. -1.
         22    1    3    3    0    0  0.70873033674E+02  0.96560280570E+02  0.31701614724E+02  0.12390265155E+03  0.00000000000E+00 0.  1.
         22    1    3    3    0    0 -0.47237787862E+02  0.38504788015E+02 -0.13854841826E+02  0.62497871517E+02  0.00000000000E+00 0.  1.
</event>
<event>
 7    1  0.6219721E-006  0.2566172E+03  0.7818608E-02  0.1197566E+00
          2   -1    0    0  502    0  0.00000000000E+00  0.00000000000E+00  0.56139375130E+02  0.56139375130E+02  0.00000000000E+00 0. -1.
          1   -1    0    0  501    0 -0.00000000000E+00 -0.00000000000E+00 -0.23104200621E+04  0.23104200621E+04  0.00000000000E+00 0. -1.
         25    2    1    2    0    0  0.10564954633E+03 -0.23109572783E+03 -0.68661775440E+03  0.74272189298E+03  0.12499923038E+03 0.  0.
          2    1    1    2  501    0 -0.83599608565E+02 -0.34651148027E+02 -0.90530384161E+03  0.90981571884E+03  0.00000000000E+00 0. -1.
          1    1    1    2  502    0 -0.22049937764E+02  0.26574687586E+03 -0.66235909094E+03  0.71402182539E+03  0.00000000000E+00 0. -1.
         22    1    3    3    0    0  0.56241333519E+02 -0.83700112655E+02 -0.12841483608E+03  0.16327635034E+03  0.00000000000E+00 0. -1.
         22    1    3    3    0    0  0.49408212810E+02 -0.14739561517E+03 -0.55820291832E+03  0.57944554264E+03  0.00000000000E+00 0. -1.
</event>
<event>
 7    1  0.6219721E-006  0.4677566E+02  0.7818608E-02  0.1475050E+00
          2   -1    0    0  502    0  0.00000000000E+00  0.00000000000E+00  0.19337260896E+02  0.19337260896E+02  0.00000000000E+00 0. -1.
          1   -1    0    0  501    0 -0.00000000000E+00 -0.00000000000E+00 -0.71440823304E+03  0.71440823304E+03  0.00000000000E+00 0. -1.
         25    2    1    2    0    0 -0.19477437552E+02  0.20704648517E+02 -0.42731431490E+03  0.44612856265E+03  0.12500047060E+03 0.  0.
          2    1    1    2  501    0  0.52890495957E+02  0.12029586856E+02 -0.18227350340E+03  0.19017293594E+03  0.00000000000E+00 0. -1.
          1    1    1    2  502    0 -0.33413058405E+02 -0.32734235373E+02 -0.85483153833E+02  0.97443995334E+02  0.00000000000E+00 0. -1.
         22    1    3    3    0    0  0.44272024269E+02  0.23941648946E+02 -0.29451830853E+03  0.29878796620E+03  0.00000000000E+00 0. -1.
         22    1    3    3    0    0 -0.63749461821E+02 -0.32370004291E+01 -0.13279600638E+03  0.14734059645E+03  0.00000000000E+00 0. -1.
</event>
<event>
 7    1  0.6219721E-006  0.1078363E+03  0.7818608E-02  0.1295424E+00
          2   -1    0    0  502    0  0.00000000000E+00  0.00000000000E+00  0.19951324006E+03  0.19951324006E+03  0.00000000000E+00 0. -1.
          1   -1    0    0  501    0 -0.00000000000E+00 -0.00000000000E+00 -0.49006460974E+03  0.49006460974E+03  0.00000000000E+00 0. -1.
         25    2    1    2    0    0 -0.37832101627E+02  0.77671424983E+02 -0.52078417731E+02  0.16062854303E+03  0.12500099627E+03 0.  0.
          2    1    1    2  501    0 -0.36203536391E+02 -0.10913635236E+03 -0.36295672312E+03  0.38073484515E+03  0.00000000000E+00 0. -1.
          1    1    1    2  502    0  0.74035638018E+02  0.31464927379E+02  0.12448377116E+03  0.14821446163E+03  0.00000000000E+00 0. -1.
         22    1    3    3    0    0  0.19217958697E+02  0.51089818561E+01 -0.64497024728E+02  0.67492946526E+02  0.00000000000E+00 0.  1.
         22    1    3    3    0    0 -0.57050060324E+02  0.72562443127E+02  0.12418606997E+02  0.93135596499E+02  0.00000000000E+00 0.  1.
</event>
<event>
 7    1  0.6219721E-006  0.4748896E+02  0.7818608E-02  0.1464235E+00
          2   -1    0    0  502    0  0.00000000000E+00  0.00000000000E+00  0.39058214328E+02  0.39058214328E+02  0.00000000000E+00 0. -1.
          1   -1    0    0  501    0 -0.00000000000E+00 -0.00000000000E+00 -0.15165633642E+04  0.15165633642E+04  0.00000000000E+00 0. -1.
         25    2    1    2    0    0  0.51248760633E+01 -0.15121856224E+01 -0.43955620150E+03  0.45701573807E+03  0.12500071802E+03 0.  0.
          2    1    1    2  501    0 -0.35571042332E+02  0.35788979461E+02 -0.10499924569E+04  0.10512042188E+04  0.00000000000E+00 0. -1.
          1    1    1    2  502    0  0.30446166269E+02 -0.34276793839E+02  0.12043508532E+02  0.47401621640E+02  0.00000000000E+00 0. -1.
         22    1    3    3    0    0 -0.13464097448E+02  0.50400611124E+02 -0.33276103578E+03  0.33682548961E+03  0.00000000000E+00 0.  1.
         22    1    3    3    0    0  0.18588973511E+02 -0.51912796746E+02 -0.10679516572E+03  0.12019024845E+03  0.00000000000E+00 0.  1.
</event>
<event>
 7    1  0.6219721E-006  0.2233161E+03  0.7818608E-02  0.1182400E+00
          2   -1    0    0  502    0  0.00000000000E+00  0.00000000000E+00  0.78209396311E+03  0.78209396311E+03  0.00000000000E+00 0. -1.
          1   -1    0    0  501    0 -0.00000000000E+00 -0.00000000000E+00 -0.10507498592E+04  0.10507498592E+04  0.00000000000E+00 0. -1.
         25    2    1    2    0    0 -0.23226358469E+02  0.21875625764E+03 -0.26263523252E+03  0.36468728157E+03  0.12500313595E+03 0.  0.
          2    1    1    2  501    0  0.14159429422E+03 -0.18546794256E+03 -0.71318252282E+03  0.75038431003E+03  0.00000000000E+00 0. -1.
          1    1    1    2  502    0 -0.11836793575E+03 -0.33288315082E+02  0.70716185921E+03  0.71777223076E+03  0.00000000000E+00 0. -1.
         22    1    3    3    0    0  0.29977037699E+02  0.60808759972E+01 -0.15374491568E+02  0.34234117968E+02  0.00000000000E+00 0.  1.
         22    1    3    3    0    0 -0.53203396168E+02  0.21267538165E+03 -0.24726074095E+03  0.33045316360E+03  0.00000000000E+00 0.  1.
</event>
<event>
 7    1  0.6219721E-006  0.1062453E+03  0.7818608E-02  0.1332044E+00
          2   -1    0    0  502    0  0.00000000000E+00  0.00000000000E+00  0.21146656099E+04  0.21146656099E+04  0.00000000000E+00 0. -1.
          1   -1    0    0  501    0 -0.00000000000E+00 -0.00000000000E+00 -0.16073144445E+04  0.16073144445E+04  0.00000000000E+00 0. -1.
         25    2    1    2    0    0 -0.55730607997E+02 -0.15516539960E+02 -0.63032171204E+02  0.15146701990E+03  0.12499015893E+03 0.  0.
          2    1    1    2  501    0 -0.27196731675E+02 -0.51990152198E+02 -0.14981095583E+04  0.14992581122E+04  0.00000000000E+00 0. -1.
          1    1    1    2  502    0  0.82927339672E+02  0.67506692158E+02  0.20684928949E+04  0.20712549223E+04  0.00000000000E+00 0. -1.
         22    1    3    3    0    0  0.14715238298E+02 -0.39448383360E+02  0.14001924474E+02  0.44370790807E+02  0.00000000000E+00 0.  1.
         22    1    3    3    0    0 -0.70445846295E+02  0.23931843400E+02 -0.77034095678E+02  0.10709622909E+03  0.00000000000E+00 0.  1.
</event>
<event>
 7    1  0.6219721E-006  0.5753309E+02  0.7818608E-02  0.1412616E+00
          2   -1    0    0  502    0  0.00000000000E+00  0.00000000000E+00  0.90739878047E+03  0.90739878047E+03  0.00000000000E+00 0. -1.
          1   -1    0    0  501    0 -0.00000000000E+00 -0.00000000000E+00 -0.11118135092E+03  0.11118135092E+03  0.00000000000E+00 0. -1.
         25    2    1    2    0    0 -0.10376282531E+02 -0.37931582777E+02  0.39491614452E+03  0.41608760410E+03  0.12499464335E+03 0.  0.
          2    1    1    2  501    0 -0.45323052269E+02  0.36849739505E+02 -0.90408301010E+02  0.10763709054E+03  0.00000000000E+00 0. -1.
          1    1    1    2  502    0  0.55699334800E+02  0.10818432717E+01  0.49170958603E+03  0.49485543675E+03  0.00000000000E+00 0. -1.
         22    1    3    3    0    0 -0.56972844149E+02  0.12189279146E+02  0.12970995107E+03  0.14219407478E+03  0.00000000000E+00 0. -1.
         22    1    3    3    0    0  0.46596561618E+02 -0.50120861923E+02  0.26520619345E+03  0.27389352932E+03  0.00000000000E+00 0. -1.
</event>
<event>
 7    1  0.6219721E-006  0.6851413E+02  0.7818608E-02  0.1478188E+00
          2   -1    0    0  502    0  0.00000000000E+00  0.00000000000E+00  0.11399863895E+04  0.11399863895E+04  0.00000000000E+00 0. -1.
          1   -1    0    0  501    0 -0.00000000000E+00 -0.00000000000E+00 -0.14761893647E+04  0.14761893647E+04  0.00000000000E+00 0. -1.
         25    2    1    2    0    0 -0.67784512286E+00  0.60720912362E+02  0.52115521374E+03  0.53936632937E+03  0.12500316708E+03 0.  0.
          2    1    1    2  501    0  0.29413298311E+02 -0.61901621061E+02 -0.14659436501E+04  0.14675447993E+04  0.00000000000E+00 0. -1.
          1    1    1    2  502    0 -0.28735453189E+02  0.11807086998E+01  0.60858546113E+03  0.60926462546E+03  0.00000000000E+00 0. -1.
         22    1    3    3    0    0  0.14100490836E+02  0.34619883776E+02  0.31756474353E+02  0.49049300278E+02  0.00000000000E+00 0. -1.
         22    1    3    3    0    0 -0.14778335959E+02  0.26101028586E+02  0.48939873938E+03  0.49031702909E+03  0.00000000000E+00 0. -1.
</event>
<event>
 7    1  0.6219721E-006  0.1326142E+03  0.7818608E-02  0.1320150E+00
          2   -1    0    0  502    0  0.00000000000E+00  0.00000000000E+00  0.80520422716E+02  0.80520422716E+02  0.00000000000E+00 0. -1.
          1   -1    0    0  501    0 -0.00000000000E+00 -0.00000000000E+00 -0.19028560279E+04  0.19028560279E+04  0.00000000000E+00 0. -1.
         25    2    1    2    0    0  0.89604863605E+02 -0.22241909304E+00 -0.95072260764E+03  0.96308291501E+03  0.12500457375E+03 0.  0.
          2    1    1    2  501    0  0.42599449752E+02  0.30212109693E+02 -0.88273164291E+03  0.88427520495E+03  0.00000000000E+00 0. -1.
          1    1    1    2  502    0 -0.13220431336E+03 -0.29989690600E+02  0.11118645321E+02  0.13601833070E+03  0.00000000000E+00 0. -1.
         22    1    3    3    0    0 -0.18359423353E+02 -0.19393783599E+02 -0.60493679261E+02  0.66126186180E+02  0.00000000000E+00 0.  1.
         22    1    3    3    0    0  0.10796428696E+03  0.19171364506E+02 -0.89022892838E+03  0.89695672883E+03  0.00000000000E+00 0.  1.
</event>
<event>
 7    1  0.6219721E-006  0.1735684E+03  0.7818608E-02  0.1191520E+00
          2   -1    0    0  502    0  0.00000000000E+00  0.00000000000E+00  0.35070365833E+03  0.35070365833E+03  0.00000000000E+00 0. -1.
          1   -1    0    0  501    0 -0.00000000000E+00 -0.00000000000E+00 -0.16092487684E+04  0.16092487684E+04  0.00000000000E+00 0. -1.
         25    2    1    2    0    0 -0.14190810885E+03 -0.27270471777E+03 -0.26356559844E+03  0.42378764024E+03  0.12499345940E+03 0.  0.
          2    1    1    2  501    0  0.78323448788E+02  0.14465878277E+03 -0.12408740444E+04  0.12517304502E+04  0.00000000000E+00 0. -1.
          1    1    1    2  502    0  0.63584660058E+02  0.12804593500E+03  0.24589453268E+03  0.28443433630E+03  0.00000000000E+00 0. -1.
         22    1    3    3    0    0 -0.29720589809E+02 -0.61992264468E+02 -0.76529553624E+00  0.68752745325E+02  0.00000000000E+00 0.  1.
         22    1    3    3    0    0 -0.11218751904E+03 -0.21071245330E+03 -0.26280030290E+03  0.35503489491E+03  0.00000000000E+00 0.  1.
</event>
<event>
 7    1  0.6219721E-006  0.3698969E+02  0.7818608E-02  0.1571579E+00
          2   -1    0    0  502    0  0.00000000000E+00  0.00000000000E+00  0.75604143374E+03  0.75604143374E+03  0.00000000000E+00 0. -1.
          1   -1    0    0  501    0 -0.00000000000E+00 -0.00000000000E+00 -0.19312542719E+02  0.19312542719E+02  0.00000000000E+00 0. -1.
         25    2    1    2    0    0 -0.11456910296E-02 -0.52990724672E+01  0.25744830089E+03  0.28624009006E+03  0.12500272540E+03 0.  0.
          2    1    1    2  501    0  0.36988633836E+02  0.57026586267E+01  0.82256587156E+02  0.90370490089E+02  0.00000000000E+00 0. -1.
          1    1    1    2  502    0 -0.36987488145E+02 -0.40358615941E+00  0.39702400298E+03  0.39874339632E+03  0.00000000000E+00 0. -1.
         22    1    3    3    0    0 -0.22448494891E+02  0.52272194978E+02  0.16920706994E+03  0.17851428461E+03  0.00000000000E+00 0. -1.
         22    1    3    3    0    0  0.22447349200E+02 -0.57571267445E+02  0.88241230946E+02  0.10772580545E+03  0.00000000000E+00 0. -1.
</event>
<event>
 7    1  0.6219721E-006  0.7884692E+02  0.7818608E-02  0.1341409E+00
          2   -1    0    0  502    0  0.00000000000E+00  0.00000000000E+00  0.25171637894E+04  0.25171637894E+04  0.00000000000E+00 0. -1.
          1   -1    0    0  501    0 -0.00000000000E+00 -0.00000000000E+00 -0.67139345646E+03  0.67139345646E+03  0.00000000000E+00 0. -1.
         25    2    1    2    0    0  0.38764143385E+02 -0.87152367435E+02  0.37687500383E+03  0.40835846726E+03  0.12499470112E+03 0.  0.
          2    1    1    2  501    0 -0.75190287715E+02  0.24037006457E+02 -0.65264785115E+03  0.65740442245E+03  0.00000000000E+00 0. -1.
          1    1    1    2  502    0  0.36426144329E+02  0.63115360978E+02  0.21215431803E+04  0.21227943562E+04  0.00000000000E+00 0. -1.
         22    1    3    3    0    0  0.43129056182E+02 -0.11340870087E+03  0.24008196432E+03  0.26899999723E+03  0.00000000000E+00 0.  1.
         22    1    3    3    0    0 -0.43649127971E+01  0.26256333437E+02  0.13679303951E+03  0.13935847003E+03  0.00000000000E+00 0.  1.
</event>
<event>
 7    1  0.6219721E-006  0.7793963E+02  0.7818608E-02  0.1423296E+00
          2   -1    0    0  502    0  0.00000000000E+00  0.00000000000E+00  0.57453588644E+03  0.57453588644E+03  0.00000000000E+00 0. -1.
          1   -1    0    0  501    0 -0.00000000000E+00 -0.00000000000E+00 -0.18341994216E+04  0.18341994216E+04  0.00000000000E+00 0. -1.
         25    2    1    2    0    0  0.59346807603E+02 -0.42347953541E+02 -0.17519782274E+03  0.22723214710E+03  0.12499911536E+03 0.  0.
          2    1    1    2  501    0 -0.34142745222E+02  0.70615031885E+02 -0.16313873654E+04  0.16332718530E+04  0.00000000000E+00 0. -1.
          1    1    1    2  502    0 -0.25204062382E+02 -0.28267078344E+02  0.54692165300E+03  0.54823130793E+03  0.00000000000E+00 0. -1.
         22    1    3    3    0    0 -0.34030449466E+02  0.88682643516E+01 -0.65477778770E+02  0.74324000942E+02  0.00000000000E+00 0.  1.
         22    1    3    3    0    0  0.93377257069E+02 -0.51216217893E+02 -0.10972004398E+03  0.15290814616E+03  0.00000000000E+00 0.  1.
</event>
<event>
 7    1  0.6219721E-006  0.6588260E+02  0.7818608E-02  0.1524606E+00
          2   -1    0    0  502    0  0.00000000000E+00  0.00000000000E+00  0.62988052400E+03  0.62988052400E+03  0.00000000000E+00 0. -1.
          1   -1    0    0  501    0 -0.00000000000E+00 -0.00000000000E+00 -0.25125131192E+03  0.25125131192E+03  0.00000000000E+00 0. -1.
         25    2    1    2    0    0 -0.72250324707E+02 -0.32704244595E+01  0.26129247119E+02  0.14676006432E+03  0.12499989531E+03 0.  0.
          2    1    1    2  501    0  0.63514549910E+02 -0.16650819103E+02 -0.18506441024E+03  0.19636747125E+03  0.00000000000E+00 0. -1.
          1    1    1    2  502    0  0.87357747964E+01  0.19921243562E+02  0.53756437520E+03  0.53800430035E+03  0.00000000000E+00 0. -1.
         22    1    3    3    0    0 -0.88297737014E+02 -0.25536965725E+02  0.54846296340E+02  0.10703617707E+03  0.00000000000E+00 0.  1.
         22    1    3    3    0    0  0.16047412307E+02  0.22266541266E+02 -0.28717049222E+02  0.39723887243E+02  0.00000000000E+00 0.  1.
</event>
<event>
 7    1  0.6219721E-006  0.5074526E+02  0.7818608E-02  0.1450974E+00
          2   -1    0    0  502    0  0.00000000000E+00  0.00000000000E+00  0.36267068646E+04  0.36267068646E+04  0.00000000000E+00 0. -1.
          1   -1    0    0  501    0 -0.00000000000E+00 -0.00000000000E+00 -0.10104139753E+02  0.10104139753E+02  0.00000000000E+00 0. -1.
         25    2    1    2    0    0 -0.58300619174E+02 -0.49284404032E+02  0.19997754139E+04  0.20051320713E+04  0.12500000953E+03 0.  0.
          2    1    1    2  501    0  0.47227755355E+02  0.16944014891E+01  0.72275009680E+02  0.86353974411E+02  0.00000000000E+00 0. -1.
          1    1    1    2  502    0  0.11072863819E+02  0.47590002543E+02  0.15445523012E+04  0.15453249587E+04  0.00000000000E+00 0. -1.
         22    1    3    3    0    0 -0.97961214078E+02 -0.38420651691E+02  0.14736916038E+04  0.14774435654E+04  0.00000000000E+00 0. -1.
         22    1    3    3    0    0  0.39660594903E+02 -0.10863752341E+02  0.52608381012E+03  0.52768850582E+03  0.00000000000E+00 0. -1.
</event>
<event>
 7    1  0.6219721E-006  0.7170652E+02  0.7818608E-02  0.1388998E+00
          2   -1    0    0  502    0  0.00000000000E+00  0.00000000000E+00  0.70716804319E+03  0.70716804319E+03  0.00000000000E+00 0. -1.
          1   -1    0    0  501    0 -0.00000000000E+00 -0.00000000000E+00 -0.90848097204E+02  0.90848097204E+02  0.00000000000E+00 0. -1.
         25    2    1    2    0    0 -0.36465674886E+02  0.76518624498E+02  0.34660629481E+03  0.37808356168E+03  0.12500564255E+03 0.  0.
          2    1    1    2  501    0 -0.28755988271E+02 -0.45562980601E+02 -0.61025040673E+02  0.81406066432E+02  0.00000000000E+00 0. -1.
          1    1    1    2  502    0  0.65221663157E+02 -0.30955643897E+02  0.33073869185E+03  0.33852651228E+03  0.00000000000E+00 0. -1.
         22    1    3    3    0    0 -0.18441204665E+02 -0.28531794713E+02  0.35105018936E+02  0.48851854556E+02  0.00000000000E+00 0.  1.
         22    1    3    3    0    0 -0.18024470221E+02  0.10505041921E+03  0.31150127588E+03  0.32923170712E+03  0.00000000000E+00 0.  1.
</event>
<event>
 7    1  0.6219721E-006  0.1184289E+03  0.7818608E-02  0.1379761E+00
          2   -1    0    0  502    0  0.00000000000E+00  0.00000000000E+00  0.37333747240E+03  0.37333747240E+03  0.00000000000E+00 0. -1.
          1   -1    0    0  501    0 -0.00000000000E+00 -0.00000000000E+00 -0.16764113732E+04  0.16764113732E+04  0.00000000000E+00 0. -1.
         25    2    1    2    0    0  0.65701895781E+02 -0.76319849531E+02  0.40885344722E+01  0.16055288760E+03  0.12497621798E+03 0.  0.
          2    1    1    2  501    0  0.34448353091E+02  0.70268066011E+01 -0.15852345584E+04  0.15856243787E+04  0.00000000000E+00 0. -1.
          1    1    1    2  502    0 -0.10015024887E+03  0.69293042930E+02  0.27807212310E+03  0.30357157936E+03  0.00000000000E+00 0. -1.
         22    1    3    3    0    0 -0.23737347438E+02 -0.34112560098E+02  0.37688397899E+02  0.56102974574E+02  0.00000000000E+00 0.  1.
         22    1    3    3    0    0  0.89439243219E+02 -0.42207289433E+02 -0.33599863427E+02  0.10444991303E+03  0.00000000000E+00 0.  1.
</event>
<event>
 7    1  0.6219721E-006  0.4795627E+02  0.7818608E-02  0.1473686E+00
          2   -1    0    0  502    0  0.00000000000E+00  0.00000000000E+00  0.84081966595E+03  0.84081966595E+03  0.00000000000E+00 0. -1.
          1   -1    0    0  501    0 -0.00000000000E+00 -0.00000000000E+00 -0.12296430522E+03  0.12296430522E+03  0.00000000000E+00 0. -1.
         25    2    1    2    0    0 -0.20722581036E+02  0.24668594102E+02  0.46947685266E+02  0.13735549016E+03  0.12499792249E+03 0.  0.
          2    1    1    2  501    0  0.50290547523E+02  0.57533578970E+01 -0.68850176282E+02  0.85455175802E+02  0.00000000000E+00 0. -1.
          1    1    1    2  502    0 -0.29567966488E+02 -0.30421951999E+02  0.73975785175E+03  0.74097330520E+03  0.00000000000E+00 0. -1.
         22    1    3    3    0    0 -0.14860267266E+02  0.20580092637E+02 -0.41484650194E+02  0.48634801921E+02  0.00000000000E+00 0. -1.
         22    1    3    3    0    0 -0.58623137694E+01  0.40885014649E+01  0.88432335461E+02  0.88720688241E+02  0.00000000000E+00 0. -1.
</event>
<event>
 7    1  0.6219721E-006  0.2552761E+02  0.7818608E-02  0.1676265E+00
          2   -1    0    0  502    0  0.00000000000E+00  0.00000000000E+00  0.30685962362E+03  0.30685962362E+03  0.00000000000E+00 0. -1.
          1   -1    0    0  501    0 -0.00000000000E+00 -0.00000000000E+00 -0.62240267807E+03  0.62240267807E+03  0.00000000000E+00 0. -1.
         25    2    1    2    0    0  0.66361017995E+01 -0.14057525581E+02 -0.34843517527E+03  0.37050367455E+03  0.12499699844E+03 0.  0.
          2    1    1    2  501    0  0.14261423161E+02  0.22412597217E+02 -0.26183213061E+03  0.26317632363E+03  0.00000000000E+00 0. -1.
          1    1    1    2  502    0 -0.20897524961E+02 -0.83550716351E+01  0.29472425142E+03  0.29558230351E+03  0.00000000000E+00 0. -1.
         22    1    3    3    0    0 -0.34736830683E+02  0.74786881605E+01 -0.24341132425E+02  0.43070510912E+02  0.00000000000E+00 0. -1.
         22    1    3    3    0    0  0.41372932482E+02 -0.21536213742E+02 -0.32409404284E+03  0.32743316364E+03  0.00000000000E+00 0. -1.
</event>
<event>
 7    1  0.6219721E-006  0.4560268E+02  0.7818608E-02  0.1474390E+00
          2   -1    0    0  502    0  0.00000000000E+00  0.00000000000E+00  0.24839564597E+04  0.24839564597E+04  0.00000000000E+00 0. -1.
          1   -1    0    0  501    0 -0.00000000000E+00 -0.00000000000E+00 -0.49478025434E+03  0.49478025434E+03  0.00000000000E+00 0. -1.
         25    2    1    2    0    0 -0.18130219845E+02 -0.19651479682E+02  0.26898908772E+02  0.13063638109E+03  0.12500970860E+03 0.  0.
          2    1    1    2  501    0  0.42809648102E+02 -0.17245818271E+02 -0.44150372388E+03  0.44390947548E+03  0.00000000000E+00 0. -1.
          1    1    1    2  502    0 -0.24679428257E+02  0.36897297953E+02  0.24037810205E+04  0.24041908575E+04  0.00000000000E+00 0. -1.
         22    1    3    3    0    0 -0.22035203061E+02  0.13123471770E+01 -0.47961764025E+02  0.52797757883E+02  0.00000000000E+00 0. -1.
         22    1    3    3    0    0  0.39049832162E+01 -0.20963826859E+02  0.74860672797E+02  0.77838623202E+02  0.00000000000E+00 0. -1.
</event>
<event>
 7    1  0.6219721E-006  0.5276599E+02  0.7818608E-02  0.1460791E+00
          2   -1    0    0  502    0  0.00000000000E+00  0.00000000000E+00  0.11149593614E+04  0.11149593614E+04  0.00000000000E+00 0. -1.
          1   -1    0    0  501    0 -0.00000000000E+00 -0.00000000000E+00 -0.71861669350E+02  0.71861669350E+02  0.00000000000E+00 0. -1.
         25    2    1    2    0    0 -0.57331050689E+02  0.22319797376E+02  0.13718066699E+03  0.19551929094E+03  0.12499693999E+03 0.  0.
          2    1    1    2  501    0  0.49750348486E+02  0.19298040243E+02 -0.25347940957E+02  0.59076472834E+02  0.00000000000E+00 0. -1.
          1    1    1    2  502    0  0.75807022027E+01 -0.41617837620E+02  0.93126496606E+03  0.93222526702E+03  0.00000000000E+00 0. -1.
         22    1    3    3    0    0 -0.29449316998E+02  0.41130219665E+02  0.15093156992E+03  0.15918321532E+03  0.00000000000E+00 0.  1.
         22    1    3    3    0    0 -0.27881733691E+02 -0.18810422289E+02 -0.13750902930E+02  0.36336075623E+02  0.00000000000E+00 0.  1.
</event>
<event>
 7    1  0.6219721E-006  0.9337443E+02  0.7818608E-02  0.1413224E+00
          2   -1    0    0  502    0  0.00000000000E+00  0.00000000000E+00  0.14780948233E+04  0.14780948233E+04  0.00000000000E+00 0. -1.
          1   -1    0    0  501    0 -0.00000000000E+00 -0.00000000000E+00 -0.22710456019E+03  0.22710456019E+03  0.00000000000E+00 0. -1.
         25    2    1    2    0    0  0.57314484801E+02  0.10624161946E+03 -0.78846723861E+02  0.19082488873E+03  0.12500040168E+03 0.  0.
          2    1    1    2  501    0  0.15525064069E+01 -0.34128869148E+02 -0.87526246373E+02  0.93957616986E+02  0.00000000000E+00 0. -1.
          1    1    1    2  502    0 -0.58866991208E+02 -0.72112750313E+02  0.14173632333E+04  0.14204168778E+04  0.00000000000E+00 0. -1.
         22    1    3    3    0    0 -0.31045898246E+02  0.64391203495E+02 -0.54983523941E+02  0.90184603954E+02  0.00000000000E+00 0. -1.
         22    1    3    3    0    0  0.88360383047E+02  0.41850415966E+02 -0.23863199920E+02  0.10064028477E+03  0.00000000000E+00 0. -1.
</event>
<event>
 7    1  0.6219721E-006  0.7085133E+02  0.7818608E-02  0.1400391E+00
          2   -1    0    0  502    0  0.00000000000E+00  0.00000000000E+00  0.18767257758E+03  0.18767257758E+03  0.00000000000E+00 0. -1.
          1   -1    0    0  501    0 -0.00000000000E+00 -0.00000000000E+00 -0.73285589731E+03  0.73285589731E+03  0.00000000000E+00 0. -1.
         25    2    1    2    0    0 -0.63293348959E+02  0.82788855766E+02 -0.13487185349E+03  0.21136372773E+03  0.12499666346E+03 0.  0.
          2    1    1    2  501    0  0.47502444493E+02 -0.14918788925E+02 -0.55042899957E+03  0.55267633934E+03  0.00000000000E+00 0. -1.
          1    1    1    2  502    0  0.15790904465E+02 -0.67870066841E+02  0.14011753333E+03  0.15648840782E+03  0.00000000000E+00 0. -1.
         22    1    3    3    0    0 -0.40351074005E+01  0.13812581428E+00 -0.10540434075E+03  0.10548163925E+03  0.00000000000E+00 0. -1.
         22    1    3    3    0    0 -0.59258241558E+02  0.82650729952E+02 -0.29467512742E+02  0.10588208848E+03  0.00000000000E+00 0. -1.
</event>
<event>
 7    1  0.6219721E-006  0.1290769E+03  0.7818608E-02  0.1282039E+00
          2   -1    0    0  502    0  0.00000000000E+00  0.00000000000E+00  0.87742014372E+03  0.87742014372E+03  0.00000000000E+00 0. -1.
          1   -1    0    0  501    0 -0.00000000000E+00 -0.00000000000E+00 -0.12774995519E+03  0.12774995519E+03  0.00000000000E+00 0. -1.
         25    2    1    2    0    0 -0.10183232932E+02 -0.14050616777E+03  0.33492236075E+03  0.38424278826E+03  0.12499540467E+03 0.  0.
          2    1    1    2  501    0  0.71843598445E+02  0.25399707173E+02 -0.79262054115E+02  0.10995053881E+03  0.00000000000E+00 0. -1.
          1    1    1    2  502    0 -0.61660365512E+02  0.11510646060E+03  0.49400988190E+03  0.51097677184E+03  0.00000000000E+00 0. -1.
         22    1    3    3    0    0  0.25479434288E+02 -0.14873820900E+02  0.56793953802E+01  0.30044760803E+02  0.00000000000E+00 0. -1.
         22    1    3    3    0    0 -0.35662667221E+02 -0.12563234687E+03  0.32924296536E+03  0.35419802746E+03  0.00000000000E+00 0. -1.
</event>
<event>
 7    1  0.6219721E-006  0.7729657E+02  0.7818608E-02  0.1347617E+00
          2   -1    0    0  502    0  0.00000000000E+00  0.00000000000E+00  0.66656459895E+03  0.66656459895E+03  0.00000000000E+00 0. -1.
          1   -1    0    0  501    0 -0.00000000000E+00 -0.00000000000E+00 -0.25114106232E+03  0.25114106232E+03  0.00000000000E+00 0. -1.
         25    2    1    2    0    0  0.40671607043E+02  0.13811149738E+03  0.12059625642E+03  0.22560414365E+03  0.12499922898E+03 0.  0.
          2    1    1    2  501    0 -0.23979469093E+02 -0.66262924982E+02 -0.18950586105E+03  0.20218373212E+03  0.00000000000E+00 0. -1.
          1    1    1    2  502    0 -0.16692137949E+02 -0.71848572393E+02  0.48433314126E+03  0.48991778549E+03  0.00000000000E+00 0. -1.
         22    1    3    3    0    0 -0.20168315050E+02  0.26070743911E+02 -0.17777831729E+02  0.37449912163E+02  0.00000000000E+00 0.  1.
         22    1    3    3    0    0  0.60839922093E+02  0.11204075346E+03  0.13837408815E+03  0.18815423149E+03  0.00000000000E+00 0.  1.
</event>
<event>
 7    1  0.6219721E-006  0.1389486E+03  0.7818608E-02  0.1290131E+00
          2   -1    0    0  502    0  0.00000000000E+00  0.00000000000E+00  0.47405322374E+03  0.47405322374E+03  0.00000000000E+00 0. -1.
          1   -1    0    0  501    0 -0.00000000000E+00 -0.00000000000E+00 -0.33407941772E+03  0.33407941772E+03  0.00000000000E+00 0. -1.
         25    2    1    2    0    0 -0.10425787044E+00 -0.14470394844E+03  0.18337765611E+03  0.26493614064E+03  0.12499820116E+03 0.  0.
          2    1    1    2  501    0 -0.62411539369E+02  0.12485904606E+03 -0.27181076042E+03  0.30555862139E+03  0.00000000000E+00 0. -1.
          1    1    1    2  502    0  0.62515797240E+02  0.19844902377E+02  0.22840691033E+03  0.23763787943E+03  0.00000000000E+00 0. -1.
         22    1    3    3    0    0 -0.20835026524E+02 -0.51119588653E+02  0.15565624696E+03  0.16515501171E+03  0.00000000000E+00 0.  1.
         22    1    3    3    0    0  0.20730768654E+02 -0.93584359788E+02  0.27721409149E+02  0.99781128933E+02  0.00000000000E+00 0.  1.
</event>
<event>
 7    1  0.6219721E-006  0.7789350E+02  0.7818608E-02  0.1439723E+00
          2   -1    0    0  502    0  0.00000000000E+00  0.00000000000E+00  0.47028693599E+03  0.47028693599E+03  0.00000000000E+00 0. -1.
          1   -1    0    0  501    0 -0.00000000000E+00 -0.00000000000E+00 -0.51786298368E+03  0.51786298368E+03  0.00000000000E+00 0. -1.
         25    2    1    2    0    0 -0.22341224685E+01  0.91628124184E+02  0.77134219646E+02  0.17313223946E+03  0.12499752019E+03 0.  0.
          2    1    1    2  501    0 -0.25762262330E+02 -0.73292491203E+02 -0.46582821493E+03  0.47226201335E+03  0.00000000000E+00 0. -1.
          1    1    1    2  502    0  0.27996384798E+02 -0.18335632981E+02  0.34111794759E+03  0.34275566687E+03  0.00000000000E+00 0. -1.
         22    1    3    3    0    0 -0.31898089766E+02 -0.17769666279E+02  0.88548982359E+00  0.36524420086E+02  0.00000000000E+00 0.  1.
         22    1    3    3    0    0  0.29663967298E+02  0.10939779046E+03  0.76248729823E+02  0.13660781937E+03  0.00000000000E+00 0.  1.
</event>
<event>
 7    1  0.6219721E-006  0.7890724E+02  0.7818608E-02  0.1440059E+00
          2   -1    0    0  502    0  0.00000000000E+00  0.00000000000E+00  0.56945165300E+03  0.56945165300E+03  0.00000000000E+00 0. -1.
          1   -1    0    0  501    0 -0.00000000000E+00 -0.00000000000E+00 -0.51405539751E+03  0.51405539751E+03  0.00000000000E+00 0. -1.
         25    2    1    2    0    0  0.91704547638E+02 -0.52821061263E+02  0.14153698507E+03  0.21646733535E+03  0.12500240222E+03 0.  0.
          2    1    1    2  501    0 -0.58761670295E+02  0.51988832821E+02 -0.47265528343E+03  0.47912293787E+03  0.00000000000E+00 0. -1.
          1    1    1    2  502    0 -0.32942877343E+02  0.83222844205E+00  0.38651455385E+03  0.38791677729E+03  0.00000000000E+00 0. -1.
         22    1    3    3    0    0  0.87283455646E+02  0.18201745353E+02  0.10038741142E+03  0.13426592098E+03  0.00000000000E+00 0.  1.
         22    1    3    3    0    0  0.44210919924E+01 -0.71022806616E+02  0.41149573642E+02  0.82201414373E+02  0.00000000000E+00 0.  1.
</event>
<event>
 7    1  0.6560108E-006  0.6537887E+02  0.7818608E-02  0.1495283E+00
          2   -1    0    0  502    0  0.00000000000E+00  0.00000000000E+00  0.71219138865E+03  0.71219138865E+03  0.00000000000E+00 0. -1.
          1   -1    0    0  501    0 -0.00000000000E+00 -0.00000000000E+00 -0.89009494453E+03  0.89009494453E+03  0.00000000000E+00 0. -1.
         25    2    1    2    0    0 -0.99421286509E+01  0.44236586980E+02 -0.39980794075E+03  0.42134006995E+03  0.12500137401E+03 0.  0.
          2    1    1    2  501    0 -0.24037375229E+02  0.11716070384E+02 -0.47761877581E+03  0.47836675963E+03  0.00000000000E+00 0. -1.
          1    1    1    2  502    0  0.33979503880E+02 -0.55952657363E+02  0.69952316068E+03  0.70257950360E+03  0.00000000000E+00 0. -1.
         22    1    3    3    0    0  0.67458759882E+01  0.79352611837E+02 -0.16360442708E+03  0.18195810619E+03  0.00000000000E+00 0. -1.
         22    1    3    3    0    0 -0.16688004639E+02 -0.35116024857E+02 -0.23620351367E+03  0.23938196375E+03  0.00000000000E+00 0. -1.
</event>
<event>
 7    1  0.6219721E-006  0.8672554E+02  0.7818608E-02  0.1355277E+00
          2   -1    0    0  502    0  0.00000000000E+00  0.00000000000E+00  0.33861146030E+03  0.33861146030E+03  0.00000000000E+00 0. -1.
          1   -1    0    0  501    0 -0.00000000000E+00 -0.00000000000E+00 -0.17131228105E+04  0.17131228105E+04  0.00000000000E+00 0. -1.
         25    2    1    2    0    0  0.75957562496E+02  0.12044934138E+03 -0.14255696244E+03  0.23711805053E+03  0.12499954883E+03 0.  0.
          2    1    1    2  501    0 -0.22695474392E+02 -0.54288782336E+02 -0.15165119800E+04  0.15176531033E+04  0.00000000000E+00 0. -1.
          1    1    1    2  502    0 -0.53262088104E+02 -0.66160559048E+02  0.28455759218E+03  0.29696311702E+03  0.00000000000E+00 0. -1.
         22    1    3    3    0    0 -0.11174399412E+01  0.54891506728E+02  0.82415444467E+01  0.55518008229E+02  0.00000000000E+00 0. -1.
         22    1    3    3    0    0  0.77075002437E+02  0.65557834656E+02 -0.15079850688E+03  0.18160004230E+03  0.00000000000E+00 0. -1.
</event>
<event>
 7    1  0.6219721E-006  0.1121644E+03  0.7818608E-02  0.1304393E+00
          2   -1    0    0  502    0  0.00000000000E+00  0.00000000000E+00  0.12981700773E+04  0.12981700773E+04  0.00000000000E+00 0. -1.
          1   -1    0    0  501    0 -0.00000000000E+00 -0.00000000000E+00 -0.66436134374E+02  0.66436134374E+02  0.00000000000E+00 0. -1.
         25    2    1    2    0    0 -0.41463715759E+02  0.95432572926E+02  0.48201953663E+03  0.50871807024E+03  0.12499850236E+03 0.  0.
          2    1    1    2  501    0 -0.62360296058E+02 -0.34365584822E+02 -0.22238372014E+02  0.74594538235E+02  0.00000000000E+00 0. -1.
          1    1    1    2  502    0  0.10382401182E+03 -0.61066988103E+02  0.77195277836E+03  0.78129360325E+03  0.00000000000E+00 0. -1.
         22    1    3    3    0    0  0.11276412305E+02  0.49921834227E+02  0.38979612812E+03  0.39314166468E+03  0.00000000000E+00 0.  1.
         22    1    3    3    0    0 -0.52740128064E+02  0.45510738699E+02  0.92223408512E+02  0.11557640556E+03  0.00000000000E+00 0.  1.
</event>
<event>
 7    1  0.6219721E-006  0.6807112E+02  0.7818608E-02  0.1530446E+00
          2   -1    0    0  502    0  0.00000000000E+00  0.00000000000E+00  0.21705861977E+04  0.21705861977E+04  0.00000000000E+00 0. -1.
          1   -1    0    0  501    0 -0.00000000000E+00 -0.00000000000E+00 -0.51595925684E+03  0.51595925684E+03  0.00000000000E+00 0. -1.
         25    2    1    2    0    0  0.83783833448E+02  0.26210930658E+02 -0.33766830699E+02  0.15643551546E+03  0.12500051203E+03 0.  0.
          2    1    1    2  501    0 -0.17933876867E+02 -0.94145447850E+01 -0.42006660973E+03  0.42055465068E+03  0.00000000000E+00 0. -1.
          1    1    1    2  502    0 -0.65849956581E+02 -0.16796385873E+02  0.21084603813E+04  0.21095552885E+04  0.00000000000E+00 0. -1.
         22    1    3    3    0    0  0.67909735759E+02 -0.10401052984E+02 -0.73160761637E+02  0.10036140273E+03  0.00000000000E+00 0.  1.
         22    1    3    3    0    0  0.15874097689E+02  0.36611983642E+02  0.39393930938E+02  0.56074112729E+02  0.00000000000E+00 0.  1.
</event>
<event>
 7    1  0.6219721E-006  0.9604266E+02  0.7818608E-02  0.1303775E+00
          2   -1    0    0  502    0  0.00000000000E+00  0.00000000000E+00  0.18952439134E+04  0.18952439134E+04  0.00000000000E+00 0. -1.
          1   -1    0    0  501    0 -0.00000000000E+00 -0.00000000000E+00 -0.10031763483E+03  0.10031763483E+03  0.00000000000E+00 0. -1.
         25    2    1    2    0    0  0.49392374073E+02  0.10740762007E+03  0.18412798122E+03  0.25199953583E+03  0.12499859650E+03 0.  0.
          2    1    1    2  501    0 -0.90702748467E+02 -0.34696609630E+02 -0.29219771072E+02  0.10141320585E+03  0.00000000000E+00 0. -1.
          1    1    1    2  502    0  0.41310374394E+02 -0.72711010441E+02  0.16400180685E+04  0.16421488066E+04  0.00000000000E+00 0. -1.
         22    1    3    3    0    0  0.65867658520E+02  0.11366458954E+02  0.11325215006E+03  0.13150587182E+03  0.00000000000E+00 0.  1.
         22    1    3    3    0    0 -0.16475284447E+02  0.96041161116E+02  0.70875831151E+02  0.12049366401E+03  0.00000000000E+00 0.  1.
</event>
<event>
 7    1  0.6219721E-006  0.4529380E+02  0.7818608E-02  0.1512276E+00
          2   -1    0    0  502    0  0.00000000000E+00  0.00000000000E+00  0.96545083754E+02  0.96545083754E+02  0.00000000000E+00 0. -1.
          1   -1    0    0  501    0 -0.00000000000E+00 -0.00000000000E+00 -0.10143164999E+04  0.10143164999E+04  0.00000000000E+00 0. -1.
         25    2    1    2    0    0  0.24443818593E+02  0.22400777298E+02 -0.54227332738E+03  0.55747943446E+03  0.12499465252E+03 0.  0.
          2    1    1    2  501    0 -0.25414248249E+02  0.23132023757E+02 -0.45792362935E+03  0.45921130741E+03  0.00000000000E+00 0. -1.
          1    1    1    2  502    0  0.97042965568E+00 -0.45532801056E+02  0.82425540577E+02  0.94170841799E+02  0.00000000000E+00 0. -1.
         22    1    3    3    0    0 -0.11016994392E+01  0.85929188839E+01 -0.52198203442E+03  0.52205392083E+03  0.00000000000E+00 0.  1.
         22    1    3    3    0    0  0.25545518033E+02  0.13807858414E+02 -0.20291292966E+02  0.35425513628E+02  0.00000000000E+00 0.  1.
</event>
<event>
 7    1  0.6219721E-006  0.7885145E+02  0.7818608E-02  0.1439632E+00
          2   -1    0    0  502    0  0.00000000000E+00  0.00000000000E+00  0.29792297751E+03  0.29792297751E+03  0.00000000000E+00 0. -1.
          1   -1    0    0  501    0 -0.00000000000E+00 -0.00000000000E+00 -0.89276305815E+03  0.89276305815E+03  0.00000000000E+00 0. -1.
         25    2    1    2    0    0  0.31279476594E+02 -0.39276110451E+02 -0.21914471000E+03  0.25723592418E+03  0.12499959304E+03 0.  0.
          2    1    1    2  501    0 -0.56986692339E+02  0.60098412320E+02 -0.65095858735E+03  0.65620605354E+03  0.00000000000E+00 0. -1.
          1    1    1    2  502    0  0.25707215745E+02 -0.20822301868E+02  0.27526321670E+03  0.27724405794E+03  0.00000000000E+00 0. -1.
         22    1    3    3    0    0  0.54934843525E+02 -0.26799550038E+02 -0.22207382023E+03  0.23033200939E+03  0.00000000000E+00 0.  1.
         22    1    3    3    0    0 -0.23655366931E+02 -0.12476560413E+02  0.29291102362E+01  0.26903914792E+02  0.00000000000E+00 0.  1.
</event>
<event>
 7    1  0.6219721E-006  0.2368684E+03  0.7818608E-02  0.1179846E+00
          2   -1    0    0  502    0  0.00000000000E+00  0.00000000000E+00  0.10985983101E+04  0.10985983101E+04  0.00000000000E+00 0. -1.
          1   -1    0    0  501    0 -0.00000000000E+00 -0.00000000000E+00 -0.27461286159E+03  0.27461286159E+03  0.00000000000E+00 0. -1.
         25    2    1    2    0    0 -0.10714300683E+03  0.19150810913E+03  0.20511329450E+03  0.32534460475E+03  0.12499067357E+03 0.  0.
          2    1    1    2  501    0  0.19296721686E+01 -0.24773178516E+03 -0.13668869560E+03  0.28294621489E+03  0.00000000000E+00 0. -1.
          1    1    1    2  502    0  0.10521333466E+03  0.56223676028E+02  0.75556084962E+03  0.76492035207E+03  0.00000000000E+00 0. -1.
         22    1    3    3    0    0  0.20525937916E+02  0.20037985726E+02  0.61342646398E+02  0.67718204837E+02  0.00000000000E+00 0.  1.
         22    1    3    3    0    0 -0.12766894475E+03  0.17147012341E+03  0.14377064811E+03  0.25762639991E+03  0.00000000000E+00 0.  1.
</event>
<event>
 7    1  0.6219721E-006  0.1689992E+03  0.7818608E-02  0.1245260E+00
          2   -1    0    0  502    0  0.00000000000E+00  0.00000000000E+00  0.73390257810E+02  0.73390257810E+02  0.00000000000E+00 0. -1.
          1   -1    0    0  501    0 -0.00000000000E+00 -0.00000000000E+00 -0.12421348168E+04  0.12421348168E+04  0.00000000000E+00 0. -1.
         25    2    1    2    0    0 -0.80215905192E+02  0.17959495893E+03 -0.74821710639E+03  0.78367022071E+03  0.12498494241E+03 0.  0.
          2    1    1    2  501    0  0.11429082738E+03 -0.10350785863E+03 -0.42114306807E+03  0.44848383896E+03  0.00000000000E+00 0. -1.
          1    1    1    2  502    0 -0.34074922189E+02 -0.76087100299E+02  0.61561543877E+00  0.83371014966E+02  0.00000000000E+00 0. -1.
         22    1    3    3    0    0 -0.35168591881E+02  0.46466829849E+02 -0.45269828000E+03  0.45643370696E+03  0.00000000000E+00 0. -1.
         22    1    3    3    0    0 -0.45047313311E+02  0.13312812908E+03 -0.29551882638E+03  0.32723651375E+03  0.00000000000E+00 0. -1.
</event>
<event>
 7    1  0.6219721E-006  0.9327305E+02  0.7818608E-02  0.1366014E+00
          2   -1    0    0  502    0  0.00000000000E+00  0.00000000000E+00  0.16377763080E+03  0.16377763080E+03  0.00000000000E+00 0. -1.
          1   -1    0    0  501    0 -0.00000000000E+00 -0.00000000000E+00 -0.19848148175E+04  0.19848148175E+04  0.00000000000E+00 0. -1.
         25    2    1    2    0    0 -0.39890555754E+02 -0.11680983216E+03 -0.11503307550E+03  0.20998453527E+03  0.12500041306E+03 0.  0.
          2    1    1    2  501    0 -0.38762304618E+01  0.92643084719E+02 -0.18156947479E+04  0.18180608307E+04  0.00000000000E+00 0. -1.
          1    1    1    2  502    0  0.43766786216E+02  0.24166747442E+02  0.10969063679E+03  0.12054708232E+03  0.00000000000E+00 0. -1.
         22    1    3    3    0    0 -0.19217873752E+01 -0.10901054822E+02 -0.95077155302E+02  0.95719338293E+02  0.00000000000E+00 0. -1.
         22    1    3    3    0    0 -0.37968768379E+02 -0.10590877734E+03 -0.19955920203E+02  0.11426519698E+03  0.00000000000E+00 0. -1.
</event>
<event>
 7    1  0.6219721E-006  0.1026309E+03  0.7818608E-02  0.1309823E+00
          2   -1    0    0  502    0  0.00000000000E+00  0.00000000000E+00  0.37713477738E+03  0.37713477738E+03  0.00000000000E+00 0. -1.
          1   -1    0    0  501    0 -0.00000000000E+00 -0.00000000000E+00 -0.53618854078E+03  0.53618854078E+03  0.00000000000E+00 0. -1.
         25    2    1    2    0    0 -0.16058324460E+03 -0.12176578367E+02 -0.28646268655E+03  0.35159838507E+03  0.12500122434E+03 0.  0.
          2    1    1    2  501    0  0.62804652009E+02  0.39245642612E+02 -0.20300156597E+03  0.21608859425E+03  0.00000000000E+00 0. -1.
          1    1    1    2  502    0  0.97778592592E+02 -0.27069064245E+02  0.33041048912E+03  0.34563633884E+03  0.00000000000E+00 0. -1.
         22    1    3    3    0    0 -0.84301228828E+01  0.60459656053E+01 -0.13748767955E+03  0.13787850703E+03  0.00000000000E+00 0.  1.
         22    1    3    3    0    0 -0.15215312172E+03 -0.18222543972E+02 -0.14897500700E+03  0.21371987804E+03  0.00000000000E+00 0.  1.
</event>
<event>
 7    1  0.6219721E-006  0.6471407E+02  0.7818608E-02  0.1411359E+00
          2   -1    0    0  502    0  0.00000000000E+00  0.00000000000E+00  0.43047013921E+03  0.43047013921E+03  0.00000000000E+00 0. -1.
          1   -1    0    0  501    0 -0.00000000000E+00 -0.00000000000E+00 -0.21357693901E+03  0.21357693901E+03  0.00000000000E+00 0. -1.
         25    2    1    2    0    0 -0.16278863764E+02  0.66988774415E+02  0.27384686554E+03  0.30881934319E+03  0.12499913463E+03 0.  0.
          2    1    1    2  501    0 -0.32567424710E+02 -0.56241166684E+02 -0.18589396728E+03  0.19692707547E+03  0.00000000000E+00 0. -1.
          1    1    1    2  502    0  0.48846288475E+02 -0.10747607731E+02  0.12894030194E+03  0.13830065956E+03  0.00000000000E+00 0. -1.
         22    1    3    3    0    0 -0.21852769890E+02 -0.86311586466E+01 -0.11861427515E+01  0.23525462505E+02  0.00000000000E+00 0. -1.
         22    1    3    3    0    0  0.55739061251E+01  0.75619933061E+02  0.27503300829E+03  0.28529388069E+03  0.00000000000E+00 0. -1.
</event>
<event>
 7    1  0.6219721E-006  0.5277992E+02  0.7818608E-02  0.1515537E+00
          2   -1    0    0  502    0  0.00000000000E+00  0.00000000000E+00  0.50028443679E+03  0.50028443679E+03  0.00000000000E+00 0. -1.
          1   -1    0    0  501    0 -0.00000000000E+00 -0.00000000000E+00 -0.82129400082E+03  0.82129400082E+03  0.00000000000E+00 0. -1.
         25    2    1    2    0    0 -0.14507351046E+02  0.60397489447E+02  0.11297533049E+03  0.17956751718E+03  0.12499099152E+03 0.  0.
          2    1    1    2  501    0  0.27291397263E+02 -0.93538689581E+01 -0.78577637279E+03  0.78630580772E+03  0.00000000000E+00 0. -1.
          1    1    1    2  502    0 -0.12784046217E+02 -0.51043620489E+02  0.35179147826E+03  0.35570511270E+03  0.00000000000E+00 0. -1.
         22    1    3    3    0    0 -0.27816964494E+02 -0.22740158085E+02  0.82571790304E+02  0.90049979774E+02  0.00000000000E+00 0. -1.
         22    1    3    3    0    0  0.13309613448E+02  0.83137647532E+02  0.30403540188E+02  0.89517537406E+02  0.00000000000E+00 0. -1.
</event>
<event>
 7    1  0.6219721E-006  0.6445898E+02  0.7818608E-02  0.1500740E+00
          2   -1    0    0  502    0  0.00000000000E+00  0.00000000000E+00  0.69022746042E+03  0.69022746042E+03  0.00000000000E+00 0. -1.
          1   -1    0    0  501    0 -0.00000000000E+00 -0.00000000000E+00 -0.88444016515E+02  0.88444016515E+02  0.00000000000E+00 0. -1.
         25    2    1    2    0    0  0.72182676794E+02  0.91699679913E+01  0.52869721854E+03  0.54812421986E+03  0.12499993747E+03 0.  0.
          2    1    1    2  501    0 -0.56799935530E+02 -0.30281490197E+02 -0.64133015894E+02  0.90863882002E+02  0.00000000000E+00 0. -1.
          1    1    1    2  502    0 -0.15382741264E+02  0.21111522206E+02  0.13721924126E+03  0.13968337506E+03  0.00000000000E+00 0. -1.
         22    1    3    3    0    0 -0.99213343912E+01 -0.15960379659E+02  0.80500374492E+01  0.20444307225E+02  0.00000000000E+00 0. -1.
         22    1    3    3    0    0  0.82104011185E+02  0.25130347650E+02  0.52064718109E+03  0.52767991264E+03  0.00000000000E+00 0. -1.
</event>
<event>
 7    1  0.6219721E-006  0.3929264E+02  0.7818608E-02  0.1517795E+00
          2   -1    0    0  502    0  0.00000000000E+00  0.00000000000E+00  0.86810157385E+02  0.86810157385E+02  0.00000000000E+00 0. -1.
          1   -1    0    0  501    0 -0.00000000000E+00 -0.00000000000E+00 -0.15157559840E+04  0.15157559840E+04  0.00000000000E+00 0. -1.
         25    2    1    2    0    0  0.62735964656E+02  0.17998188506E+02 -0.52506672710E+03  0.54367233248E+03  0.12499920457E+03 0.  0.
          2    1    1    2  501    0 -0.26038392571E+02 -0.28494714110E+02 -0.97628263456E+03  0.97704540793E+03  0.00000000000E+00 0. -1.
          1    1    1    2  502    0 -0.36697572085E+02  0.10496525604E+02  0.72403535071E+02  0.81848400947E+02  0.00000000000E+00 0. -1.
         22    1    3    3    0    0  0.77027521405E+02  0.26091013938E+01 -0.51435390882E+03  0.52009613533E+03  0.00000000000E+00 0.  1.
         22    1    3    3    0    0 -0.14291556749E+02  0.15389087113E+02 -0.10712818274E+02  0.23576197146E+02  0.00000000000E+00 0.  1.
</event>
<event>
 7    1  0.6219721E-006  0.1058965E+03  0.7818608E-02  0.1375198E+00
          2   -1    0    0  502    0  0.00000000000E+00  0.00000000000E+00  0.91429758983E+03  0.91429758983E+03  0.00000000000E+00 0. -1.
          1   -1    0    0  501    0 -0.00000000000E+00 -0.00000000000E+00 -0.83814787968E+03  0.83814787968E+03  0.00000000000E+00 0. -1.
         25    2    1    2    0    0 -0.75459571045E+02  0.55135129861E+02  0.64043717122E+03  0.65918013736E+03  0.12499861518E+03 0.  0.
          2    1    1    2  501    0  0.10300426428E+03 -0.25016300355E+02 -0.82378554317E+03  0.83057709750E+03  0.00000000000E+00 0. -1.
          1    1    1    2  502    0 -0.27544693232E+02 -0.30118829506E+02  0.25949808210E+03  0.26268823466E+03  0.00000000000E+00 0. -1.
         22    1    3    3    0    0 -0.36389905871E+01  0.72676911289E+02  0.20547966109E+03  0.21798409761E+03  0.00000000000E+00 0.  1.
         22    1    3    3    0    0 -0.71820580458E+02 -0.17541781428E+02  0.43495751013E+03  0.44119603975E+03  0.00000000000E+00 0.  1.
</event>
<event>
 7    1  0.6219721E-006  0.7936712E+02  0.7818608E-02  0.1391096E+00
          2   -1    0    0  502    0  0.00000000000E+00  0.00000000000E+00  0.11321963928E+04  0.11321963928E+04  0.00000000000E+00 0. -1.
          1   -1    0    0  501    0 -0.00000000000E+00 -0.00000000000E+00 -0.39063878016E+03  0.39063878016E+03  0.00000000000E+00 0. -1.
         25    2    1    2    0    0  0.59675211020E+02 -0.91975947189E+02  0.19150040193E+03  0.25361179822E+03  0.12500333830E+03 0.  0.
          2    1    1    2  501    0 -0.13992763147E+02  0.77689056974E+02 -0.35461041328E+03  0.36329042404E+03  0.00000000000E+00 0. -1.
          1    1    1    2  502    0 -0.45682447873E+02  0.14286890215E+02  0.90466762396E+03  0.90593295067E+03  0.00000000000E+00 0. -1.
         22    1    3    3    0    0  0.44351612646E+02 -0.53425258979E+02  0.13365811473E+02  0.70710457202E+02  0.00000000000E+00 0. -1.
         22    1    3    3    0    0  0.15323598374E+02 -0.38550688210E+02  0.17813459046E+03  0.18290134102E+03  0.00000000000E+00 0. -1.
</event>
<event>
 7    1  0.6219721E-006  0.1985600E+03  0.7818608E-02  0.1301014E+00
          2   -1    0    0  502    0  0.00000000000E+00  0.00000000000E+00  0.34864803933E+03  0.34864803933E+03  0.00000000000E+00 0. -1.
          1   -1    0    0  501    0 -0.00000000000E+00 -0.00000000000E+00 -0.10169496423E+04  0.10169496423E+04  0.00000000000E+00 0. -1.
         25    2    1    2    0    0 -0.20125827526E+03  0.96626124511E+02 -0.25298138296E+02  0.25711033438E+03  0.12499690774E+03 0.  0.
          2    1    1    2  501    0  0.18709672176E+02 -0.37030367621E+02 -0.83553288541E+03  0.83656231242E+03  0.00000000000E+00 0. -1.
          1    1    1    2  502    0  0.18254860308E+03 -0.59595756890E+02  0.19252942073E+03  0.27192503484E+03  0.00000000000E+00 0. -1.
         22    1    3    3    0    0 -0.10268289040E+03  0.11608639492E+03 -0.83056417768E+01  0.15520570464E+03  0.00000000000E+00 0. -1.
         22    1    3    3    0    0 -0.98575384857E+02 -0.19460270412E+02 -0.16992496519E+02  0.10190462974E+03  0.00000000000E+00 0. -1.
</event>
<event>
 7    1  0.6219721E-006  0.8981919E+02  0.7818608E-02  0.1347552E+00
          2   -1    0    0  502    0  0.00000000000E+00  0.00000000000E+00  0.13414477425E+04  0.13414477425E+04  0.00000000000E+00 0. -1.
          1   -1    0    0  501    0 -0.00000000000E+00 -0.00000000000E+00 -0.91669943365E+02  0.91669943365E+02  0.00000000000E+00 0. -1.
         25    2    1    2    0    0 -0.51189164898E+02  0.63504148128E+02  0.39314547143E+03  0.42052562905E+03  0.12500134218E+03 0.  0.
          2    1    1    2  501    0 -0.26020722468E+01 -0.91579094858E+02 -0.49701592345E+02  0.10422931294E+03  0.00000000000E+00 0. -1.
          1    1    1    2  502    0  0.53791237144E+02  0.28074946730E+02  0.90633392008E+03  0.90836274390E+03  0.00000000000E+00 0. -1.
         22    1    3    3    0    0 -0.13400917343E+02 -0.22569723857E+02  0.13698430284E+02  0.29607837018E+02  0.00000000000E+00 0. -1.
         22    1    3    3    0    0 -0.37788247554E+02  0.86073871985E+02  0.37944704114E+03  0.39091779203E+03  0.00000000000E+00 0. -1.
</event>
<event>
 7    1  0.6219721E-006  0.1412423E+03  0.7818608E-02  0.1223020E+00
          2   -1    0    0  502    0  0.00000000000E+00  0.00000000000E+00  0.50401914487E+03  0.50401914487E+03  0.00000000000E+00 0. -1.
          1   -1    0    0  501    0 -0.00000000000E+00 -0.00000000000E+00 -0.61306173352E+03  0.61306173352E+03  0.00000000000E+00 0. -1.
         25    2    1    2    0    0  0.17301747406E+03 -0.87201488349E+02 -0.32080805212E+03  0.39507201443E+03  0.12499977750E+03 0.  0.
          2    1    1    2  501    0 -0.51779804226E+02  0.11887143026E+03 -0.22933779586E+03  0.26345282247E+03  0.00000000000E+00 0. -1.
          1    1    1    2  502    0 -0.12123766984E+03 -0.31669941915E+02  0.44110325932E+03  0.45855604149E+03  0.00000000000E+00 0. -1.
         22    1    3    3    0    0  0.16966533914E+03 -0.33308154712E+02 -0.27189089398E+03  0.32221176065E+03  0.00000000000E+00 0. -1.
         22    1    3    3    0    0  0.33521349231E+01 -0.53893333637E+02 -0.48917158143E+02  0.72860253773E+02  0.00000000000E+00 0. -1.
</event>
<event>
 7    1  0.6219721E-006  0.8432698E+02  0.7818608E-02  0.1382265E+00
          2   -1    0    0  502    0  0.00000000000E+00  0.00000000000E+00  0.93634059385E+03  0.93634059385E+03  0.00000000000E+00 0. -1.
          1   -1    0    0  501    0 -0.00000000000E+00 -0.00000000000E+00 -0.59196992930E+02  0.59196992930E+02  0.00000000000E+00 0. -1.
         25    2    1    2    0    0 -0.45904059175E+01 -0.59913819474E+02  0.25859663263E+03  0.29344998967E+03  0.12501976019E+03 0.  0.
          2    1    1    2  501    0 -0.46192235157E+02 -0.14380464477E+02 -0.23486005832E+02  0.53778367559E+02  0.00000000000E+00 0. -1.
          1    1    1    2  502    0  0.50782641074E+02  0.74294283951E+02  0.64203297412E+03  0.64830922955E+03  0.00000000000E+00 0. -1.
         22    1    3    3    0    0 -0.52800002277E+02 -0.98730916141E+01  0.49260572435E+02  0.72882934731E+02  0.00000000000E+00 0. -1.
         22    1    3    3    0    0  0.48209596359E+02 -0.50040727860E+02  0.20933606020E+03  0.22056705494E+03  0.00000000000E+00 0. -1.
</event>
<event>
 7    1  0.6219721E-006  0.9072050E+02  0.7818608E-02  0.1308640E+00
          2   -1    0    0  502    0  0.00000000000E+00  0.00000000000E+00  0.68313414512E+03  0.68313414512E+03  0.00000000000E+00 0. -1.
          1   -1    0    0  501    0 -0.00000000000E+00 -0.00000000000E+00 -0.83296010137E+02  0.83296010137E+02  0.00000000000E+00 0. -1.
         25    2    1    2    0    0  0.11790693041E+02 -0.31499546223E+02  0.32432374857E+03  0.34920259971E+03  0.12500127960E+03 0.  0.
          2    1    1    2  501    0 -0.96021089742E+02  0.22716438437E+02 -0.27637387517E+02  0.10246907553E+03  0.00000000000E+00 0. -1.
          1    1    1    2  502    0  0.84230396702E+02  0.87831077864E+01  0.30315177393E+03  0.31475848002E+03  0.00000000000E+00 0. -1.
         22    1    3    3    0    0  0.24313319955E+02  0.19939147818E+02  0.27517097029E+03  0.27696167611E+03  0.00000000000E+00 0.  1.
         22    1    3    3    0    0 -0.12522626914E+02 -0.51438694041E+02  0.49152778279E+02  0.72240923596E+02  0.00000000000E+00 0.  1.
</event>
<event>
 7    1  0.6219721E-006  0.9530146E+02  0.7818608E-02  0.1385599E+00
          2   -1    0    0  502    0  0.00000000000E+00  0.00000000000E+00  0.38148455021E+04  0.38148455021E+04  0.00000000000E+00 0. -1.
          1   -1    0    0  501    0 -0.00000000000E+00 -0.00000000000E+00 -0.13901943947E+02  0.13901943947E+02  0.00000000000E+00 0. -1.
         25    2    1    2    0    0 -0.21806637911E+02 -0.57237995211E+02  0.75010813861E+03  0.76291523435E+03  0.12500287055E+03 0.  0.
          2    1    1    2  501    0 -0.31588259574E+02 -0.27170769941E+02  0.58451806572E+02  0.71782188415E+02  0.00000000000E+00 0. -1.
          1    1    1    2  502    0  0.53394897485E+02  0.84408765153E+02  0.29923836130E+04  0.29940500233E+04  0.00000000000E+00 0. -1.
         22    1    3    3    0    0 -0.39198822217E+00 -0.67659147082E+02  0.72557797111E+03  0.72872580989E+03  0.00000000000E+00 0. -1.
         22    1    3    3    0    0 -0.21414649689E+02  0.10421151870E+02  0.24530167499E+02  0.34189424463E+02  0.00000000000E+00 0. -1.
</event>
<event>
 7    1  0.6219721E-006  0.1130019E+03  0.7818608E-02  0.1433324E+00
          2   -1    0    0  502    0  0.00000000000E+00  0.00000000000E+00  0.70291723947E+03  0.70291723947E+03  0.00000000000E+00 0. -1.
          1   -1    0    0  501    0 -0.00000000000E+00 -0.00000000000E+00 -0.99481379613E+03  0.99481379613E+03  0.00000000000E+00 0. -1.
         25    2    1    2    0    0  0.11479909213E+03  0.73827603532E+02  0.40226627729E+02  0.18940554053E+03  0.12500772218E+03 0.  0.
          2    1    1    2  501    0 -0.94882426684E+02 -0.60073431451E+02 -0.91654670320E+03  0.92340096990E+03  0.00000000000E+00 0. -1.
          1    1    1    2  502    0 -0.19916665447E+02 -0.13754172081E+02  0.58442351881E+03  0.58492452518E+03  0.00000000000E+00 0. -1.
         22    1    3    3    0    0  0.10230883887E+03 -0.25319463749E+01  0.45187504975E+02  0.11187233737E+03  0.00000000000E+00 0.  1.
         22    1    3    3    0    0  0.12490253266E+02  0.76359549907E+02 -0.49608772461E+01  0.77533203156E+02  0.00000000000E+00 0.  1.
</event>
<event>
 7    1  0.6219721E-006  0.2249431E+03  0.7818608E-02  0.1254455E+00
          2   -1    0    0  502    0  0.00000000000E+00  0.00000000000E+00  0.68115603220E+03  0.68115603220E+03  0.00000000000E+00 0. -1.
          1   -1    0    0  501    0 -0.00000000000E+00 -0.00000000000E+00 -0.22300472451E+04  0.22300472451E+04  0.00000000000E+00 0. -1.
         25    2    1    2    0    0  0.22872196173E+03  0.48302891989E+02  0.55419519259E+02  0.27081631899E+03  0.12499300127E+03 0.  0.
          2    1    1    2  501    0 -0.46402069912E+01 -0.56948336953E+02 -0.20976734172E+04  0.20984514313E+04  0.00000000000E+00 0. -1.
          1    1    1    2  502    0 -0.22408175473E+03  0.86454449638E+01  0.49336268497E+03  0.54193552701E+03  0.00000000000E+00 0. -1.
         22    1    3    3    0    0  0.17031825576E+02  0.41270424863E+02  0.37404696095E+02  0.58244676502E+02  0.00000000000E+00 0. -1.
         22    1    3    3    0    0  0.21169013615E+03  0.70324671265E+01  0.18014823164E+02  0.21257164249E+03  0.00000000000E+00 0. -1.
</event>
<event>
 7    1  0.6219721E-006  0.5419977E+03  0.7818608E-02  0.1154050E+00
          2   -1    0    0  502    0  0.00000000000E+00  0.00000000000E+00  0.20775923675E+04  0.20775923675E+04  0.00000000000E+00 0. -1.
          1   -1    0    0  501    0 -0.00000000000E+00 -0.00000000000E+00 -0.25048998382E+03  0.25048998382E+03  0.00000000000E+00 0. -1.
         25    2    1    2    0    0 -0.21620935989E+03 -0.46493056200E+03  0.47844672372E+03  0.71235021182E+03  0.12499856820E+03 0.  0.
          2    1    1    2  501    0  0.27532434923E+03  0.50267717363E+03  0.48951297663E+03  0.75373124684E+03  0.00000000000E+00 0. -1.
          1    1    1    2  502    0 -0.59114989332E+02 -0.37746611632E+02  0.85914268334E+03  0.86200089268E+03  0.00000000000E+00 0. -1.
         22    1    3    3    0    0 -0.19573963288E+03 -0.45832454665E+03  0.47842008231E+03  0.69084091446E+03  0.00000000000E+00 0.  1.
         22    1    3    3    0    0 -0.20469727018E+02 -0.66060153498E+01  0.26641413889E-01  0.21509297356E+02  0.00000000000E+00 0.  1.
</event>
<event>
 7    1  0.6219721E-006  0.1870841E+03  0.7818608E-02  0.1198903E+00
          2   -1    0    0  502    0  0.00000000000E+00  0.00000000000E+00  0.27121535891E+04  0.27121535891E+04  0.00000000000E+00 0. -1.
          1   -1    0    0  501    0 -0.00000000000E+00 -0.00000000000E+00 -0.16784657065E+03  0.16784657065E+03  0.00000000000E+00 0. -1.
         25    2    1    2    0    0  0.15921089982E+03 -0.25099546890E+03  0.67132168321E+03  0.74474429590E+03  0.12499771155E+03 0.  0.
          2    1    1    2  501    0 -0.57975854428E+02  0.10772545213E+03 -0.97833951370E+02  0.15664435762E+03  0.00000000000E+00 0. -1.
          1    1    1    2  502    0 -0.10123504539E+03  0.14327001677E+03  0.19708192866E+04  0.19786115063E+04  0.00000000000E+00 0. -1.
         22    1    3    3    0    0  0.45626641794E+02 -0.24153080545E+02  0.43164293524E+02  0.67292778042E+02  0.00000000000E+00 0.  1.
         22    1    3    3    0    0  0.11358425802E+03 -0.22684238836E+03  0.62815738968E+03  0.67745151785E+03  0.00000000000E+00 0.  1.
</event>
<event>
 7    1  0.6219721E-006  0.1857653E+03  0.7818608E-02  0.1286427E+00
          2   -1    0    0  502    0  0.00000000000E+00  0.00000000000E+00  0.49635693886E+03  0.49635693886E+03  0.00000000000E+00 0. -1.
          1   -1    0    0  501    0 -0.00000000000E+00 -0.00000000000E+00 -0.25031451176E+03  0.25031451176E+03  0.00000000000E+00 0. -1.
         25    2    1    2    0    0  0.22171043598E+02 -0.14790721222E+03 -0.12325700466E+02  0.19529546383E+03  0.12498118538E+03 0.  0.
          2    1    1    2  501    0 -0.20722357749E+02 -0.46377803462E+02 -0.11763938219E+03  0.12813797644E+03  0.00000000000E+00 0. -1.
          1    1    1    2  502    0 -0.14486858486E+01  0.19428501568E+03  0.37600750975E+03  0.42323801035E+03  0.00000000000E+00 0. -1.
         22    1    3    3    0    0  0.38231300883E+02 -0.14010146260E+03 -0.50010600703E+02  0.15359398547E+03  0.00000000000E+00 0.  1.
         22    1    3    3    0    0 -0.16060257285E+02 -0.78057496186E+01  0.37684900238E+02  0.41701478356E+02  0.00000000000E+00 0.  1.
</event>
<event>
 7    1  0.6219721E-006  0.1412349E+03  0.7818608E-02  0.1260238E+00
          2   -1    0    0  502    0  0.00000000000E+00  0.00000000000E+00  0.24612376031E+04  0.24612376031E+04  0.00000000000E+00 0. -1.
          1   -1    0    0  501    0 -0.00000000000E+00 -0.00000000000E+00 -0.62282565611E+03  0.62282565611E+03  0.00000000000E+00 0. -1.
         25    2    1    2    0    0 -0.24337740760E+02  0.85061562965E+02  0.32989664137E+02  0.15665676876E+03  0.12500092055E+03 0.  0.
          2    1    1    2  501    0 -0.85641495422E+02  0.73040382230E+01 -0.55550477707E+03  0.56211508791E+03  0.00000000000E+00 0. -1.
          1    1    1    2  502    0  0.10997923618E+03 -0.92365601188E+02  0.23609270599E+04  0.23652914026E+04  0.00000000000E+00 0. -1.
         22    1    3    3    0    0  0.49018709948E+02  0.31435811954E+02  0.30542751570E+02  0.65756397952E+02  0.00000000000E+00 0. -1.
         22    1    3    3    0    0 -0.73356450708E+02  0.53625751011E+02  0.24469125674E+01  0.90900370808E+02  0.00000000000E+00 0. -1.
</event>
<event>
 7    1  0.6219721E-006  0.1903258E+03  0.7818608E-02  0.1303333E+00
          2   -1    0    0  502    0  0.00000000000E+00  0.00000000000E+00  0.12135297470E+04  0.12135297470E+04  0.00000000000E+00 0. -1.
          1   -1    0    0  501    0 -0.00000000000E+00 -0.00000000000E+00 -0.14526814231E+03  0.14526814231E+03  0.00000000000E+00 0. -1.
         25    2    1    2    0    0  0.44198017124E+02 -0.21989196092E+03  0.31344851826E+03  0.40519237043E+03  0.12499977705E+03 0.  0.
          2    1    1    2  501    0 -0.30351739299E+02  0.17984702510E+03 -0.14649174549E+02  0.18297753641E+03  0.00000000000E+00 0. -1.
          1    1    1    2  502    0 -0.13846277825E+02  0.40044935821E+02  0.76946226094E+03  0.77062798243E+03  0.00000000000E+00 0. -1.
         22    1    3    3    0    0  0.80439846287E+02 -0.19431297929E+03  0.23742135971E+03  0.31717030889E+03  0.00000000000E+00 0. -1.
         22    1    3    3    0    0 -0.36241829163E+02 -0.25578981630E+02  0.76027158544E+02  0.88022061545E+02  0.00000000000E+00 0. -1.
</event>
<event>
 7    1  0.6219721E-006  0.4164410E+02  0.7818608E-02  0.1540953E+00
          2   -1    0    0  502    0  0.00000000000E+00  0.00000000000E+00  0.68242938815E+02  0.68242938815E+02  0.00000000000E+00 0. -1.
          1   -1    0    0  501    0 -0.00000000000E+00 -0.00000000000E+00 -0.71811127666E+03  0.71811127666E+03  0.00000000000E+00 0. -1.
         25    2    1    2    0    0  0.19236195376E+02 -0.68820031360E+02 -0.22054768431E+03  0.26338400113E+03  0.12499449216E+03 0.  0.
          2    1    1    2  501    0 -0.82642267212E+01  0.29782180695E+02 -0.46675824852E+03  0.46778043813E+03  0.00000000000E+00 0. -1.
          1    1    1    2  502    0 -0.10971968654E+02  0.39037850665E+02  0.37437594983E+02  0.55189776217E+02  0.00000000000E+00 0. -1.
         22    1    3    3    0    0  0.34319051834E+02  0.17819802322E+02 -0.18172885170E+02  0.42726998830E+02  0.00000000000E+00 0. -1.
         22    1    3    3    0    0 -0.15082856459E+02 -0.86639833682E+02 -0.20237479914E+03  0.22065700230E+03  0.00000000000E+00 0. -1.
</event>
<event>
 7    1  0.6219721E-006  0.2976078E+02  0.7818608E-02  0.1668667E+00
          2   -1    0    0  502    0  0.00000000000E+00  0.00000000000E+00  0.14793941358E+04  0.14793941358E+04  0.00000000000E+00 0. -1.
          1   -1    0    0  501    0 -0.00000000000E+00 -0.00000000000E+00 -0.13819230150E+03  0.13819230150E+03  0.00000000000E+00 0. -1.
         25    2    1    2    0    0  0.22028881619E+02 -0.17743682884E+02 -0.43018364710E+02  0.13518931993E+03  0.12500185044E+03 0.  0.
          2    1    1    2  501    0 -0.16507710431E+02 -0.11515025286E+02 -0.46863958317E+02  0.51003244016E+02  0.00000000000E+00 0. -1.
          1    1    1    2  502    0 -0.55211711886E+01  0.29258708170E+02  0.14310841573E+04  0.14313938733E+04  0.00000000000E+00 0. -1.
         22    1    3    3    0    0  0.44707814681E+02 -0.62779919606E+02 -0.19226364993E+02  0.79433998453E+02  0.00000000000E+00 0.  1.
         22    1    3    3    0    0 -0.22678933062E+02  0.45036236723E+02 -0.23791999716E+02  0.55755321481E+02  0.00000000000E+00 0.  1.
</event>
<event>
 7    1  0.6219721E-006  0.4237927E+02  0.7818608E-02  0.1492269E+00
          2   -1    0    0  502    0  0.00000000000E+00  0.00000000000E+00  0.34471987179E+03  0.34471987179E+03  0.00000000000E+00 0. -1.
          1   -1    0    0  501    0 -0.00000000000E+00 -0.00000000000E+00 -0.18829149525E+04  0.18829149525E+04  0.00000000000E+00 0. -1.
         25    2    1    2    0    0  0.57031100565E+01  0.61340841799E+02 -0.12965227321E+02  0.13995596876E+03  0.12499740692E+03 0.  0.
          2    1    1    2  501    0  0.25909799983E+02 -0.33212780264E+02 -0.18046154238E+04  0.18051069869E+04  0.00000000000E+00 0. -1.
          1    1    1    2  502    0 -0.31612910040E+02 -0.28128061535E+02  0.27938557044E+03  0.28257186855E+03  0.00000000000E+00 0. -1.
         22    1    3    3    0    0 -0.20560562787E+02 -0.27015988172E+02  0.23003429891E+02  0.41009244638E+02  0.00000000000E+00 0.  1.
         22    1    3    3    0    0  0.26263672843E+02  0.88356829971E+02 -0.35968657212E+02  0.98946724127E+02  0.00000000000E+00 0.  1.
</event>
<event>
 7    1  0.6219721E-006  0.1130246E+03  0.7818608E-02  0.1414389E+00
          2   -1    0    0  502    0  0.00000000000E+00  0.00000000000E+00  0.38437670045E+03  0.38437670045E+03  0.00000000000E+00 0. -1.
          1   -1    0    0  501    0 -0.00000000000E+00 -0.00000000000E+00 -0.37259720104E+03  0.37259720104E+03  0.00000000000E+00 0. -1.
         25    2    1    2    0    0 -0.90838860715E+02 -0.58359714354E+02  0.92120020547E+02  0.18908993961E+03  0.12494539688E+03 0.  0.
          2    1    1    2  501    0  0.77580110735E+02  0.82988050202E+02 -0.31329524527E+03  0.33325605886E+03  0.00000000000E+00 0. -1.
          1    1    1    2  502    0  0.13258749980E+02 -0.24628335848E+02  0.23295472413E+03  0.23462790302E+03  0.00000000000E+00 0. -1.
         22    1    3    3    0    0 -0.37884460726E+02 -0.28338858185E+01  0.10466144981E+03  0.11134308398E+03  0.00000000000E+00 0. -1.
         22    1    3    3    0    0 -0.52954399990E+02 -0.55525828535E+02 -0.12541429265E+02  0.77746855633E+02  0.00000000000E+00 0. -1.
</event>
<event>
 7    1  0.6219721E-006  0.1001697E+03  0.7818608E-02  0.1425894E+00
          2   -1    0    0  502    0  0.00000000000E+00  0.00000000000E+00  0.87207822251E+03  0.87207822251E+03  0.00000000000E+00 0. -1.
          1   -1    0    0  501    0 -0.00000000000E+00 -0.00000000000E+00 -0.17518488727E+03  0.17518488727E+03  0.00000000000E+00 0. -1.
         25    2    1    2    0    0  0.84127493047E+02  0.92153658781E+02 -0.29399090550E+02  0.17905631447E+03  0.12500850096E+03 0.  0.
          2    1    1    2  501    0 -0.26748158671E+02 -0.10910818811E+02 -0.64767860849E+02  0.70918162401E+02  0.00000000000E+00 0. -1.
          1    1    1    2  502    0 -0.57379334376E+02 -0.81242839970E+02  0.79106028665E+03  0.79728863291E+03  0.00000000000E+00 0. -1.
         22    1    3    3    0    0  0.39086526497E+01  0.44592851296E+02 -0.65263248347E+02  0.79139696342E+02  0.00000000000E+00 0. -1.
         22    1    3    3    0    0  0.80218840397E+02  0.47560807485E+02  0.35864157797E+02  0.99916618126E+02  0.00000000000E+00 0. -1.
</event>
<event>
 7    1  0.6219721E-006  0.9396340E+02  0.7818608E-02  0.1344637E+00
          2   -1    0    0  502    0  0.00000000000E+00  0.00000000000E+00  0.17323109266E+03  0.17323109266E+03  0.00000000000E+00 0. -1.
          1   -1    0    0  501    0 -0.00000000000E+00 -0.00000000000E+00 -0.72065264537E+03  0.72065264537E+03  0.00000000000E+00 0. -1.
         25    2    1    2    0    0  0.25857383479E+02 -0.84374437113E+02 -0.38321691716E+03  0.41263540270E+03  0.12500048019E+03 0.  0.
          2    1    1    2  501    0 -0.59311067354E+02 -0.43476768872E+01 -0.30541812961E+03  0.31115420438E+03  0.00000000000E+00 0. -1.
          1    1    1    2  502    0  0.33453683875E+02  0.88722114000E+02  0.14121349406E+03  0.17009413095E+03  0.00000000000E+00 0. -1.
         22    1    3    3    0    0  0.62596151769E+02 -0.17713998107E+02 -0.99447942632E+02  0.11883584156E+03  0.00000000000E+00 0.  1.
         22    1    3    3    0    0 -0.36738768290E+02 -0.66660439006E+02 -0.28376897453E+03  0.29379956114E+03  0.00000000000E+00 0.  1.
</event>
<event>
 7    1  0.6219721E-006  0.1191677E+03  0.7818608E-02  0.1377829E+00
          2   -1    0    0  502    0  0.00000000000E+00  0.00000000000E+00  0.11700236964E+03  0.11700236964E+03  0.00000000000E+00 0. -1.
          1   -1    0    0  501    0 -0.00000000000E+00 -0.00000000000E+00 -0.28870990567E+04  0.28870990567E+04  0.00000000000E+00 0. -1.
         25    2    1    2    0    0 -0.41616615156E+02 -0.14052428156E+03 -0.15340590067E+04  0.15461051563E+04  0.12500040734E+03 0.  0.
          2    1    1    2  501    0  0.27242459842E+02  0.22754900363E+02 -0.13149997462E+04  0.13154787226E+04  0.00000000000E+00 0. -1.
          1    1    1    2  502    0  0.14374155314E+02  0.11776938120E+03  0.78962065862E+02  0.14251754746E+03  0.00000000000E+00 0. -1.
         22    1    3    3    0    0  0.32182102951E+01  0.14377269911E+02 -0.29963452266E+02  0.33389687619E+02  0.00000000000E+00 0. -1.
         22    1    3    3    0    0 -0.44834825451E+02 -0.15490155147E+03 -0.15040955544E+04  0.15127154686E+04  0.00000000000E+00 0. -1.
</event>
<event>
 7    1  0.6219721E-006  0.1068661E+03  0.7818608E-02  0.1311279E+00
          2   -1    0    0  502    0  0.00000000000E+00  0.00000000000E+00  0.37297922409E+03  0.37297922409E+03  0.00000000000E+00 0. -1.
          1   -1    0    0  501    0 -0.00000000000E+00 -0.00000000000E+00 -0.33138646762E+04  0.33138646762E+04  0.00000000000E+00 0. -1.
         25    2    1    2    0    0 -0.95644000065E+02 -0.11578181635E+03 -0.32830152296E+03  0.38204704224E+03  0.12499939506E+03 0.  0.
          2    1    1    2  501    0  0.95483966207E+02  0.45590813513E+02 -0.29541747502E+04  0.29560690393E+04  0.00000000000E+00 0. -1.
          1    1    1    2  502    0  0.16003385832E+00  0.70191002836E+02  0.34159082111E+03  0.34872781873E+03  0.00000000000E+00 0. -1.
         22    1    3    3    0    0  0.29534713304E+01 -0.88316052924E+02 -0.11125195487E+03  0.14207549282E+03  0.00000000000E+00 0. -1.
         22    1    3    3    0    0 -0.98597471395E+02 -0.27465763425E+02 -0.21704956809E+03  0.23997154943E+03  0.00000000000E+00 0. -1.
</event>
<event>
 7    1  0.6219721E-006  0.8070227E+02  0.7818608E-02  0.1453116E+00
          2   -1    0    0  502    0  0.00000000000E+00  0.00000000000E+00  0.56567872823E+03  0.56567872823E+03  0.00000000000E+00 0. -1.
          1   -1    0    0  501    0 -0.00000000000E+00 -0.00000000000E+00 -0.34450718227E+03  0.34450718227E+03  0.00000000000E+00 0. -1.
         25    2    1    2    0    0  0.52285642161E+02 -0.61203597004E+01 -0.77607581259E+02  0.15626528271E+03  0.12499861893E+03 0.  0.
          2    1    1    2  501    0  0.27667662240E+02 -0.94958310457E+01 -0.22345971542E+03  0.22536617927E+03  0.00000000000E+00 0. -1.
          1    1    1    2  502    0 -0.79953304401E+02  0.15616190746E+02  0.52223884263E+03  0.52855444852E+03  0.00000000000E+00 0. -1.
         22    1    3    3    0    0  0.77760342506E+01 -0.55236957462E+02 -0.21412418601E+01  0.55822693369E+02  0.00000000000E+00 0. -1.
         22    1    3    3    0    0  0.44509607911E+02  0.49116597762E+02 -0.75466339399E+02  0.10044258934E+03  0.00000000000E+00 0. -1.
</event>
<event>
 7    1  0.6219721E-006  0.7375876E+02  0.7818608E-02  0.1373197E+00
          2   -1    0    0  502    0  0.00000000000E+00  0.00000000000E+00  0.32124823335E+03  0.32124823335E+03  0.00000000000E+00 0. -1.
          1   -1    0    0  501    0 -0.00000000000E+00 -0.00000000000E+00 -0.63457937633E+03  0.63457937633E+03  0.00000000000E+00 0. -1.
         25    2    1    2    0    0  0.60182882311E+02  0.94885038005E+02  0.63896718308E+02  0.17980641394E+03  0.12498962406E+03 0.  0.
          2    1    1    2  501    0 -0.64130282434E+02 -0.35445184554E+02 -0.56977617217E+03  0.57446839827E+03  0.00000000000E+00 0. -1.
          1    1    1    2  502    0  0.39474001233E+01 -0.59439853452E+02  0.19254831089E+03  0.20155279748E+03  0.00000000000E+00 0. -1.
         22    1    3    3    0    0  0.85773682556E+02  0.10709626106E+03  0.64113662119E+02  0.15145063692E+03  0.00000000000E+00 0.  1.
         22    1    3    3    0    0 -0.25590800245E+02 -0.12211223058E+02 -0.21694381109E+00  0.28355777019E+02  0.00000000000E+00 0.  1.
</event>
<event>
 7    1  0.6219721E-006  0.4624621E+02  0.7818608E-02  0.1537485E+00
          2   -1    0    0  502    0  0.00000000000E+00  0.00000000000E+00  0.99386225372E+02  0.99386225372E+02  0.00000000000E+00 0. -1.
          1   -1    0    0  501    0 -0.00000000000E+00 -0.00000000000E+00 -0.15122644428E+04  0.15122644428E+04  0.00000000000E+00 0. -1.
         25    2    1    2    0    0  0.42555148890E+02 -0.13035392363E+01 -0.11416914753E+04  0.11493028562E+04  0.12499996235E+03 0.  0.
          2    1    1    2  501    0 -0.64743879576E+01 -0.27721771678E+02 -0.36056453319E+03  0.36168660041E+03  0.00000000000E+00 0. -1.
          1    1    1    2  502    0 -0.36080760932E+02  0.29025310915E+02  0.89377791045E+02  0.10066121157E+03  0.00000000000E+00 0. -1.
         22    1    3    3    0    0  0.53867883075E+02  0.52008339860E+02 -0.54344641811E+03  0.54858055525E+03  0.00000000000E+00 0.  1.
         22    1    3    3    0    0 -0.11312734185E+02 -0.53311879097E+02 -0.59824505722E+03  0.60072230098E+03  0.00000000000E+00 0.  1.
</event>
<event>
 7    1  0.6219721E-006  0.1452780E+03  0.7818608E-02  0.1287248E+00
          2   -1    0    0  502    0  0.00000000000E+00  0.00000000000E+00  0.19468656211E+03  0.19468656211E+03  0.00000000000E+00 0. -1.
          1   -1    0    0  501    0 -0.00000000000E+00 -0.00000000000E+00 -0.13020841339E+04  0.13020841339E+04  0.00000000000E+00 0. -1.
         25    2    1    2    0    0 -0.12494646901E+02 -0.11758025723E+03 -0.26847395254E+03  0.31888051422E+03  0.12500114426E+03 0.  0.
          2    1    1    2  501    0  0.74823652139E+02  0.13399078781E+03 -0.99618313618E+03  0.10079349934E+04  0.00000000000E+00 0. -1.
          1    1    1    2  502    0 -0.62329005238E+02 -0.16410530578E+02  0.15725951690E+03  0.16995518840E+03  0.00000000000E+00 0. -1.
         22    1    3    3    0    0  0.47334911391E+01  0.19984682125E+02 -0.49703400252E+01  0.21130493084E+02  0.00000000000E+00 0. -1.
         22    1    3    3    0    0 -0.17228138040E+02 -0.13756493936E+03 -0.26350361251E+03  0.29775002114E+03  0.00000000000E+00 0. -1.
</event>
<event>
 7    1  0.6219721E-006  0.6471265E+02  0.7818608E-02  0.1420607E+00
          2   -1    0    0  502    0  0.00000000000E+00  0.00000000000E+00  0.54082956048E+02  0.54082956048E+02  0.00000000000E+00 0. -1.
          1   -1    0    0  501    0 -0.00000000000E+00 -0.00000000000E+00 -0.13506132455E+04  0.13506132455E+04  0.00000000000E+00 0. -1.
         25    2    1    2    0    0  0.19533259899E+02 -0.36721395560E+01 -0.66457890367E+03  0.67652285257E+03  0.12499207171E+03 0.  0.
          2    1    1    2  501    0  0.46541920842E+02 -0.13956542401E+01 -0.65601871468E+03  0.65766910544E+03  0.00000000000E+00 0. -1.
          1    1    1    2  502    0 -0.66075180740E+02  0.50677937961E+01  0.24067328858E+02  0.70504243576E+02  0.00000000000E+00 0. -1.
         22    1    3    3    0    0  0.38515834104E+02  0.43066705121E+02 -0.52382766521E+03  0.52700439600E+03  0.00000000000E+00 0.  1.
         22    1    3    3    0    0 -0.18982574206E+02 -0.46738844677E+02 -0.14075123846E+03  0.14951845656E+03  0.00000000000E+00 0.  1.
</event>
<event>
 7    1  0.6219721E-006  0.6627854E+02  0.7818608E-02  0.1502073E+00
          2   -1    0    0  502    0  0.00000000000E+00  0.00000000000E+00  0.49987058617E+03  0.49987058617E+03  0.00000000000E+00 0. -1.
          1   -1    0    0  501    0 -0.00000000000E+00 -0.00000000000E+00 -0.11685540750E+04  0.11685540750E+04  0.00000000000E+00 0. -1.
         25    2    1    2    0    0  0.83542626239E+02 -0.11821017206E+01  0.22560291739E+02  0.15203569153E+03  0.12500046789E+03 0.  0.
          2    1    1    2  501    0 -0.63905417408E+02  0.16932061293E+02 -0.11024412412E+04  0.11044216982E+04  0.00000000000E+00 0. -1.
          1    1    1    2  502    0 -0.19637208832E+02 -0.15749959572E+02  0.41119746059E+03  0.41196727151E+03  0.00000000000E+00 0. -1.
         22    1    3    3    0    0  0.81274919113E+02 -0.43556366477E+02  0.46544727007E+02  0.10329172837E+03  0.00000000000E+00 0.  1.
         22    1    3    3    0    0  0.22677071265E+01  0.42374264757E+02 -0.23984435268E+02  0.48743963159E+02  0.00000000000E+00 0.  1.
</event>
<event>
 7    1  0.6219721E-006  0.3010195E+02  0.7818608E-02  0.1603555E+00
          2   -1    0    0  502    0  0.00000000000E+00  0.00000000000E+00  0.57279753226E+03  0.57279753226E+03  0.00000000000E+00 0. -1.
          1   -1    0    0  501    0 -0.00000000000E+00 -0.00000000000E+00 -0.38681717439E+02  0.38681717439E+02  0.00000000000E+00 0. -1.
         25    2    1    2    0    0  0.27581403453E+02  0.17236433466E+02  0.34616606503E+03  0.36947664323E+03  0.12499686739E+03 0.  0.
          2    1    1    2  501    0 -0.28033988283E+02  0.11692141345E+02 -0.17143637079E+02  0.34878574520E+02  0.00000000000E+00 0. -1.
          1    1    1    2  502    0  0.45258482993E+00 -0.28928574811E+02  0.20509338687E+03  0.20712403195E+03  0.00000000000E+00 0. -1.
         22    1    3    3    0    0 -0.40028783374E+02 -0.20486487657E+02  0.74737350714E+02  0.87221965506E+02  0.00000000000E+00 0. -1.
         22    1    3    3    0    0  0.67610186828E+02  0.37722921124E+02  0.27142871432E+03  0.28225467772E+03  0.00000000000E+00 0. -1.
</event>
<event>
 7    1  0.6219721E-006  0.8217881E+02  0.7818608E-02  0.1499512E+00
          2   -1    0    0  502    0  0.00000000000E+00  0.00000000000E+00  0.14781213634E+04  0.14781213634E+04  0.00000000000E+00 0. -1.
          1   -1    0    0  501    0 -0.00000000000E+00 -0.00000000000E+00 -0.52011725431E+02  0.52011725431E+02  0.00000000000E+00 0. -1.
         25    2    1    2    0    0 -0.64825067169E+02  0.27004851343E+02  0.93286511724E+03  0.94381426374E+03  0.12496593990E+03 0.  0.
          2    1    1    2  501    0 -0.20302680497E+02  0.38391593372E+01 -0.40224233780E+02  0.45220868666E+02  0.00000000000E+00 0. -1.
          1    1    1    2  502    0  0.85127747666E+02 -0.30844010681E+02  0.53346875454E+03  0.54109795646E+03  0.00000000000E+00 0. -1.
         22    1    3    3    0    0 -0.36299408106E+02  0.58259683837E+02  0.23905525434E+03  0.24871520343E+03  0.00000000000E+00 0. -1.
         22    1    3    3    0    0 -0.28525659064E+02 -0.31254832494E+02  0.69380986290E+03  0.69509906030E+03  0.00000000000E+00 0. -1.
</event>
<event>
 7    1  0.6219721E-006  0.1023273E+03  0.7818608E-02  0.1369721E+00
          2   -1    0    0  502    0  0.00000000000E+00  0.00000000000E+00  0.26753848691E+03  0.26753848691E+03  0.00000000000E+00 0. -1.
          1   -1    0    0  501    0 -0.00000000000E+00 -0.00000000000E+00 -0.26689389779E+04  0.26689389779E+04  0.00000000000E+00 0. -1.
         25    2    1    2    0    0  0.11653654616E+03 -0.99916609714E+01 -0.72507806218E+03  0.74501197703E+03  0.12499619906E+03 0.  0.
          2    1    1    2  501    0 -0.96931659824E+02 -0.29611663686E+02 -0.19306594769E+04  0.19333180321E+04  0.00000000000E+00 0. -1.
          1    1    1    2  502    0 -0.19604886333E+02  0.39603324657E+02  0.25433704807E+03  0.25814745575E+03  0.00000000000E+00 0. -1.
         22    1    3    3    0    0  0.10518798049E+03  0.22303396139E+02 -0.30236481293E+03  0.32091499313E+03  0.00000000000E+00 0.  1.
         22    1    3    3    0    0  0.11348565665E+02 -0.32295057110E+02 -0.42271324925E+03  0.42409698390E+03  0.00000000000E+00 0.  1.
</event>
<event>
 7    1  0.6219721E-006  0.4023142E+03  0.7818608E-02  0.1147167E+00
          2   -1    0    0  502    0  0.00000000000E+00  0.00000000000E+00  0.19633132475E+04  0.19633132475E+04  0.00000000000E+00 0. -1.
          1   -1    0    0  501    0 -0.00000000000E+00 -0.00000000000E+00 -0.10138262087E+04  0.10138262087E+04  0.00000000000E+00 0. -1.
         25    2    1    2    0    0 -0.18619879522E+03 -0.44481226442E+03  0.43617446004E+02  0.50005561193E+03  0.12500076601E+03 0.  0.
          2    1    1    2  501    0  0.11497486833E+03  0.37108800164E+03 -0.73588230753E+03  0.83213478226E+03  0.00000000000E+00 0. -1.
          1    1    1    2  502    0  0.71223926891E+02  0.73724262787E+02  0.16417519003E+04  0.16449490621E+04  0.00000000000E+00 0. -1.
         22    1    3    3    0    0 -0.19502464694E+03 -0.38823298948E+03  0.11971449988E+02  0.43462947743E+03  0.00000000000E+00 0.  1.
         22    1    3    3    0    0  0.88258517227E+01 -0.56579274947E+02  0.31645996016E+02  0.65426134503E+02  0.00000000000E+00 0.  1.
</event>
<event>
 7    1  0.6219721E-006  0.5393274E+02  0.7818608E-02  0.1527734E+00
          2   -1    0    0  502    0  0.00000000000E+00  0.00000000000E+00  0.18974864463E+02  0.18974864463E+02  0.00000000000E+00 0. -1.
          1   -1    0    0  501    0 -0.00000000000E+00 -0.00000000000E+00 -0.95478354565E+03  0.95478354565E+03  0.00000000000E+00 0. -1.
         25    2    1    2    0    0 -0.12549200254E+02 -0.32238793236E+02 -0.31710468597E+03  0.34260182957E+03  0.12499523809E+03 0.  0.
          2    1    1    2  501    0  0.36336382406E+02  0.42800508670E+02 -0.58897367708E+03  0.59164364995E+03  0.00000000000E+00 0. -1.
          1    1    1    2  502    0 -0.23787182152E+02 -0.10561715434E+02 -0.29730318131E+02  0.39512930590E+02  0.00000000000E+00 0. -1.
         22    1    3    3    0    0  0.22854439354E+02  0.41728478341E+02 -0.10959002943E+03  0.11947202959E+03  0.00000000000E+00 0. -1.
         22    1    3    3    0    0 -0.35403639609E+02 -0.73967271577E+02 -0.20751465654E+03  0.22312979999E+03  0.00000000000E+00 0. -1.
</event>
<event>
 7    1  0.6219721E-006  0.4994558E+02  0.7818608E-02  0.1569708E+00
          2   -1    0    0  502    0  0.00000000000E+00  0.00000000000E+00  0.45092701774E+03  0.45092701774E+03  0.00000000000E+00 0. -1.
          1   -1    0    0  501    0 -0.00000000000E+00 -0.00000000000E+00 -0.12061041449E+03  0.12061041449E+03  0.00000000000E+00 0. -1.
         25    2    1    2    0    0 -0.68589487423E+02 -0.15776108683E+02  0.28111449539E+02  0.14617424061E+03  0.12499300633E+03 0.  0.
          2    1    1    2  501    0  0.21417509057E+02  0.12161297545E+01 -0.57974435751E+02  0.61816048616E+02  0.00000000000E+00 0. -1.
          1    1    1    2  502    0  0.47171978366E+02  0.14559978929E+02  0.36017958946E+03  0.36354714301E+03  0.00000000000E+00 0. -1.
         22    1    3    3    0    0  0.27243610190E+02  0.11485593547E+02  0.35578317070E+02  0.46259591447E+02  0.00000000000E+00 0. -1.
         22    1    3    3    0    0 -0.95833097613E+02 -0.27261702230E+02 -0.74668675308E+01  0.99914649162E+02  0.00000000000E+00 0. -1.
</event>
<event>
 7    1  0.6219721E-006  0.2711553E+03  0.7818608E-02  0.1206627E+00
          2   -1    0    0  502    0  0.00000000000E+00  0.00000000000E+00  0.33081388002E+03  0.33081388002E+03  0.00000000000E+00 0. -1.
          1   -1    0    0  501    0 -0.00000000000E+00 -0.00000000000E+00 -0.54261734366E+03  0.54261734366E+03  0.00000000000E+00 0. -1.
         25    2    1    2    0    0 -0.32881682555E+03 -0.16182943392E+01 -0.26743529083E+03  0.44188935364E+03  0.12498576894E+03 0.  0.
          2    1    1    2  501    0  0.71211280546E+02 -0.30948190575E+02 -0.10169031993E+03  0.12794435566E+03  0.00000000000E+00 0. -1.
          1    1    1    2  502    0  0.25760554501E+03  0.32566484914E+02  0.15732214712E+03  0.30359751437E+03  0.00000000000E+00 0. -1.
         22    1    3    3    0    0 -0.33586945781E+02 -0.53234133933E+01  0.11315691820E+02  0.35839455051E+02  0.00000000000E+00 0.  1.
         22    1    3    3    0    0 -0.29522987977E+03  0.37051190541E+01 -0.27875098265E+03  0.40604989859E+03  0.00000000000E+00 0.  1.
</event>
<event>
 7    1  0.6219721E-006  0.5227095E+02  0.7818608E-02  0.1459353E+00
          2   -1    0    0  502    0  0.00000000000E+00  0.00000000000E+00  0.78077768537E+03  0.78077768537E+03  0.00000000000E+00 0. -1.
          1   -1    0    0  501    0 -0.00000000000E+00 -0.00000000000E+00 -0.16900532846E+03  0.16900532846E+03  0.00000000000E+00 0. -1.
         25    2    1    2    0    0 -0.63456546496E+02  0.61531591707E+02  0.12677948912E+03  0.19877331367E+03  0.12499968517E+03 0.  0.
          2    1    1    2  501    0  0.46398287054E+02 -0.21894682279E+02 -0.12727324137E+03  0.13722483785E+03  0.00000000000E+00 0. -1.
          1    1    1    2  502    0  0.17058259442E+02 -0.39636909427E+02  0.61226610915E+03  0.61378486232E+03  0.00000000000E+00 0. -1.
         22    1    3    3    0    0 -0.10120052677E+03  0.35525716241E+02  0.89426270395E+02  0.13964483868E+03  0.00000000000E+00 0.  1.
         22    1    3    3    0    0  0.37743980271E+02  0.26005875466E+02  0.37353218728E+02  0.59128474991E+02  0.00000000000E+00 0.  1.
</event>
<event>
 7    1  0.6219721E-006  0.9463331E+02  0.7818608E-02  0.1293001E+00
          2   -1    0    0  502    0  0.00000000000E+00  0.00000000000E+00  0.11705213590E+04  0.11705213590E+04  0.00000000000E+00 0. -1.
          1   -1    0    0  501    0 -0.00000000000E+00 -0.00000000000E+00 -0.32043026003E+03  0.32043026003E+03  0.00000000000E+00 0. -1.
         25    2    1    2    0    0 -0.40618412619E+02 -0.44420753287E+02  0.18351684967E+03  0.23006969538E+03  0.12502228542E+03 0.  0.
          2    1    1    2  501    0  0.91077785964E+02 -0.34599664812E+02 -0.28680603257E+03  0.30290262498E+03  0.00000000000E+00 0. -1.
          1    1    1    2  502    0 -0.50459373345E+02  0.79020418099E+02  0.95338028188E+03  0.95797929869E+03  0.00000000000E+00 0. -1.
         22    1    3    3    0    0  0.22016520441E+01 -0.13930355746E+02  0.17647050924E+03  0.17703316841E+03  0.00000000000E+00 0. -1.
         22    1    3    3    0    0 -0.42820064663E+02 -0.30490397541E+02  0.70463404273E+01  0.53036526973E+02  0.00000000000E+00 0. -1.
</event>
<event>
 7    1  0.8633380E-006  0.5323593E+02  0.7818608E-02  0.1443801E+00
          2   -1    0    0  502    0  0.00000000000E+00  0.00000000000E+00  0.11188176745E+04  0.11188176745E+04  0.00000000000E+00 0. -1.
          1   -1    0    0  501    0 -0.00000000000E+00 -0.00000000000E+00 -0.83992324656E+03  0.83992324656E+03  0.00000000000E+00 0. -1.
         25    2    1    2    0    0 -0.52866806362E+02 -0.60345139872E+02 -0.32969442508E+03  0.36160704550E+03  0.12499922525E+03 0.  0.
          2    1    1    2  501    0  0.50365042090E+02  0.12910177249E+02 -0.49239166709E+03  0.49512913867E+03  0.00000000000E+00 0. -1.
          1    1    1    2  502    0  0.25017642717E+01  0.47434962623E+02  0.11009805201E+04  0.11020047369E+04  0.00000000000E+00 0. -1.
         22    1    3    3    0    0  0.32385894256E+02 -0.33577875219E+02 -0.51851308533E+02  0.69748677748E+02  0.00000000000E+00 0. -1.
         22    1    3    3    0    0 -0.85252700618E+02 -0.26767264652E+02 -0.27784311654E+03  0.29185836776E+03  0.00000000000E+00 0. -1.
</event>
<event>
 7    1  0.6219721E-006  0.7984254E+02  0.7818608E-02  0.1334130E+00
          2   -1    0    0  502    0  0.00000000000E+00  0.00000000000E+00  0.14395007864E+03  0.14395007864E+03  0.00000000000E+00 0. -1.
          1   -1    0    0  501    0 -0.00000000000E+00 -0.00000000000E+00 -0.17328764367E+04  0.17328764367E+04  0.00000000000E+00 0. -1.
         25    2    1    2    0    0  0.38915128879E+02 -0.59333926382E+02 -0.64450815651E+03  0.66034134597E+03  0.12500010925E+03 0.  0.
          2    1    1    2  501    0 -0.88205960813E+02  0.61631631961E+00 -0.10676852778E+04  0.10713227916E+04  0.00000000000E+00 0. -1.
          1    1    1    2  502    0  0.49290831934E+02  0.58717610062E+02  0.12326707623E+03  0.14516237780E+03  0.00000000000E+00 0. -1.
         22    1    3    3    0    0  0.97291148274E+01 -0.88483049539E+02 -0.55093185888E+03  0.55807689332E+03  0.00000000000E+00 0. -1.
         22    1    3    3    0    0  0.29186014052E+02  0.29149123157E+02 -0.93576297628E+02  0.10226445265E+03  0.00000000000E+00 0. -1.
</event>
<event>
 7    1  0.6219721E-006  0.6740193E+02  0.7818608E-02  0.1458931E+00
          2   -1    0    0  502    0  0.00000000000E+00  0.00000000000E+00  0.62492429220E+03  0.62492429220E+03  0.00000000000E+00 0. -1.
          1   -1    0    0  501    0 -0.00000000000E+00 -0.00000000000E+00 -0.41484399653E+03  0.41484399653E+03  0.00000000000E+00 0. -1.
         25    2    1    2    0    0  0.34891215595E+02 -0.86591381065E+02  0.34559080599E+02  0.15979308121E+03  0.12499613814E+03 0.  0.
          2    1    1    2  501    0 -0.39893130166E+02  0.53398697566E+02 -0.34853178036E+03  0.35484825582E+03  0.00000000000E+00 0. -1.
          1    1    1    2  502    0  0.50019145717E+01  0.33192683499E+02  0.52405299544E+03  0.52512695171E+03  0.00000000000E+00 0. -1.
         22    1    3    3    0    0  0.75744921457E+02 -0.29028018806E+02 -0.18818791699E+00  0.81116918192E+02  0.00000000000E+00 0.  1.
         22    1    3    3    0    0 -0.40853705862E+02 -0.57563362259E+02  0.34747268516E+02  0.78676163014E+02  0.00000000000E+00 0.  1.
</event>
<event>
 7    1  0.6219721E-006  0.1115978E+03  0.7818608E-02  0.1412275E+00
          2   -1    0    0  502    0  0.00000000000E+00  0.00000000000E+00  0.22119571868E+03  0.22119571868E+03  0.00000000000E+00 0. -1.
          1   -1    0    0  501    0 -0.00000000000E+00 -0.00000000000E+00 -0.32503286932E+03  0.32503286932E+03  0.00000000000E+00 0. -1.
         25    2    1    2    0    0 -0.79806045102E+02  0.56388053513E+02  0.28839822931E+02  0.16126446041E+03  0.12500349352E+03 0.  0.
          2    1    1    2  501    0  0.75692853203E+02 -0.84889711297E+02 -0.24441136024E+03  0.26957853053E+03  0.00000000000E+00 0. -1.
          1    1    1    2  502    0  0.41131918987E+01  0.28501657785E+02  0.11173438666E+03  0.11538559705E+03  0.00000000000E+00 0. -1.
         22    1    3    3    0    0 -0.29669214807E+02 -0.27171487891E+02  0.47288405254E+02  0.62086595437E+02  0.00000000000E+00 0.  1.
         22    1    3    3    0    0 -0.50136830294E+02  0.83559541404E+02 -0.18448582324E+02  0.99177864977E+02  0.00000000000E+00 0.  1.
</event>
<event>
 7    1  0.6219721E-006  0.6123859E+02  0.7818608E-02  0.1405401E+00
          2   -1    0    0  502    0  0.00000000000E+00  0.00000000000E+00  0.32192709759E+04  0.32192709759E+04  0.00000000000E+00 0. -1.
          1   -1    0    0  501    0 -0.00000000000E+00 -0.00000000000E+00 -0.66017985119E+03  0.66017985119E+03  0.00000000000E+00 0. -1.
         25    2    1    2    0    0  0.76537090163E+02  0.36957701414E+02  0.86083144176E+02  0.17395941999E+03  0.12501109642E+03 0.  0.
          2    1    1    2  501    0 -0.51972044544E+02  0.19111601270E+02 -0.61469376178E+03  0.61718292871E+03  0.00000000000E+00 0. -1.
          1    1    1    2  502    0 -0.24565045619E+02 -0.56069302684E+02  0.30877017423E+04  0.30883084784E+04  0.00000000000E+00 0. -1.
         22    1    3    3    0    0  0.48795335844E+02 -0.34060310053E+02  0.76794099452E+02  0.97151547757E+02  0.00000000000E+00 0. -1.
         22    1    3    3    0    0  0.27741754319E+02  0.71018011466E+02  0.92890447241E+01  0.76807872235E+02  0.00000000000E+00 0. -1.
</event>
<event>
 7    1  0.6219721E-006  0.9617775E+02  0.7818608E-02  0.1291871E+00
          2   -1    0    0  502    0  0.00000000000E+00  0.00000000000E+00  0.20304527198E+03  0.20304527198E+03  0.00000000000E+00 0. -1.
          1   -1    0    0  501    0 -0.00000000000E+00 -0.00000000000E+00 -0.86646750868E+03  0.86646750868E+03  0.00000000000E+00 0. -1.
         25    2    1    2    0    0  0.39499856280E+02  0.53817576341E+02 -0.13450625267E+03  0.19538094653E+03  0.12500084836E+03 0.  0.
          2    1    1    2  501    0  0.61356703624E+02 -0.70193305131E+02 -0.68295300951E+03  0.68928699274E+03  0.00000000000E+00 0. -1.
          1    1    1    2  502    0 -0.10085655990E+03  0.16375728790E+02  0.15403702548E+03  0.18484484139E+03  0.00000000000E+00 0. -1.
         22    1    3    3    0    0 -0.11078733106E+02  0.34871253812E+02 -0.13651464459E+03  0.14133290790E+03  0.00000000000E+00 0.  1.
         22    1    3    3    0    0  0.50578589385E+02  0.18946322529E+02  0.20083919128E+01  0.54048038629E+02  0.00000000000E+00 0.  1.
</event>
<event>
 7    1  0.6219721E-006  0.8163741E+02  0.7818608E-02  0.1466763E+00
          2   -1    0    0  502    0  0.00000000000E+00  0.00000000000E+00  0.80982832895E+03  0.80982832895E+03  0.00000000000E+00 0. -1.
          1   -1    0    0  501    0 -0.00000000000E+00 -0.00000000000E+00 -0.42128850017E+02  0.42128850017E+02  0.00000000000E+00 0. -1.
         25    2    1    2    0    0 -0.63953047579E+02  0.43708863633E+02  0.14966277250E+03  0.20981949726E+03  0.12499927561E+03 0.  0.
          2    1    1    2  501    0 -0.15291987372E+02 -0.21258681568E+02  0.92018914994E+01  0.27757003206E+02  0.00000000000E+00 0. -1.
          1    1    1    2  502    0  0.79245034951E+02 -0.22450182065E+02  0.60883481493E+03  0.61438067849E+03  0.00000000000E+00 0. -1.
         22    1    3    3    0    0 -0.60866197740E+02  0.76497107201E+02  0.60975924201E+02  0.11521529746E+03  0.00000000000E+00 0. -1.
         22    1    3    3    0    0 -0.30868498394E+01 -0.32788243568E+02  0.88686848301E+02  0.94604199799E+02  0.00000000000E+00 0. -1.
</event>
<event>
 7    1  0.6219721E-006  0.1439082E+03  0.7818608E-02  0.1246999E+00
          2   -1    0    0  502    0  0.00000000000E+00  0.00000000000E+00  0.23025991096E+04  0.23025991096E+04  0.00000000000E+00 0. -1.
          1   -1    0    0  501    0 -0.00000000000E+00 -0.00000000000E+00 -0.46894853951E+03  0.46894853951E+03  0.00000000000E+00 0. -1.
         25    2    1    2    0    0 -0.45180609600E+01 -0.87564022873E+02  0.24725021719E+03  0.29059409344E+03  0.12499754503E+03 0.  0.
          2    1    1    2  501    0 -0.86270023204E+02  0.11939954118E+03 -0.43397253009E+03  0.45829130934E+03  0.00000000000E+00 0. -1.
          1    1    1    2  502    0  0.90788084164E+02 -0.31835518307E+02  0.20203728830E+04  0.20226622463E+04  0.00000000000E+00 0. -1.
         22    1    3    3    0    0  0.39743645562E+02 -0.23613022435E+01  0.21440842748E+02  0.45219938618E+02  0.00000000000E+00 0.  1.
         22    1    3    3    0    0 -0.44261706522E+02 -0.85202720629E+02  0.22580937444E+03  0.24537415482E+03  0.00000000000E+00 0.  1.
</event>
<event>
 7    1  0.6219721E-006  0.9034433E+02  0.7818608E-02  0.1386632E+00
          2   -1    0    0  502    0  0.00000000000E+00  0.00000000000E+00  0.16722531826E+02  0.16722531826E+02  0.00000000000E+00 0. -1.
          1   -1    0    0  501    0 -0.00000000000E+00 -0.00000000000E+00 -0.17806658516E+04  0.17806658516E+04  0.00000000000E+00 0. -1.
         25    2    1    2    0    0 -0.53362503474E+02  0.31172752057E+02 -0.76223250732E+03  0.77488417799E+03  0.12501118684E+03 0.  0.
          2    1    1    2  501    0  0.79386542446E+02 -0.66138069239E+02 -0.94668360958E+03  0.95230579331E+03  0.00000000000E+00 0. -1.
          1    1    1    2  502    0 -0.26024038973E+02  0.34965317182E+02 -0.55027202910E+02  0.70198412163E+02  0.00000000000E+00 0. -1.
         22    1    3    3    0    0  0.18374409819E+02  0.18351594702E+02 -0.54764415145E+03  0.54825953396E+03  0.00000000000E+00 0. -1.
         22    1    3    3    0    0 -0.71736913292E+02  0.12821157355E+02 -0.21458835587E+03  0.22662464403E+03  0.00000000000E+00 0. -1.
</event>
<event>
 7    1  0.6219721E-006  0.5353262E+02  0.7818608E-02  0.1469570E+00
          2   -1    0    0  502    0  0.00000000000E+00  0.00000000000E+00  0.10222600731E+04  0.10222600731E+04  0.00000000000E+00 0. -1.
          1   -1    0    0  501    0 -0.00000000000E+00 -0.00000000000E+00 -0.13571868416E+03  0.13571868416E+03  0.00000000000E+00 0. -1.
         25    2    1    2    0    0 -0.17425851711E+02 -0.61529556554E+01  0.65019167764E+02  0.14210617530E+03  0.12500061484E+03 0.  0.
          2    1    1    2  501    0  0.45100998054E+02  0.33828539844E+02 -0.88541852526E+02  0.10496727958E+03  0.00000000000E+00 0. -1.
          1    1    1    2  502    0 -0.27675146342E+02 -0.27675584189E+02  0.91006407369E+03  0.91090530238E+03  0.00000000000E+00 0. -1.
         22    1    3    3    0    0  0.37129911533E+02  0.11480121441E+02 -0.16683228699E+02  0.42293659555E+02  0.00000000000E+00 0. -1.
         22    1    3    3    0    0 -0.54555763244E+02 -0.17633077096E+02  0.81702396463E+02  0.99812515742E+02  0.00000000000E+00 0. -1.
</event>
<event>
 7    1  0.6219721E-006  0.3227820E+02  0.7818608E-02  0.1637769E+00
          2   -1    0    0  502    0  0.00000000000E+00  0.00000000000E+00  0.17160956254E+03  0.17160956254E+03  0.00000000000E+00 0. -1.
          1   -1    0    0  501    0 -0.00000000000E+00 -0.00000000000E+00 -0.51230538032E+03  0.51230538032E+03  0.00000000000E+00 0. -1.
         25    2    1    2    0    0  0.82222957868E+01  0.31326529363E+02  0.62808250180E+02  0.14359244681E+03  0.12499982760E+03 0.  0.
          2    1    1    2  501    0  0.13758835613E+02 -0.29242918620E+02 -0.46956167586E+03  0.47067252021E+03  0.00000000000E+00 0. -1.
          1    1    1    2  502    0 -0.21981131400E+02 -0.20836107433E+01  0.66057607901E+02  0.69649975829E+02  0.00000000000E+00 0. -1.
         22    1    3    3    0    0 -0.35279986987E+02  0.59918370889E+02  0.11458725608E+02  0.70471207201E+02  0.00000000000E+00 0.  1.
         22    1    3    3    0    0  0.43502282774E+02 -0.28591841526E+02  0.51349524572E+02  0.73121239610E+02  0.00000000000E+00 0.  1.
</event>
<event>
 7    1  0.6219721E-006  0.1660638E+03  0.7818608E-02  0.1254019E+00
          2   -1    0    0  502    0  0.00000000000E+00  0.00000000000E+00  0.87809330135E+03  0.87809330135E+03  0.00000000000E+00 0. -1.
          1   -1    0    0  501    0 -0.00000000000E+00 -0.00000000000E+00 -0.16498664458E+04  0.16498664458E+04  0.00000000000E+00 0. -1.
         25    2    1    2    0    0 -0.59260861520E+02  0.16152745216E+03  0.55890137792E+02  0.21989107382E+03  0.12500163732E+03 0.  0.
          2    1    1    2  501    0 -0.18372186827E+02 -0.16541601218E+03 -0.15613904292E+04  0.15702356723E+04  0.00000000000E+00 0. -1.
          1    1    1    2  502    0  0.77633048347E+02  0.38885600153E+01  0.73372714697E+03  0.73783300096E+03  0.00000000000E+00 0. -1.
         22    1    3    3    0    0 -0.91978556017E+02  0.15332260836E+03  0.44043958626E+02  0.18414056395E+03  0.00000000000E+00 0. -1.
         22    1    3    3    0    0  0.32717694498E+02  0.82048438052E+01  0.11846179166E+02  0.35750509870E+02  0.00000000000E+00 0. -1.
</event>
<event>
 7    1  0.6230270E-006  0.9246500E+02  0.7818608E-02  0.1418287E+00
          2   -1    0    0  502    0  0.00000000000E+00  0.00000000000E+00  0.11104756855E+04  0.11104756855E+04  0.00000000000E+00 0. -1.
          1   -1    0    0  501    0 -0.00000000000E+00 -0.00000000000E+00 -0.96567170794E+03  0.96567170794E+03  0.00000000000E+00 0. -1.
         25    2    1    2    0    0  0.50006407441E+02  0.40201332433E+02 -0.21839970669E+03  0.25969408469E+03  0.12500319125E+03 0.  0.
          2    1    1    2  501    0 -0.71316072818E+02 -0.65626763814E+02 -0.72313880139E+03  0.72960439996E+03  0.00000000000E+00 0. -1.
          1    1    1    2  502    0  0.21309665377E+02  0.25425431382E+02  0.10863424857E+04  0.10868489088E+04  0.00000000000E+00 0. -1.
         22    1    3    3    0    0  0.55156532656E+02  0.46694329827E+02 -0.42987959624E+02  0.84086670794E+02  0.00000000000E+00 0. -1.
         22    1    3    3    0    0 -0.51501252146E+01 -0.64929973941E+01 -0.17541174707E+03  0.17560741389E+03  0.00000000000E+00 0. -1.
</event>
<event>
 7    1  0.6219721E-006  0.6337295E+02  0.7818608E-02  0.1484530E+00
          2   -1    0    0  502    0  0.00000000000E+00  0.00000000000E+00  0.16429231505E+03  0.16429231505E+03  0.00000000000E+00 0. -1.
          1   -1    0    0  501    0 -0.00000000000E+00 -0.00000000000E+00 -0.99907249504E+03  0.99907249504E+03  0.00000000000E+00 0. -1.
         25    2    1    2    0    0 -0.40020072918E+02 -0.31269249019E+02 -0.61301795948E+03  0.62769038276E+03  0.12499930315E+03 0.  0.
          2    1    1    2  501    0  0.35371447756E+02  0.60636726591E+02 -0.37401483048E+03  0.38054572045E+03  0.00000000000E+00 0. -1.
          1    1    1    2  502    0  0.46486251612E+01 -0.29367477573E+02  0.15225260997E+03  0.15512870688E+03  0.00000000000E+00 0. -1.
         22    1    3    3    0    0  0.86368590433E+01 -0.60701325282E+02 -0.16401004499E+03  0.17509580544E+03  0.00000000000E+00 0.  1.
         22    1    3    3    0    0 -0.48656931961E+02  0.29432076263E+02 -0.44900791449E+03  0.45259457732E+03  0.00000000000E+00 0.  1.
</event>
<event>
 7    1  0.6219721E-006  0.1052407E+03  0.7818608E-02  0.1373983E+00
          2   -1    0    0  502    0  0.00000000000E+00  0.00000000000E+00  0.38582072199E+03  0.38582072199E+03  0.00000000000E+00 0. -1.
          1   -1    0    0  501    0 -0.00000000000E+00 -0.00000000000E+00 -0.74967644272E+03  0.74967644272E+03  0.00000000000E+00 0. -1.
         25    2    1    2    0    0  0.14547849208E+03  0.89836583024E+01  0.16094138996E+03  0.25054299972E+03  0.12499986372E+03 0.  0.
          2    1    1    2  501    0 -0.10400698679E+03 -0.99005127028E+01 -0.69854923616E+03  0.70631898515E+03  0.00000000000E+00 0. -1.
          1    1    1    2  502    0 -0.41471505295E+02  0.91685440041E+00  0.17375212547E+03  0.17863517984E+03  0.00000000000E+00 0. -1.
         22    1    3    3    0    0  0.62602404146E+02  0.45623014764E+02  0.13607536789E+03  0.15657913727E+03  0.00000000000E+00 0. -1.
         22    1    3    3    0    0  0.82876087936E+02 -0.36639356462E+02  0.24866022077E+02  0.93963862454E+02  0.00000000000E+00 0. -1.
</event>
<event>
 7    1  0.6219721E-006  0.6676518E+02  0.7818608E-02  0.1440461E+00
          2   -1    0    0  502    0  0.00000000000E+00  0.00000000000E+00  0.73553908127E+03  0.73553908127E+03  0.00000000000E+00 0. -1.
          1   -1    0    0  501    0 -0.00000000000E+00 -0.00000000000E+00 -0.10685204817E+04  0.10685204817E+04  0.00000000000E+00 0. -1.
         25    2    1    2    0    0  0.38865642440E+01 -0.34312443048E+02 -0.69155021009E+02  0.14697010673E+03  0.12500138484E+03 0.  0.
          2    1    1    2  501    0 -0.34171741713E+02  0.58613657890E+02 -0.95871702946E+03  0.96111477536E+03  0.00000000000E+00 0. -1.
          1    1    1    2  502    0  0.30285177469E+02 -0.24301214843E+02  0.69489065001E+03  0.69597468092E+03  0.00000000000E+00 0. -1.
         22    1    3    3    0    0  0.48948428473E+01  0.46396993609E+02 -0.12325174562E+02  0.48255056010E+02  0.00000000000E+00 0. -1.
         22    1    3    3    0    0 -0.10082786033E+01 -0.80709436657E+02 -0.56829846447E+02  0.98715050719E+02  0.00000000000E+00 0. -1.
</event>
<event>
 7    1  0.6219721E-006  0.1323001E+03  0.7818608E-02  0.1309294E+00
          2   -1    0    0  502    0  0.00000000000E+00  0.00000000000E+00  0.28097249643E+03  0.28097249643E+03  0.00000000000E+00 0. -1.
          1   -1    0    0  501    0 -0.00000000000E+00 -0.00000000000E+00 -0.20161997431E+03  0.20161997431E+03  0.00000000000E+00 0. -1.
         25    2    1    2    0    0  0.17303682620E+03  0.20471690575E+02 -0.77170436108E-01  0.21444151403E+03  0.12499729456E+03 0.  0.
          2    1    1    2  501    0 -0.11531026854E+03 -0.20668366636E+02 -0.49278072169E+02  0.12709039227E+03  0.00000000000E+00 0. -1.
          1    1    1    2  502    0 -0.57726557655E+02  0.19667606105E+00  0.12870776473E+03  0.14106056444E+03  0.00000000000E+00 0. -1.
         22    1    3    3    0    0  0.82328367332E+02  0.65471796043E+02 -0.29040891220E+02  0.10912327665E+03  0.00000000000E+00 0.  1.
         22    1    3    3    0    0  0.90708458867E+02 -0.45000105469E+02  0.28963720784E+02  0.10531823738E+03  0.00000000000E+00 0.  1.
</event>
<event>
 7    1  0.6219721E-006  0.6787567E+02  0.7818608E-02  0.1390140E+00
          2   -1    0    0  502    0  0.00000000000E+00  0.00000000000E+00  0.59420524299E+03  0.59420524299E+03  0.00000000000E+00 0. -1.
          1   -1    0    0  501    0 -0.00000000000E+00 -0.00000000000E+00 -0.52462413764E+03  0.52462413764E+03  0.00000000000E+00 0. -1.
         25    2    1    2    0    0 -0.15882734644E+02  0.81982024657E+02 -0.46175590414E+02  0.15725824365E+03  0.12499862566E+03 0.  0.
          2    1    1    2  501    0  0.54493521183E+02 -0.40871667367E+02 -0.41867076934E+03  0.42417596602E+03  0.00000000000E+00 0. -1.
          1    1    1    2  502    0 -0.38610786539E+02 -0.41110357290E+02  0.53442746511E+03  0.53739517097E+03  0.00000000000E+00 0. -1.
         22    1    3    3    0    0 -0.34055439715E+02  0.30772575162E+02 -0.80728477549E+02  0.92864478913E+02  0.00000000000E+00 0. -1.
         22    1    3    3    0    0  0.18172705071E+02  0.51209449495E+02  0.34552887135E+02  0.64393764734E+02  0.00000000000E+00 0. -1.
</event>
<event>
 7    1  0.6219721E-006  0.8115427E+02  0.7818608E-02  0.1474105E+00
          2   -1    0    0  502    0  0.00000000000E+00  0.00000000000E+00  0.22001402388E+04  0.22001402388E+04  0.00000000000E+00 0. -1.
          1   -1    0    0  501    0 -0.00000000000E+00 -0.00000000000E+00 -0.11132090620E+03  0.11132090620E+03  0.00000000000E+00 0. -1.
         25    2    1    2    0    0 -0.98929738231E+02  0.33083021226E+01  0.23526769806E+03  0.28420652638E+03  0.12499768765E+03 0.  0.
          2    1    1    2  501    0  0.20328870303E+02  0.14541727736E+02 -0.84197904023E+02  0.87829447540E+02  0.00000000000E+00 0. -1.
          1    1    1    2  502    0  0.78600867929E+02 -0.17850029858E+02  0.19377495385E+04  0.19394251710E+04  0.00000000000E+00 0. -1.
         22    1    3    3    0    0 -0.94661836219E+02  0.52689444085E+02  0.17889877332E+03  0.20914543230E+03  0.00000000000E+00 0.  1.
         22    1    3    3    0    0 -0.42679020120E+01 -0.49381141963E+02  0.56368924733E+02  0.75061094082E+02  0.00000000000E+00 0.  1.
</event>
<event>
 7    1  0.6219721E-006  0.7272482E+02  0.7818608E-02  0.1356104E+00
          2   -1    0    0  502    0  0.00000000000E+00  0.00000000000E+00  0.13805421113E+03  0.13805421113E+03  0.00000000000E+00 0. -1.
          1   -1    0    0  501    0 -0.00000000000E+00 -0.00000000000E+00 -0.15229162549E+04  0.15229162549E+04  0.00000000000E+00 0. -1.
         25    2    1    2    0    0 -0.44912640606E+02 -0.15850222720E+02 -0.92027993633E+02  0.16236495358E+03  0.12499940677E+03 0.  0.
          2    1    1    2  501    0  0.42077777879E+02 -0.59315762844E+02 -0.13808856948E+04  0.13827994074E+04  0.00000000000E+00 0. -1.
          1    1    1    2  502    0  0.28348627273E+01  0.75165985564E+02  0.88051644660E+02  0.11580610502E+03  0.00000000000E+00 0. -1.
         22    1    3    3    0    0 -0.88695689241E+02 -0.10100520643E+02 -0.56065380114E+02  0.10541476488E+03  0.00000000000E+00 0. -1.
         22    1    3    3    0    0  0.43783048635E+02 -0.57497020772E+01 -0.35962613518E+02  0.56950188699E+02  0.00000000000E+00 0. -1.
</event>
<event>
 7    1  0.6219721E-006  0.5431250E+02  0.7818608E-02  0.1448012E+00
          2   -1    0    0  502    0  0.00000000000E+00  0.00000000000E+00  0.32293715320E+04  0.32293715320E+04  0.00000000000E+00 0. -1.
          1   -1    0    0  501    0 -0.00000000000E+00 -0.00000000000E+00 -0.26589158218E+02  0.26589158218E+02  0.00000000000E+00 0. -1.
         25    2    1    2    0    0  0.23209578365E+02  0.60866130407E+01  0.28234589068E+03  0.30970856160E+03  0.12499783903E+03 0.  0.
          2    1    1    2  501    0  0.19720396312E+02 -0.40592337158E+02  0.27617721401E+02  0.52909076745E+02  0.00000000000E+00 0. -1.
          1    1    1    2  502    0 -0.42929974677E+02  0.34505724118E+02  0.28928187617E+04  0.28933430518E+04  0.00000000000E+00 0. -1.
         22    1    3    3    0    0 -0.50932852130E+02  0.10997815081E+02  0.98938528056E+02  0.11182101635E+03  0.00000000000E+00 0. -1.
         22    1    3    3    0    0  0.74142430495E+02 -0.49112020405E+01  0.18340736262E+03  0.19788754526E+03  0.00000000000E+00 0. -1.
</event>
<event>
 7    1  0.6219721E-006  0.4686119E+02  0.7818608E-02  0.1499939E+00
          2   -1    0    0  502    0  0.00000000000E+00  0.00000000000E+00  0.76456633553E+03  0.76456633553E+03  0.00000000000E+00 0. -1.
          1   -1    0    0  501    0 -0.00000000000E+00 -0.00000000000E+00 -0.18554060246E+04  0.18554060246E+04  0.00000000000E+00 0. -1.
         25    2    1    2    0    0 -0.88568899640E+01 -0.84522105505E+01  0.14749717203E+03  0.19372821612E+03  0.12500128641E+03 0.  0.
          2    1    1    2  501    0  0.44293966179E+02  0.15489183624E+02 -0.18314402946E+04  0.18320413267E+04  0.00000000000E+00 0. -1.
          1    1    1    2  502    0 -0.35437076215E+02 -0.70369730734E+01  0.59310343343E+03  0.59420281732E+03  0.00000000000E+00 0. -1.
         22    1    3    3    0    0 -0.40073484636E+02 -0.49669957015E+02  0.42457772903E+02  0.76652796952E+02  0.00000000000E+00 0.  1.
         22    1    3    3    0    0  0.31216594672E+02  0.41217746464E+02  0.10503939912E+03  0.11707541917E+03  0.00000000000E+00 0.  1.
</event>
<event>
 7    1  0.6219721E-006  0.9091800E+02  0.7818608E-02  0.1408557E+00
          2   -1    0    0  502    0  0.00000000000E+00  0.00000000000E+00  0.71915179322E+03  0.71915179322E+03  0.00000000000E+00 0. -1.
          1   -1    0    0  501    0 -0.00000000000E+00 -0.00000000000E+00 -0.11740346246E+04  0.11740346246E+04  0.00000000000E+00 0. -1.
         25    2    1    2    0    0 -0.67740634758E+02  0.72845373365E+02 -0.77268316691E+02  0.17745685932E+03  0.12500120855E+03 0.  0.
          2    1    1    2  501    0  0.33279368440E+02 -0.84525616226E+02 -0.10442038789E+04  0.10481478125E+04  0.00000000000E+00 0. -1.
          1    1    1    2  502    0  0.34461266317E+02  0.11680242861E+02  0.66658936427E+03  0.66758174593E+03  0.00000000000E+00 0. -1.
         22    1    3    3    0    0 -0.33962586487E+02  0.40825868952E+02  0.29668097786E+02  0.60830953328E+02  0.00000000000E+00 0.  1.
         22    1    3    3    0    0 -0.33778048271E+02  0.32019504413E+02 -0.10693641448E+03  0.11662590599E+03  0.00000000000E+00 0.  1.
</event>
<event>
 7    1  0.6219721E-006  0.9961148E+02  0.7818608E-02  0.1397952E+00
          2   -1    0    0  502    0  0.00000000000E+00  0.00000000000E+00  0.62064110188E+02  0.62064110188E+02  0.00000000000E+00 0. -1.
          1   -1    0    0  501    0 -0.00000000000E+00 -0.00000000000E+00 -0.20599411940E+04  0.20599411940E+04  0.00000000000E+00 0. -1.
         25    2    1    2    0    0 -0.70325737899E+02  0.17573048099E+02 -0.36610696278E+03  0.39359286567E+03  0.12500605697E+03 0.  0.
          2    1    1    2  501    0  0.91766309472E+02 -0.46623626277E+02 -0.16715350989E+04  0.16747012883E+04  0.00000000000E+00 0. -1.
          1    1    1    2  502    0 -0.21440571573E+02  0.29050578178E+02  0.39764977837E+02  0.53711150278E+02  0.00000000000E+00 0. -1.
         22    1    3    3    0    0  0.15412256164E+01  0.60678576606E+02 -0.15468373711E+03  0.16616655368E+03  0.00000000000E+00 0.  1.
         22    1    3    3    0    0 -0.71866963516E+02 -0.43105528507E+02 -0.21142322566E+03  0.22742631198E+03  0.00000000000E+00 0.  1.
</event>
<event>
 7    1  0.6219721E-006  0.1148128E+03  0.7818608E-02  0.1294172E+00
          2   -1    0    0  502    0  0.00000000000E+00  0.00000000000E+00  0.63185270815E+03  0.63185270815E+03  0.00000000000E+00 0. -1.
          1   -1    0    0  501    0 -0.00000000000E+00 -0.00000000000E+00 -0.89566033388E+03  0.89566033388E+03  0.00000000000E+00 0. -1.
         25    2    1    2    0    0 -0.84460534176E+02 -0.41324155576E+02  0.78954830181E+02  0.17521653063E+03  0.12500279888E+03 0.  0.
          2    1    1    2  501    0 -0.33200563929E+02  0.68854256726E+02 -0.83853394047E+03  0.84201089983E+03  0.00000000000E+00 0. -1.
          1    1    1    2  502    0  0.11766109810E+03 -0.27530101151E+02  0.49577148456E+03  0.51028561157E+03  0.00000000000E+00 0. -1.
         22    1    3    3    0    0 -0.96620583107E+02 -0.56185078765E+02  0.97649346194E+02  0.14841730010E+03  0.00000000000E+00 0. -1.
         22    1    3    3    0    0  0.12160048931E+02  0.14860923190E+02 -0.18694516013E+02  0.26799230530E+02  0.00000000000E+00 0. -1.
</event>
<event>
 7    1  0.6219721E-006  0.1019208E+03  0.7818608E-02  0.1369945E+00
          2   -1    0    0  502    0  0.00000000000E+00  0.00000000000E+00  0.19295284535E+04  0.19295284535E+04  0.00000000000E+00 0. -1.
          1   -1    0    0  501    0 -0.00000000000E+00 -0.00000000000E+00 -0.94022673890E+02  0.94022673890E+02  0.00000000000E+00 0. -1.
         25    2    1    2    0    0 -0.72218471141E+02  0.74684415760E+02  0.14612084102E+04  0.14702203390E+04  0.12499823035E+03 0.  0.
          2    1    1    2  501    0  0.33611473464E+02 -0.96377453263E+02 -0.58920290705E+02  0.11785561210E+03  0.00000000000E+00 0. -1.
          1    1    1    2  502    0  0.38606997677E+02  0.21693037503E+02  0.43321766009E+03  0.43547517628E+03  0.00000000000E+00 0. -1.
         22    1    3    3    0    0  0.18510551935E+02  0.68957841730E+01  0.41074899767E+02  0.45577842898E+02  0.00000000000E+00 0.  1.
         22    1    3    3    0    0 -0.90729023076E+02  0.67788631587E+02  0.14201335104E+04  0.14246424961E+04  0.00000000000E+00 0.  1.
</event>
<event>
 7    1  0.6219721E-006  0.3962460E+02  0.7818608E-02  0.1527956E+00
          2   -1    0    0  502    0  0.00000000000E+00  0.00000000000E+00  0.12109558559E+04  0.12109558559E+04  0.00000000000E+00 0. -1.
          1   -1    0    0  501    0 -0.00000000000E+00 -0.00000000000E+00 -0.40478095804E+03  0.40478095804E+03  0.00000000000E+00 0. -1.
         25    2    1    2    0    0  0.17775589310E+02 -0.72617429097E+01  0.88666779123E+02  0.15445361815E+03  0.12500167180E+03 0.  0.
          2    1    1    2  501    0 -0.30467737927E+02 -0.25755273710E+02 -0.37052933489E+03  0.37267090736E+03  0.00000000000E+00 0. -1.
          1    1    1    2  502    0  0.12692148617E+02  0.33017016619E+02  0.10880374536E+04  0.10886122884E+04  0.00000000000E+00 0. -1.
         22    1    3    3    0    0 -0.19116557587E+01  0.55650106680E+02  0.62026016004E+02  0.83353556989E+02  0.00000000000E+00 0. -1.
         22    1    3    3    0    0  0.19687245069E+02 -0.62911849590E+02  0.26640763118E+02  0.71100061159E+02  0.00000000000E+00 0. -1.
</event>
<event>
 7    1  0.6219721E-006  0.4943773E+02  0.7818608E-02  0.1494566E+00
          2   -1    0    0  502    0  0.00000000000E+00  0.00000000000E+00  0.16336408183E+04  0.16336408183E+04  0.00000000000E+00 0. -1.
          1   -1    0    0  501    0 -0.00000000000E+00 -0.00000000000E+00 -0.13411211408E+03  0.13411211408E+03  0.00000000000E+00 0. -1.
         25    2    1    2    0    0 -0.77470417723E+02  0.10921863957E+02  0.61719057964E+00  0.14746533796E+03  0.12499876896E+03 0.  0.
          2    1    1    2  501    0  0.33598438711E+02  0.11582526343E+02 -0.55060393001E+02  0.65533631653E+02  0.00000000000E+00 0. -1.
          1    1    1    2  502    0  0.43871979012E+02 -0.22504390300E+02  0.15539719066E+04  0.15547539627E+04  0.00000000000E+00 0. -1.
         22    1    3    3    0    0 -0.81656184070E+02 -0.85550793701E+01  0.48671356670E+02  0.95445391403E+02  0.00000000000E+00 0.  1.
         22    1    3    3    0    0  0.41857663475E+01  0.19476943327E+02 -0.48054166091E+02  0.52019946558E+02  0.00000000000E+00 0.  1.
</event>
<event>
 7    1  0.6219721E-006  0.8963793E+02  0.7818608E-02  0.1331218E+00
          2   -1    0    0  502    0  0.00000000000E+00  0.00000000000E+00  0.68216133568E+03  0.68216133568E+03  0.00000000000E+00 0. -1.
          1   -1    0    0  501    0 -0.00000000000E+00 -0.00000000000E+00 -0.69077708010E+02  0.69077708010E+02  0.00000000000E+00 0. -1.
         25    2    1    2    0    0 -0.48018160470E+02 -0.22801055920E+02  0.16850907685E+03  0.21643964522E+03  0.12500071662E+03 0.  0.
          2    1    1    2  501    0  0.49312468752E+02  0.92840072888E+02  0.23215008853E+02  0.10765656201E+03  0.00000000000E+00 0. -1.
          1    1    1    2  502    0 -0.12943082817E+01 -0.70039016968E+02  0.42135954196E+03  0.42714283646E+03  0.00000000000E+00 0. -1.
         22    1    3    3    0    0  0.11524165488E+02 -0.23323358671E+02  0.15260651576E+03  0.15480805568E+03  0.00000000000E+00 0. -1.
         22    1    3    3    0    0 -0.59542325958E+02  0.52230275198E+00  0.15902561095E+02  0.61631589546E+02  0.00000000000E+00 0. -1.
</event>
<event>
 7    1  0.6219721E-006  0.8782119E+02  0.7818608E-02  0.1333071E+00
          2   -1    0    0  502    0  0.00000000000E+00  0.00000000000E+00  0.96065100374E+03  0.96065100374E+03  0.00000000000E+00 0. -1.
          1   -1    0    0  501    0 -0.00000000000E+00 -0.00000000000E+00 -0.53633775701E+03  0.53633775701E+03  0.00000000000E+00 0. -1.
         25    2    1    2    0    0  0.51813103916E+02  0.46271288709E+02  0.10150919660E+03  0.17537070146E+03  0.12500054415E+03 0.  0.
          2    1    1    2  501    0  0.40869547653E+01 -0.88979549063E+02 -0.49391114765E+03  0.50187875540E+03  0.00000000000E+00 0. -1.
          1    1    1    2  502    0 -0.55900058682E+02  0.42708260354E+02  0.81671519778E+03  0.81973930389E+03  0.00000000000E+00 0. -1.
         22    1    3    3    0    0  0.73303021007E+02  0.39931103828E+02  0.12009800768E+03  0.14625784557E+03  0.00000000000E+00 0.  1.
         22    1    3    3    0    0 -0.21489917091E+02  0.63401848809E+01 -0.18588811076E+02  0.29112855891E+02  0.00000000000E+00 0.  1.
</event>
<event>
 7    1  0.6219721E-006  0.7450159E+02  0.7818608E-02  0.1396257E+00
          2   -1    0    0  502    0  0.00000000000E+00  0.00000000000E+00  0.90244822108E+03  0.90244822108E+03  0.00000000000E+00 0. -1.
          1   -1    0    0  501    0 -0.00000000000E+00 -0.00000000000E+00 -0.76274631558E+03  0.76274631558E+03  0.00000000000E+00 0. -1.
         25    2    1    2    0    0 -0.73675554579E+02 -0.74510479383E+02  0.90603825767E+02  0.18658665071E+03  0.12500250437E+03 0.  0.
          2    1    1    2  501    0  0.46167880140E+01  0.48711718350E+02 -0.71213474437E+03  0.71381372946E+03  0.00000000000E+00 0. -1.
          1    1    1    2  502    0  0.69058766565E+02  0.25798761033E+02  0.76123282410E+03  0.76479415648E+03  0.00000000000E+00 0. -1.
         22    1    3    3    0    0 -0.17013493693E+02 -0.84436138065E+02  0.87996404154E+01  0.86581487920E+02  0.00000000000E+00 0. -1.
         22    1    3    3    0    0 -0.56662060886E+02  0.99256586817E+01  0.81804185351E+02  0.10000516279E+03  0.00000000000E+00 0. -1.
</event>
<event>
 7    1  0.6219721E-006  0.6782685E+02  0.7818608E-02  0.1423790E+00
          2   -1    0    0  502    0  0.00000000000E+00  0.00000000000E+00  0.33829407271E+03  0.33829407271E+03  0.00000000000E+00 0. -1.
          1   -1    0    0  501    0 -0.00000000000E+00 -0.00000000000E+00 -0.45796271408E+03  0.45796271408E+03  0.00000000000E+00 0. -1.
         25    2    1    2    0    0 -0.94167743338E+02  0.56514700232E+02  0.46590529759E+02  0.17279205412E+03  0.12499976510E+03 0.  0.
          2    1    1    2  501    0  0.59092250707E+02 -0.31033572564E+02 -0.38994509166E+03  0.39561616654E+03  0.00000000000E+00 0. -1.
          1    1    1    2  502    0  0.35075492631E+02 -0.25481127668E+02  0.22368592053E+03  0.22784856614E+03  0.00000000000E+00 0. -1.
         22    1    3    3    0    0 -0.11852063059E+03  0.17075635279E+02  0.38175178046E+02  0.12568238307E+03  0.00000000000E+00 0.  1.
         22    1    3    3    0    0  0.24352887251E+02  0.39439064952E+02  0.84153517130E+01  0.47109671047E+02  0.00000000000E+00 0.  1.
</event>
<event>
 7    1  0.6219721E-006  0.1125132E+03  0.7818608E-02  0.1278825E+00
          2   -1    0    0  502    0  0.00000000000E+00  0.00000000000E+00  0.19385411436E+04  0.19385411436E+04  0.00000000000E+00 0. -1.
          1   -1    0    0  501    0 -0.00000000000E+00 -0.00000000000E+00 -0.47042053377E+02  0.47042053377E+02  0.00000000000E+00 0. -1.
         25    2    1    2    0    0  0.88397007675E+02 -0.58894366189E+02  0.44012775037E+03  0.46969884314E+03  0.12498795650E+03 0.  0.
          2    1    1    2  501    0  0.27036311430E+02  0.85981870101E+02  0.38440594678E+02  0.97987363680E+02  0.00000000000E+00 0. -1.
          1    1    1    2  502    0 -0.11543331910E+03 -0.27087503912E+02  0.14129307452E+04  0.14178969902E+04  0.00000000000E+00 0. -1.
         22    1    3    3    0    0 -0.28791696583E+01 -0.64547623187E+02  0.25711554231E+03  0.26510957617E+03  0.00000000000E+00 0. -1.
         22    1    3    3    0    0  0.91276177334E+02  0.56532569989E+01  0.18301220805E+03  0.20458926697E+03  0.00000000000E+00 0. -1.
</event>
<event>
 7    1  0.6219721E-006  0.1324596E+03  0.7818608E-02  0.1321558E+00
          2   -1    0    0  502    0  0.00000000000E+00  0.00000000000E+00  0.37978672206E+04  0.37978672206E+04  0.00000000000E+00 0. -1.
          1   -1    0    0  501    0 -0.00000000000E+00 -0.00000000000E+00 -0.17673710456E+04  0.17673710456E+04  0.00000000000E+00 0. -1.
         25    2    1    2    0    0  0.79116664910E+02  0.93828200290E+02 -0.99835015163E+02  0.20163277603E+03  0.12500227310E+03 0.  0.
          2    1    1    2  501    0 -0.39874123119E+02 -0.12738483205E+03 -0.16137036050E+04  0.16192146757E+04  0.00000000000E+00 0. -1.
          1    1    1    2  502    0 -0.39242541791E+02  0.33556631757E+02  0.37440347951E+04  0.37443908145E+04  0.00000000000E+00 0. -1.
         22    1    3    3    0    0  0.24564034668E+01 -0.10270991321E+02  0.21738872162E+02  0.24168279698E+02  0.00000000000E+00 0. -1.
         22    1    3    3    0    0  0.76660261443E+02  0.10409919161E+03 -0.12157388732E+03  0.17746449633E+03  0.00000000000E+00 0. -1.
</event>
<event>
 7    1  0.6219721E-006  0.8702390E+02  0.7818608E-02  0.1326550E+00
          2   -1    0    0  502    0  0.00000000000E+00  0.00000000000E+00  0.41439789156E+03  0.41439789156E+03  0.00000000000E+00 0. -1.
          1   -1    0    0  501    0 -0.00000000000E+00 -0.00000000000E+00 -0.17586182335E+04  0.17586182335E+04  0.00000000000E+00 0. -1.
         25    2    1    2    0    0  0.13622613028E+03  0.78926900168E+02  0.23403654075E+03  0.30852072647E+03  0.12499968845E+03 0.  0.
          2    1    1    2  501    0 -0.82737595001E+02 -0.26090306758E+02 -0.17103261369E+04  0.17125249511E+04  0.00000000000E+00 0. -1.
          1    1    1    2  502    0 -0.53488535276E+02 -0.52836593410E+02  0.13206925418E+03  0.15197044748E+03  0.00000000000E+00 0. -1.
         22    1    3    3    0    0  0.14487987648E+03  0.57180155928E+02  0.23834263578E+03  0.28472260337E+03  0.00000000000E+00 0.  1.
         22    1    3    3    0    0 -0.86537462053E+01  0.21746744239E+02 -0.43060950285E+01  0.23798123094E+02  0.00000000000E+00 0.  1.
</event>
<event>
 7    1  0.6219721E-006  0.1893187E+03  0.7818608E-02  0.1193403E+00
          2   -1    0    0  502    0  0.00000000000E+00  0.00000000000E+00  0.17365099890E+04  0.17365099890E+04  0.00000000000E+00 0. -1.
          1   -1    0    0  501    0 -0.00000000000E+00 -0.00000000000E+00 -0.41955584419E+03  0.41955584419E+03  0.00000000000E+00 0. -1.
         25    2    1    2    0    0  0.22384131135E+03 -0.15800409580E+03 -0.39093258321E+02  0.30368192477E+03  0.12499680646E+03 0.  0.
          2    1    1    2  501    0 -0.16757994040E+03  0.42606023175E+02 -0.21510987555E+03  0.27599015959E+03  0.00000000000E+00 0. -1.
          1    1    1    2  502    0 -0.56261370952E+02  0.11539807262E+03  0.15711572786E+04  0.15763937488E+04  0.00000000000E+00 0. -1.
         22    1    3    3    0    0  0.12189014237E+03 -0.77268327833E+02  0.42145265073E+02  0.15034568388E+03  0.00000000000E+00 0.  1.
         22    1    3    3    0    0  0.10195116899E+03 -0.80735767966E+02 -0.81238523394E+02  0.15333624089E+03  0.00000000000E+00 0.  1.
</event>
<event>
 7    1  0.6219721E-006  0.1286925E+03  0.7818608E-02  0.1265971E+00
          2   -1    0    0  502    0  0.00000000000E+00  0.00000000000E+00  0.63192421385E+03  0.63192421385E+03  0.00000000000E+00 0. -1.
          1   -1    0    0  501    0 -0.00000000000E+00 -0.00000000000E+00 -0.97122860609E+03  0.97122860609E+03  0.00000000000E+00 0. -1.
         25    2    1    2    0    0  0.16600427606E+01  0.21352466780E+03 -0.62790657577E+02  0.25527213393E+03  0.12500262470E+03 0.  0.
          2    1    1    2  501    0  0.26950633383E+01 -0.12444406029E+03 -0.80366034751E+03  0.81324260935E+03  0.00000000000E+00 0. -1.
          1    1    1    2  502    0 -0.43551060989E+01 -0.89080607507E+02  0.52714661284E+03  0.53463807666E+03  0.00000000000E+00 0. -1.
         22    1    3    3    0    0 -0.61104392287E+02  0.12190819619E+03 -0.35779865641E+02  0.14098068605E+03  0.00000000000E+00 0. -1.
         22    1    3    3    0    0  0.62764435048E+02  0.91616471610E+02 -0.27010791936E+02  0.11429144788E+03  0.00000000000E+00 0. -1.
</event>
<event>
 7    1  0.6219721E-006  0.2695807E+03  0.7818608E-02  0.1171643E+00
          2   -1    0    0  502    0  0.00000000000E+00  0.00000000000E+00  0.15214957787E+04  0.15214957787E+04  0.00000000000E+00 0. -1.
          1   -1    0    0  501    0 -0.00000000000E+00 -0.00000000000E+00 -0.35686543313E+04  0.35686543313E+04  0.00000000000E+00 0. -1.
         25    2    1    2    0    0 -0.14228768569E+03  0.28196907953E+03  0.94409272194E+03  0.10033392944E+04  0.12500529899E+03 0.  0.
          2    1    1    2  501    0 -0.21964417068E+02 -0.11290402879E+03 -0.35126883760E+04  0.35145710097E+04  0.00000000000E+00 0. -1.
          1    1    1    2  502    0  0.16425210275E+03 -0.16906505074E+03  0.52143710143E+03  0.57223980584E+03  0.00000000000E+00 0. -1.
         22    1    3    3    0    0 -0.11874539836E+03  0.22381735424E+03  0.56660364419E+03  0.62067251212E+03  0.00000000000E+00 0. -1.
         22    1    3    3    0    0 -0.23542287328E+02  0.58151725286E+02  0.37748907775E+03  0.38266678229E+03  0.00000000000E+00 0. -1.
</event>
<event>
 7    1  0.6219721E-006  0.2470296E+03  0.7818608E-02  0.1183849E+00
          2   -1    0    0  502    0  0.00000000000E+00  0.00000000000E+00  0.32027530378E+04  0.32027530378E+04  0.00000000000E+00 0. -1.
          1   -1    0    0  501    0 -0.00000000000E+00 -0.00000000000E+00 -0.20269927016E+03  0.20269927016E+03  0.00000000000E+00 0. -1.
         25    2    1    2    0    0 -0.15150540338E+03 -0.17385516438E+03  0.72342167083E+03  0.76950846092E+03  0.12499940867E+03 0.  0.
          2    1    1    2  501    0  0.23116900596E+03  0.98917931296E+02 -0.89790817001E+02  0.26699486374E+03  0.00000000000E+00 0. -1.
          1    1    1    2  502    0 -0.79663602579E+02  0.74937233088E+02  0.23664229138E+04  0.23689489833E+04  0.00000000000E+00 0. -1.
         22    1    3    3    0    0 -0.38482943447E+02 -0.14180315715E+02  0.30345126658E+03  0.30621020472E+03  0.00000000000E+00 0. -1.
         22    1    3    3    0    0 -0.11302245993E+03 -0.15967484867E+03  0.41997040425E+03  0.46329825619E+03  0.00000000000E+00 0. -1.
</event>
<event>
 7    1  0.6219721E-006  0.1411631E+03  0.7818608E-02  0.1294463E+00
          2   -1    0    0  502    0  0.00000000000E+00  0.00000000000E+00  0.21170338979E+04  0.21170338979E+04  0.00000000000E+00 0. -1.
          1   -1    0    0  501    0 -0.00000000000E+00 -0.00000000000E+00 -0.18203911925E+03  0.18203911925E+03  0.00000000000E+00 0. -1.
         25    2    1    2    0    0 -0.29892686982E+01  0.89881457913E+02  0.23201308131E+03  0.27846579699E+03  0.12500207194E+03 0.  0.
          2    1    1    2  501    0  0.31510961366E+02 -0.14493596733E+03 -0.12354062272E+03  0.19303279715E+03  0.00000000000E+00 0. -1.
          1    1    1    2  502    0 -0.28521692668E+02  0.55054509419E+02  0.18265223200E+04  0.18275744230E+04  0.00000000000E+00 0. -1.
         22    1    3    3    0    0  0.55180786326E+02  0.57488769480E+02  0.16876714993E+03  0.18663394303E+03  0.00000000000E+00 0.  1.
         22    1    3    3    0    0 -0.58170055024E+02  0.32392688433E+02  0.63245931383E+02  0.91831853961E+02  0.00000000000E+00 0.  1.
</event>
<event>
 7    1  0.6219721E-006  0.9967557E+02  0.7818608E-02  0.1380475E+00
          2   -1    0    0  502    0  0.00000000000E+00  0.00000000000E+00  0.23793619743E+03  0.23793619743E+03  0.00000000000E+00 0. -1.
          1   -1    0    0  501    0 -0.00000000000E+00 -0.00000000000E+00 -0.11799362496E+03  0.11799362496E+03  0.00000000000E+00 0. -1.
         25    2    1    2    0    0  0.32641250831E+02 -0.76150775918E+02  0.11322637798E+03  0.18790454650E+03  0.12499405584E+03 0.  0.
          2    1    1    2  501    0  0.20770904391E+02 -0.35962329356E+02 -0.10006427238E+02  0.42718241865E+02  0.00000000000E+00 0. -1.
          1    1    1    2  502    0 -0.53412155222E+02  0.11211310527E+03  0.16722621727E+02  0.12530703403E+03  0.00000000000E+00 0. -1.
         22    1    3    3    0    0 -0.40604826544E+02 -0.62549737395E+02  0.46432615266E+02  0.87847648502E+02  0.00000000000E+00 0.  1.
         22    1    3    3    0    0  0.73246077375E+02 -0.13601038523E+02  0.66793762711E+02  0.10005689800E+03  0.00000000000E+00 0.  1.
</event>
<event>
 7    1  0.6219721E-006  0.1237477E+03  0.7818608E-02  0.1342468E+00
          2   -1    0    0  502    0  0.00000000000E+00  0.00000000000E+00  0.81650899929E+02  0.81650899929E+02  0.00000000000E+00 0. -1.
          1   -1    0    0  501    0 -0.00000000000E+00 -0.00000000000E+00 -0.76897506957E+03  0.76897506957E+03  0.00000000000E+00 0. -1.
         25    2    1    2    0    0 -0.10963860944E+03 -0.73092492348E+02 -0.18418107594E+03  0.25867301782E+03  0.12500369713E+03 0.  0.
          2    1    1    2  501    0  0.72392156369E+02  0.10010126975E+03 -0.52618864658E+03  0.54049549517E+03  0.00000000000E+00 0. -1.
          1    1    1    2  502    0  0.37246453074E+02 -0.27008777403E+02  0.23045552875E+02  0.51457456512E+02  0.00000000000E+00 0. -1.
         22    1    3    3    0    0 -0.41270601154E+02 -0.68542161658E+02 -0.22560728297E+02  0.83128075316E+02  0.00000000000E+00 0. -1.
         22    1    3    3    0    0 -0.68368008289E+02 -0.45503306893E+01 -0.16162034764E+03  0.17554494251E+03  0.00000000000E+00 0. -1.
</event>
<event>
 7    1  0.6219721E-006  0.1082749E+03  0.7818608E-02  0.1272681E+00
          2   -1    0    0  502    0  0.00000000000E+00  0.00000000000E+00  0.15426122160E+03  0.15426122160E+03  0.00000000000E+00 0. -1.
          1   -1    0    0  501    0 -0.00000000000E+00 -0.00000000000E+00 -0.10090403207E+04  0.10090403207E+04  0.00000000000E+00 0. -1.
         25    2    1    2    0    0 -0.43184665461E+02 -0.21657891658E+02 -0.20701386836E+03  0.24660575478E+03  0.12500270796E+03 0.  0.
          2    1    1    2  501    0  0.12186412613E+03 -0.38986763719E+02 -0.75775804540E+03  0.76848427983E+03  0.00000000000E+00 0. -1.
          1    1    1    2  502    0 -0.78679460669E+02  0.60644655377E+02  0.10999281461E+03  0.14821150773E+03  0.00000000000E+00 0. -1.
         22    1    3    3    0    0 -0.59050829780E+02 -0.47702797667E+01 -0.21428212059E+03  0.22232090156E+03  0.00000000000E+00 0. -1.
         22    1    3    3    0    0  0.15866164319E+02 -0.16887611891E+02  0.72682522295E+01  0.24284853223E+02  0.00000000000E+00 0. -1.
</event>
<event>
 7    1  0.6219721E-006  0.8348492E+02  0.7818608E-02  0.1361851E+00
          2   -1    0    0  502    0  0.00000000000E+00  0.00000000000E+00  0.19776502289E+04  0.19776502289E+04  0.00000000000E+00 0. -1.
          1   -1    0    0  501    0 -0.00000000000E+00 -0.00000000000E+00 -0.72896554101E+02  0.72896554101E+02  0.00000000000E+00 0. -1.
         25    2    1    2    0    0  0.82406278116E+01 -0.89835301551E+02  0.42980812847E+03  0.45661914207E+03  0.12501089652E+03 0.  0.
          2    1    1    2  501    0 -0.54558725908E+02  0.19185975182E+02 -0.43978720195E+02  0.72655929189E+02  0.00000000000E+00 0. -1.
          1    1    1    2  502    0  0.46318098096E+02  0.70649326369E+02  0.15189242665E+04  0.15212717117E+04  0.00000000000E+00 0. -1.
         22    1    3    3    0    0  0.24573931793E+02  0.55688672914E+01  0.25955504119E+03  0.26077520935E+03  0.00000000000E+00 0. -1.
         22    1    3    3    0    0 -0.16333303981E+02 -0.95404168842E+02  0.17025308728E+03  0.19584393272E+03  0.00000000000E+00 0. -1.
</event>
<event>
 7    1  0.6219721E-006  0.1013949E+03  0.7818608E-02  0.1391621E+00
          2   -1    0    0  502    0  0.00000000000E+00  0.00000000000E+00  0.13903475254E+04  0.13903475254E+04  0.00000000000E+00 0. -1.
          1   -1    0    0  501    0 -0.00000000000E+00 -0.00000000000E+00 -0.14300651851E+03  0.14300651851E+03  0.00000000000E+00 0. -1.
         25    2    1    2    0    0  0.51719723408E+02  0.10001454472E+03  0.51570702044E+02  0.17595652812E+03  0.12499329396E+03 0.  0.
          2    1    1    2  501    0  0.21712984677E+02 -0.30339518404E+02 -0.74383864413E+02  0.83215980229E+02  0.00000000000E+00 0. -1.
          1    1    1    2  502    0 -0.73432708085E+02 -0.69675026312E+02  0.12701541692E+04  0.12741815355E+04  0.00000000000E+00 0. -1.
         22    1    3    3    0    0  0.49174245784E+02  0.24688414903E+02 -0.31812838681E+02  0.63558484751E+02  0.00000000000E+00 0.  1.
         22    1    3    3    0    0  0.25454776240E+01  0.75326129813E+02  0.83383540726E+02  0.11239804337E+03  0.00000000000E+00 0.  1.
</event>
<event>
 7    1  0.6219721E-006  0.4928562E+02  0.7818608E-02  0.1464208E+00
          2   -1    0    0  502    0  0.00000000000E+00  0.00000000000E+00  0.19101592176E+03  0.19101592176E+03  0.00000000000E+00 0. -1.
          1   -1    0    0  501    0 -0.00000000000E+00 -0.00000000000E+00 -0.22057007896E+04  0.22057007896E+04  0.00000000000E+00 0. -1.
         25    2    1    2    0    0  0.20854590490E+02  0.82851798237E+02 -0.30782291981E+03  0.34304393516E+03  0.12499942829E+03 0.  0.
          2    1    1    2  501    0 -0.27760355647E+02 -0.34373764282E+02 -0.18765451869E+04  0.18770652709E+04  0.00000000000E+00 0. -1.
          1    1    1    2  502    0  0.69057651564E+01 -0.48478033955E+02  0.16968323884E+03  0.17660750525E+03  0.00000000000E+00 0. -1.
         22    1    3    3    0    0 -0.36673329772E+02  0.15756984119E+02 -0.19845449292E+03  0.20242875642E+03  0.00000000000E+00 0.  1.
         22    1    3    3    0    0  0.57527920262E+02  0.67094814118E+02 -0.10936842689E+03  0.14061517874E+03  0.00000000000E+00 0.  1.
</event>
<event>
 7    1  0.6219721E-006  0.8994959E+02  0.7818608E-02  0.1392386E+00
          2   -1    0    0  502    0  0.00000000000E+00  0.00000000000E+00  0.19428475354E+03  0.19428475354E+03  0.00000000000E+00 0. -1.
          1   -1    0    0  501    0 -0.00000000000E+00 -0.00000000000E+00 -0.10987870076E+04  0.10987870076E+04  0.00000000000E+00 0. -1.
         25    2    1    2    0    0 -0.81700175044E+02  0.13598399831E+02 -0.12402160512E+02  0.15047284291E+03  0.12501371040E+03 0.  0.
          2    1    1    2  501    0  0.65472408996E+01  0.41283080433E+02 -0.99956683536E+03  0.10004404117E+04  0.00000000000E+00 0. -1.
          1    1    1    2  502    0  0.75152934144E+02 -0.54881480264E+02  0.10746674178E+03  0.14215850651E+03  0.00000000000E+00 0. -1.
         22    1    3    3    0    0  0.46603862336E+01  0.47037297271E+02  0.21402799976E+02  0.51887439532E+02  0.00000000000E+00 0.  1.
         22    1    3    3    0    0 -0.86360561277E+02 -0.33438897440E+02 -0.33804960488E+02  0.98585403381E+02  0.00000000000E+00 0.  1.
</event>
<event>
 7    1  0.6219721E-006  0.1052186E+03  0.7818608E-02  0.1461559E+00
          2   -1    0    0  502    0  0.00000000000E+00  0.00000000000E+00  0.11687346148E+04  0.11687346148E+04  0.00000000000E+00 0. -1.
          1   -1    0    0  501    0 -0.00000000000E+00 -0.00000000000E+00 -0.10299146360E+04  0.10299146360E+04  0.00000000000E+00 0. -1.
         25    2    1    2    0    0  0.17822122406E+02 -0.84514225029E+02  0.49894745272E+02  0.15994683321E+03  0.12503288195E+03 0.  0.
          2    1    1    2  501    0 -0.39833949393E+01 -0.20716956555E+02 -0.97212652446E+03  0.97235540791E+03  0.00000000000E+00 0. -1.
          1    1    1    2  502    0 -0.13838727467E+02  0.10523118158E+03  0.10610517580E+04  0.10663470097E+04  0.00000000000E+00 0. -1.
         22    1    3    3    0    0 -0.76461932337E+01  0.23179560579E+02  0.42531822443E+02  0.49037865165E+02  0.00000000000E+00 0. -1.
         22    1    3    3    0    0  0.25468315640E+02 -0.10769378561E+03  0.73629228288E+01  0.11090896804E+03  0.00000000000E+00 0. -1.
</event>
<event>
 7    1  0.6219721E-006  0.9374623E+02  0.7818608E-02  0.1337990E+00
          2   -1    0    0  502    0  0.00000000000E+00  0.00000000000E+00  0.74789630026E+02  0.74789630026E+02  0.00000000000E+00 0. -1.
          1   -1    0    0  501    0 -0.00000000000E+00 -0.00000000000E+00 -0.66726210429E+03  0.66726210429E+03  0.00000000000E+00 0. -1.
         25    2    1    2    0    0  0.59199529219E+02 -0.30627501645E+02 -0.35537220658E+03  0.38256621871E+03  0.12499951349E+03 0.  0.
          2    1    1    2  501    0  0.37128401030E+02  0.51062544735E+02 -0.25209360259E+03  0.25987898357E+03  0.00000000000E+00 0. -1.
          1    1    1    2  502    0 -0.96327930249E+02 -0.20435043090E+02  0.14993334902E+02  0.99606532033E+02  0.00000000000E+00 0. -1.
         22    1    3    3    0    0  0.20841273225E+02 -0.14587568546E+01 -0.32485691223E+03  0.32552803269E+03  0.00000000000E+00 0.  1.
         22    1    3    3    0    0  0.38358255994E+02 -0.29168744791E+02 -0.30515294347E+02  0.57038186022E+02  0.00000000000E+00 0.  1.
</event>
<event>
 7    1  0.6219721E-006  0.3359355E+02  0.7818608E-02  0.1641763E+00
          2   -1    0    0  502    0  0.00000000000E+00  0.00000000000E+00  0.12990539689E+04  0.12990539689E+04  0.00000000000E+00 0. -1.
          1   -1    0    0  501    0 -0.00000000000E+00 -0.00000000000E+00 -0.56116785939E+02  0.56116785939E+02  0.00000000000E+00 0. -1.
         25    2    1    2    0    0  0.49774245662E+02 -0.20756098655E+02  0.32819913524E+03  0.35531407622E+03  0.12500051688E+03 0.  0.
          2    1    1    2  501    0 -0.30879208078E+02  0.12214635496E+02 -0.35951441084E+02  0.48941076080E+02  0.00000000000E+00 0. -1.
          1    1    1    2  502    0 -0.18895037584E+02  0.85414631597E+01  0.95068948879E+03  0.95091560253E+03  0.00000000000E+00 0. -1.
         22    1    3    3    0    0  0.16496054918E+02 -0.12065960144E+02 -0.44291630150E+01  0.20912309941E+02  0.00000000000E+00 0.  1.
         22    1    3    3    0    0  0.33278190744E+02 -0.86901385114E+01  0.33262829826E+03  0.33440176628E+03  0.00000000000E+00 0.  1.
</event>
<event>
 7    1  0.6219721E-006  0.8640342E+02  0.7818608E-02  0.1375272E+00
          2   -1    0    0  502    0  0.00000000000E+00  0.00000000000E+00  0.15469019085E+04  0.15469019085E+04  0.00000000000E+00 0. -1.
          1   -1    0    0  501    0 -0.00000000000E+00 -0.00000000000E+00 -0.39455480535E+03  0.39455480535E+03  0.00000000000E+00 0. -1.
         25    2    1    2    0    0  0.10891871954E+03 -0.28526611064E+02  0.45826112163E+03  0.48816560674E+03  0.12500139602E+03 0.  0.
          2    1    1    2  501    0 -0.84870602900E+02 -0.15301914290E+02 -0.37411240954E+03  0.38392351164E+03  0.00000000000E+00 0. -1.
          1    1    1    2  502    0 -0.24048116645E+02  0.43828525355E+02  0.10681983910E+04  0.10693675954E+04  0.00000000000E+00 0. -1.
         22    1    3    3    0    0  0.24225460221E+01 -0.57671975722E+02  0.16532107962E+03  0.17510849459E+03  0.00000000000E+00 0. -1.
         22    1    3    3    0    0  0.10649617352E+03  0.29145364658E+02  0.29294004201E+03  0.31305711215E+03  0.00000000000E+00 0. -1.
</event>
<event>
 7    1  0.6219721E-006  0.1738669E+03  0.7818608E-02  0.1360271E+00
          2   -1    0    0  502    0  0.00000000000E+00  0.00000000000E+00  0.23021188245E+04  0.23021188245E+04  0.00000000000E+00 0. -1.
          1   -1    0    0  501    0 -0.00000000000E+00 -0.00000000000E+00 -0.12689297392E+04  0.12689297392E+04  0.00000000000E+00 0. -1.
         25    2    1    2    0    0  0.19625366243E+03  0.47122087400E+02  0.20649080183E+04  0.20785105405E+04  0.12499980807E+03 0.  0.
          2    1    1    2  501    0 -0.16847012580E+03 -0.42654882822E+02 -0.12552598849E+04  0.12672328124E+04  0.00000000000E+00 0. -1.
          1    1    1    2  502    0 -0.27783536630E+02 -0.44672045780E+01  0.22354095188E+03  0.22530521075E+03  0.00000000000E+00 0. -1.
         22    1    3    3    0    0  0.19900243784E+03  0.11784331697E+02  0.18485913386E+04  0.18593092206E+04  0.00000000000E+00 0.  1.
         22    1    3    3    0    0 -0.27487754031E+01  0.35337755703E+02  0.21631667971E+03  0.21920131995E+03  0.00000000000E+00 0.  1.
</event>
<event>
 7    1  0.6219721E-006  0.8281849E+02  0.7818608E-02  0.1456680E+00
          2   -1    0    0  502    0  0.00000000000E+00  0.00000000000E+00  0.10679283369E+04  0.10679283369E+04  0.00000000000E+00 0. -1.
          1   -1    0    0  501    0 -0.00000000000E+00 -0.00000000000E+00 -0.67702916717E+02  0.67702916717E+02  0.00000000000E+00 0. -1.
         25    2    1    2    0    0 -0.32272796988E+02  0.47326508645E+02  0.17266548570E+03  0.22072304029E+03  0.12499583479E+03 0.  0.
          2    1    1    2  501    0 -0.16630825653E+02  0.22240217580E+02 -0.36952068352E+02  0.46224095399E+02  0.00000000000E+00 0. -1.
          1    1    1    2  502    0  0.48903622641E+02 -0.69566726225E+02  0.86451200285E+03  0.86868411794E+03  0.00000000000E+00 0. -1.
         22    1    3    3    0    0  0.19428352904E+02  0.17476235174E+02  0.15678430959E+03  0.15894715922E+03  0.00000000000E+00 0.  1.
         22    1    3    3    0    0 -0.51701149892E+02  0.29850273471E+02  0.15881176116E+02  0.61775881064E+02  0.00000000000E+00 0.  1.
</event>
<event>
 7    1  0.6219721E-006  0.9590533E+02  0.7818608E-02  0.1375270E+00
          2   -1    0    0  502    0  0.00000000000E+00  0.00000000000E+00  0.15627803335E+03  0.15627803335E+03  0.00000000000E+00 0. -1.
          1   -1    0    0  501    0 -0.00000000000E+00 -0.00000000000E+00 -0.25954930927E+04  0.25954930927E+04  0.00000000000E+00 0. -1.
         25    2    1    2    0    0 -0.55216975745E+02  0.10421696690E+03 -0.40604361399E+03  0.44091549978E+03  0.12499988353E+03 0.  0.
          2    1    1    2  501    0 -0.16837918473E+02 -0.41774308279E+02 -0.21553811769E+04  0.21558517171E+04  0.00000000000E+00 0. -1.
          1    1    1    2  502    0  0.72054894218E+02 -0.62442658623E+02  0.12220973151E+03  0.15500390922E+03  0.00000000000E+00 0. -1.
         22    1    3    3    0    0 -0.46930706905E+02  0.57200890120E+02 -0.37877933040E+03  0.38593809636E+03  0.00000000000E+00 0.  1.
         22    1    3    3    0    0 -0.82862688399E+01  0.47016076782E+02 -0.27264283590E+02  0.54977403421E+02  0.00000000000E+00 0.  1.
</event>
<event>
 7    1  0.6219721E-006  0.7333738E+02  0.7818608E-02  0.1520399E+00
          2   -1    0    0  502    0  0.00000000000E+00  0.00000000000E+00  0.13827094524E+03  0.13827094524E+03  0.00000000000E+00 0. -1.
          1   -1    0    0  501    0 -0.00000000000E+00 -0.00000000000E+00 -0.98608239157E+03  0.98608239157E+03  0.00000000000E+00 0. -1.
         25    2    1    2    0    0 -0.40862266976E+02  0.35121838730E+02 -0.12130302077E+02  0.13665797855E+03  0.12499996182E+03 0.  0.
          2    1    1    2  501    0  0.53916532522E+02 -0.50401608175E+02 -0.90883716705E+03  0.91182910175E+03  0.00000000000E+00 0. -1.
          1    1    1    2  502    0 -0.13054265546E+02  0.15279769445E+02  0.73156022803E+02  0.75866256502E+02  0.00000000000E+00 0. -1.
         22    1    3    3    0    0 -0.41934762378E+01  0.16971882528E+01  0.53885647630E+02  0.54075213466E+02  0.00000000000E+00 0.  1.
         22    1    3    3    0    0 -0.36668790738E+02  0.33424650477E+02 -0.66015949707E+02  0.82582765087E+02  0.00000000000E+00 0.  1.
</event>
<event>
 7    1  0.6219721E-006  0.8818209E+02  0.7818608E-02  0.1395380E+00
          2   -1    0    0  502    0  0.00000000000E+00  0.00000000000E+00  0.54577693185E+03  0.54577693185E+03  0.00000000000E+00 0. -1.
          1   -1    0    0  501    0 -0.00000000000E+00 -0.00000000000E+00 -0.26062272087E+03  0.26062272087E+03  0.00000000000E+00 0. -1.
         25    2    1    2    0    0  0.73745594436E+02 -0.30876316036E+02  0.71398655787E+02  0.16466382957E+03  0.12499859651E+03 0.  0.
          2    1    1    2  501    0  0.15800901112E+02  0.38513734149E+02 -0.20717605392E+03  0.21131704501E+03  0.00000000000E+00 0. -1.
          1    1    1    2  502    0 -0.89546495548E+02 -0.76374181123E+01  0.42093160911E+03  0.43041877813E+03  0.00000000000E+00 0. -1.
         22    1    3    3    0    0  0.67463507644E+01 -0.21756630826E+02  0.91364019966E+02  0.94160758163E+02  0.00000000000E+00 0. -1.
         22    1    3    3    0    0  0.66999243672E+02 -0.91196852103E+01 -0.19965364179E+02  0.70503071406E+02  0.00000000000E+00 0. -1.
</event>
<event>
 7    1  0.6219721E-006  0.1061726E+03  0.7818608E-02  0.1411733E+00
          2   -1    0    0  502    0  0.00000000000E+00  0.00000000000E+00  0.43188622831E+02  0.43188622831E+02  0.00000000000E+00 0. -1.
          1   -1    0    0  501    0 -0.00000000000E+00 -0.00000000000E+00 -0.10282029927E+04  0.10282029927E+04  0.00000000000E+00 0. -1.
         25    2    1    2    0    0  0.99088241174E+02 -0.43349425300E+02 -0.56436790186E+03  0.58807671012E+03  0.12500174447E+03 0.  0.
          2    1    1    2  501    0 -0.17407834757E+02 -0.24917890476E+02 -0.35903342328E+03  0.36031782222E+03  0.00000000000E+00 0. -1.
          1    1    1    2  502    0 -0.81680406417E+02  0.68267315776E+02 -0.61613044747E+02  0.12299708321E+03  0.00000000000E+00 0. -1.
         22    1    3    3    0    0  0.10857787116E+02 -0.73542095057E+01 -0.38278312421E+03  0.38300769720E+03  0.00000000000E+00 0.  1.
         22    1    3    3    0    0  0.88230454058E+02 -0.35995215794E+02 -0.18158477766E+03  0.20506901292E+03  0.00000000000E+00 0.  1.
</event>
<event>
 7    1  0.6219721E-006  0.9507365E+02  0.7818608E-02  0.1321356E+00
          2   -1    0    0  502    0  0.00000000000E+00  0.00000000000E+00  0.18247448463E+04  0.18247448463E+04  0.00000000000E+00 0. -1.
          1   -1    0    0  501    0 -0.00000000000E+00 -0.00000000000E+00 -0.80064105748E+03  0.80064105748E+03  0.00000000000E+00 0. -1.
         25    2    1    2    0    0  0.14759589252E+03  0.69218603427E+02  0.56300500931E+01  0.20552749830E+03  0.12503636490E+03 0.  0.
          2    1    1    2  501    0 -0.77836611158E+02 -0.51127082983E+02 -0.69683809953E+03  0.70303332326E+03  0.00000000000E+00 0. -1.
          1    1    1    2  502    0 -0.69759281358E+02 -0.18091520444E+02  0.17153118382E+04  0.17168250822E+04  0.00000000000E+00 0. -1.
         22    1    3    3    0    0  0.31506416242E+02  0.80049982796E+02  0.19209591852E+02  0.88145688659E+02  0.00000000000E+00 0.  1.
         22    1    3    3    0    0  0.11608947627E+03 -0.10831379370E+02 -0.13579541759E+02  0.11738180964E+03  0.00000000000E+00 0.  1.
</event>
<event>
 7    1  0.6219721E-006  0.2232421E+03  0.7818608E-02  0.1268952E+00
          2   -1    0    0  502    0  0.00000000000E+00  0.00000000000E+00  0.38909037235E+03  0.38909037235E+03  0.00000000000E+00 0. -1.
          1   -1    0    0  501    0 -0.00000000000E+00 -0.00000000000E+00 -0.92376534387E+03  0.92376534387E+03  0.00000000000E+00 0. -1.
         25    2    1    2    0    0 -0.76517719874E+02 -0.16391083664E+03 -0.19658758901E+03  0.29494469503E+03  0.12499587653E+03 0.  0.
          2    1    1    2  501    0 -0.11314153587E+02 -0.48648544830E+02 -0.63800697403E+03  0.63995905330E+03  0.00000000000E+00 0. -1.
          1    1    1    2  502    0  0.87831873460E+02  0.21255938147E+03  0.29991959153E+03  0.37795196789E+03  0.00000000000E+00 0. -1.
         22    1    3    3    0    0 -0.86150880338E+02 -0.15923014047E+03 -0.11906479488E+03  0.21668557219E+03  0.00000000000E+00 0. -1.
         22    1    3    3    0    0  0.96331604647E+01 -0.46806961696E+01 -0.77522794132E+02  0.78259122837E+02  0.00000000000E+00 0. -1.
</event>
<event>
 7    1  0.6219721E-006  0.7759331E+02  0.7818608E-02  0.1367051E+00
          2   -1    0    0  502    0  0.00000000000E+00  0.00000000000E+00  0.10637947914E+04  0.10637947914E+04  0.00000000000E+00 0. -1.
          1   -1    0    0  501    0 -0.00000000000E+00 -0.00000000000E+00 -0.13329154410E+03  0.13329154410E+03  0.00000000000E+00 0. -1.
         25    2    1    2    0    0  0.10778854495E+03  0.37608926641E+01  0.65236768848E+02  0.17751900324E+03  0.12499858306E+03 0.  0.
          2    1    1    2  501    0 -0.41285691487E+02 -0.42959069774E+02 -0.63802457406E+02  0.87296870325E+02  0.00000000000E+00 0. -1.
          1    1    1    2  502    0 -0.66502853460E+02  0.39198177110E+02  0.92906893586E+03  0.93227046193E+03  0.00000000000E+00 0. -1.
         22    1    3    3    0    0 -0.58778409638E+01  0.40321604078E+02  0.36507128380E+02  0.54709699253E+02  0.00000000000E+00 0.  1.
         22    1    3    3    0    0  0.11366638591E+03 -0.36560711413E+02  0.28729640468E+02  0.12280930399E+03  0.00000000000E+00 0.  1.
</event>
<event>
 7    1  0.6219721E-006  0.1206731E+03  0.7818608E-02  0.1288145E+00
          2   -1    0    0  502    0  0.00000000000E+00  0.00000000000E+00  0.21404122618E+03  0.21404122618E+03  0.00000000000E+00 0. -1.
          1   -1    0    0  501    0 -0.00000000000E+00 -0.00000000000E+00 -0.72517191031E+03  0.72517191031E+03  0.00000000000E+00 0. -1.
         25    2    1    2    0    0  0.62896612191E+02 -0.58479534398E+02 -0.31248577561E+03  0.34734557722E+03  0.12500300112E+03 0.  0.
          2    1    1    2  501    0 -0.43087207286E+02 -0.63748180272E+02 -0.37141881122E+03  0.37930498447E+03  0.00000000000E+00 0. -1.
          1    1    1    2  502    0 -0.19809404904E+02  0.12222771467E+03  0.17277390269E+03  0.21256257480E+03  0.00000000000E+00 0. -1.
         22    1    3    3    0    0  0.76787306041E+02  0.12783659661E+02 -0.13967836342E+03  0.15990546435E+03  0.00000000000E+00 0. -1.
         22    1    3    3    0    0 -0.13890693851E+02 -0.71263194059E+02 -0.17280741219E+03  0.18744011287E+03  0.00000000000E+00 0. -1.
</event>
<event>
 7    1  0.6219721E-006  0.1347293E+03  0.7818608E-02  0.1332498E+00
          2   -1    0    0  502    0  0.00000000000E+00  0.00000000000E+00  0.75230496641E+03  0.75230496641E+03  0.00000000000E+00 0. -1.
          1   -1    0    0  501    0 -0.00000000000E+00 -0.00000000000E+00 -0.91655028883E+03  0.91655028883E+03  0.00000000000E+00 0. -1.
         25    2    1    2    0    0 -0.11075742309E+03 -0.16675536700E+02  0.76774068553E+02  0.18456320597E+03  0.12499615635E+03 0.  0.
          2    1    1    2  501    0 -0.26262756775E+02  0.37870438264E+02 -0.85429579438E+03  0.85553796338E+03  0.00000000000E+00 0. -1.
          1    1    1    2  502    0  0.13702017987E+03 -0.21194901564E+02  0.61327640341E+03  0.62875408589E+03  0.00000000000E+00 0. -1.
         22    1    3    3    0    0 -0.60938010311E+02 -0.24773476786E+02  0.10709396857E+03  0.12568327000E+03  0.00000000000E+00 0. -1.
         22    1    3    3    0    0 -0.49819412783E+02  0.80979400862E+01 -0.30319900017E+02  0.58879935978E+02  0.00000000000E+00 0. -1.
</event>
<event>
 7    1  0.6219721E-006  0.1532371E+03  0.7818608E-02  0.1356597E+00
          2   -1    0    0  502    0  0.00000000000E+00  0.00000000000E+00  0.64724600750E+03  0.64724600750E+03  0.00000000000E+00 0. -1.
          1   -1    0    0  501    0 -0.00000000000E+00 -0.00000000000E+00 -0.20552577052E+03  0.20552577052E+03  0.00000000000E+00 0. -1.
         25    2    1    2    0    0  0.94416281517E+02  0.99857980040E+02  0.23703651022E+03  0.30116040873E+03  0.12500093686E+03 0.  0.
          2    1    1    2  501    0 -0.89756913073E+00  0.32919995375E+02 -0.15420717575E+03  0.15768444685E+03  0.00000000000E+00 0. -1.
          1    1    1    2  502    0 -0.93518712386E+02 -0.13277797541E+03  0.35889090251E+03  0.39392692244E+03  0.00000000000E+00 0. -1.
         22    1    3    3    0    0  0.10880286225E+03  0.80359876647E+02  0.11743123583E+03  0.17912528509E+03  0.00000000000E+00 0.  1.
         22    1    3    3    0    0 -0.14386580732E+02  0.19498103392E+02  0.11960527439E+03  0.12203512365E+03  0.00000000000E+00 0.  1.
</event>
<event>
 7    1  0.6219721E-006  0.4183819E+02  0.7818608E-02  0.1562162E+00
          2   -1    0    0  502    0  0.00000000000E+00  0.00000000000E+00  0.16250809267E+04  0.16250809267E+04  0.00000000000E+00 0. -1.
          1   -1    0    0  501    0 -0.00000000000E+00 -0.00000000000E+00 -0.37631771727E+02  0.37631771727E+02  0.00000000000E+00 0. -1.
         25    2    1    2    0    0 -0.23793088971E+02 -0.10225227838E+02  0.10222896641E+04  0.10302289140E+04  0.12499916632E+03 0.  0.
          2    1    1    2  501    0 -0.22042555357E+02  0.15337496129E+02 -0.27263892354E+02  0.38267909016E+02  0.00000000000E+00 0. -1.
          1    1    1    2  502    0  0.45835644329E+02 -0.51122682906E+01  0.59242338330E+03  0.59421587546E+03  0.00000000000E+00 0. -1.
         22    1    3    3    0    0  0.73384061081E+00 -0.20925753533E+02  0.25128780691E+02  0.32709040065E+02  0.00000000000E+00 0. -1.
         22    1    3    3    0    0 -0.24526929582E+02  0.10700525694E+02  0.99716088336E+03  0.99751987391E+03  0.00000000000E+00 0. -1.
</event>
<event>
 7    1  0.6219721E-006  0.1924276E+03  0.7818608E-02  0.1211867E+00
          2   -1    0    0  502    0  0.00000000000E+00  0.00000000000E+00  0.14035451843E+04  0.14035451843E+04  0.00000000000E+00 0. -1.
          1   -1    0    0  501    0 -0.00000000000E+00 -0.00000000000E+00 -0.63111973222E+03  0.63111973222E+03  0.00000000000E+00 0. -1.
         25    2    1    2    0    0 -0.20892340717E+03 -0.20018881061E+02  0.23313555622E+03  0.33768809779E+03  0.12502527004E+03 0.  0.
          2    1    1    2  501    0  0.32149389751E+02  0.98329992738E+02 -0.56575988016E+03  0.57514051564E+03  0.00000000000E+00 0. -1.
          1    1    1    2  502    0  0.17677401742E+03 -0.78311111677E+02  0.11050497760E+04  0.11218363031E+04  0.00000000000E+00 0. -1.
         22    1    3    3    0    0 -0.18522291363E+03 -0.13434300185E+02  0.24732884783E+03  0.30928880860E+03  0.00000000000E+00 0.  1.
         22    1    3    3    0    0 -0.23700493541E+02 -0.65845808762E+01 -0.14193291613E+02  0.28399289185E+02  0.00000000000E+00 0.  1.
</event>
<event>
 7    1  0.6219721E-006  0.9783343E+02  0.7818608E-02  0.1287413E+00
          2   -1    0    0  502    0  0.00000000000E+00  0.00000000000E+00  0.31076388149E+03  0.31076388149E+03  0.00000000000E+00 0. -1.
          1   -1    0    0  501    0 -0.00000000000E+00 -0.00000000000E+00 -0.79467888301E+03  0.79467888301E+03  0.00000000000E+00 0. -1.
         25    2    1    2    0    0 -0.72889247778E+00  0.88691974519E+02  0.57375599569E+02  0.16366042609E+03  0.12500391200E+03 0.  0.
          2    1    1    2  501    0 -0.91275054505E+02 -0.28298943033E+02 -0.72302994590E+03  0.72931767319E+03  0.00000000000E+00 0. -1.
          1    1    1    2  502    0  0.92003946983E+02 -0.60393031486E+02  0.18173934481E+03  0.21246466522E+03  0.00000000000E+00 0. -1.
         22    1    3    3    0    0 -0.52833344389E+02  0.45959670290E+02  0.65376759832E+02  0.95800700929E+02  0.00000000000E+00 0.  1.
         22    1    3    3    0    0  0.52104451911E+02  0.42732304230E+02 -0.80011602635E+01  0.67859725164E+02  0.00000000000E+00 0.  1.
</event>
<event>
 7    1  0.6219721E-006  0.6472908E+03  0.7818608E-02  0.1152389E+00
          2   -1    0    0  502    0  0.00000000000E+00  0.00000000000E+00  0.75024220736E+03  0.75024220736E+03  0.00000000000E+00 0. -1.
          1   -1    0    0  501    0 -0.00000000000E+00 -0.00000000000E+00 -0.35795152336E+04  0.35795152336E+04  0.00000000000E+00 0. -1.
         25    2    1    2    0    0 -0.35954489610E+03  0.50265858352E+03 -0.13458203203E+04  0.14862024142E+04  0.12500838970E+03 0.  0.
          2    1    1    2  501    0  0.41516833845E+03 -0.52485712948E+03 -0.21102931109E+04  0.22138601513E+04  0.00000000000E+00 0. -1.
          1    1    1    2  502    0 -0.55623442351E+02  0.22198545959E+02  0.62684040501E+03  0.62969487542E+03  0.00000000000E+00 0. -1.
         22    1    3    3    0    0 -0.33732886599E+03  0.43359826854E+03 -0.10946927513E+04  0.12248062876E+04  0.00000000000E+00 0.  1.
         22    1    3    3    0    0 -0.22216030114E+02  0.69060314976E+02 -0.25112756901E+03  0.26139612662E+03  0.00000000000E+00 0.  1.
</event>
<event>
 7    1  0.6219721E-006  0.8648110E+02  0.7818608E-02  0.1444061E+00
          2   -1    0    0  502    0  0.00000000000E+00  0.00000000000E+00  0.36646567685E+03  0.36646567685E+03  0.00000000000E+00 0. -1.
          1   -1    0    0  501    0 -0.00000000000E+00 -0.00000000000E+00 -0.13218868864E+03  0.13218868864E+03  0.00000000000E+00 0. -1.
         25    2    1    2    0    0  0.51631392141E+02 -0.29332122463E+02  0.26058912952E+03  0.29505641714E+03  0.12500168323E+03 0.  0.
          2    1    1    2  501    0 -0.73673002437E+02  0.48460239907E+02 -0.94605478051E+02  0.12933020768E+03  0.00000000000E+00 0. -1.
          1    1    1    2  502    0  0.22041610297E+02 -0.19128117443E+02  0.68293336745E+02  0.74267740676E+02  0.00000000000E+00 0. -1.
         22    1    3    3    0    0 -0.17230130033E+02 -0.44902698373E+02  0.18696608180E+03  0.19305296021E+03  0.00000000000E+00 0. -1.
         22    1    3    3    0    0  0.68861522173E+02  0.15570575910E+02  0.73623047712E+02  0.10200345692E+03  0.00000000000E+00 0. -1.
</event>
<event>
 7    1  0.6219721E-006  0.1051264E+03  0.7818608E-02  0.1415422E+00
          2   -1    0    0  502    0  0.00000000000E+00  0.00000000000E+00  0.11499589437E+04  0.11499589437E+04  0.00000000000E+00 0. -1.
          1   -1    0    0  501    0 -0.00000000000E+00 -0.00000000000E+00 -0.37855749633E+03  0.37855749633E+03  0.00000000000E+00 0. -1.
         25    2    1    2    0    0 -0.90813462224E+02  0.96279905180E+02 -0.35334852112E+02  0.18544659841E+03  0.12499993610E+03 0.  0.
          2    1    1    2  501    0  0.12477891935E+02 -0.27097324986E+02 -0.26478678624E+03  0.26646201413E+03  0.00000000000E+00 0. -1.
          1    1    1    2  502    0  0.78335570289E+02 -0.69182580194E+02  0.10715230857E+04  0.10766078275E+04  0.00000000000E+00 0. -1.
         22    1    3    3    0    0 -0.52228883432E+02 -0.91175067544E+01  0.24330722379E+02  0.58334974462E+02  0.00000000000E+00 0. -1.
         22    1    3    3    0    0 -0.38584578792E+02  0.10539741193E+03 -0.59665574491E+02  0.12711162395E+03  0.00000000000E+00 0. -1.
</event>
<event>
 7    1  0.6219721E-006  0.1324721E+03  0.7818608E-02  0.1300227E+00
          2   -1    0    0  502    0  0.00000000000E+00  0.00000000000E+00  0.13014994319E+04  0.13014994319E+04  0.00000000000E+00 0. -1.
          1   -1    0    0  501    0 -0.00000000000E+00 -0.00000000000E+00 -0.63020215389E+03  0.63020215389E+03  0.00000000000E+00 0. -1.
         25    2    1    2    0    0  0.78928452484E+02  0.67721703906E+02 -0.30625320429E+03  0.34674684613E+03  0.12500568135E+03 0.  0.
          2    1    1    2  501    0 -0.11012651064E+03 -0.12203801396E+03 -0.28062266727E+03  0.32522331801E+03  0.00000000000E+00 0. -1.
          1    1    1    2  502    0  0.31198058152E+02  0.54316310055E+02  0.12581731495E+04  0.12597314216E+04  0.00000000000E+00 0. -1.
         22    1    3    3    0    0  0.17969423357E+02  0.20733214459E+02  0.34229668982E+01  0.27649286790E+02  0.00000000000E+00 0. -1.
         22    1    3    3    0    0  0.60959029127E+02  0.46988489446E+02 -0.30967617119E+03  0.31909755934E+03  0.00000000000E+00 0. -1.
</event>
<event>
 7    1  0.6219721E-006  0.2550249E+02  0.7818608E-02  0.1675027E+00
          2   -1    0    0  502    0  0.00000000000E+00  0.00000000000E+00  0.24280522648E+03  0.24280522648E+03  0.00000000000E+00 0. -1.
          1   -1    0    0  501    0 -0.00000000000E+00 -0.00000000000E+00 -0.53275962480E+02  0.53275962480E+02  0.00000000000E+00 0. -1.
         25    2    1    2    0    0  0.27418550407E+02  0.32558110365E+02  0.73194460800E+02  0.15097843262E+03  0.12500100226E+03 0.  0.
          2    1    1    2  501    0 -0.21107292010E+02 -0.83016170726E+01 -0.32560137784E+01  0.22913669452E+02  0.00000000000E+00 0. -1.
          1    1    1    2  502    0 -0.63112583968E+01 -0.24256493293E+02  0.11959081698E+03  0.12218908689E+03  0.00000000000E+00 0. -1.
         22    1    3    3    0    0  0.33740151112E+02 -0.42661017691E+02  0.44314988306E+02  0.70158238405E+02  0.00000000000E+00 0.  1.
         22    1    3    3    0    0 -0.63216007049E+01  0.75219128057E+02  0.28879472494E+02  0.80820194213E+02  0.00000000000E+00 0.  1.
</event>
<event>
 7    1  0.6219721E-006  0.8480419E+02  0.7818608E-02  0.1403542E+00
          2   -1    0    0  502    0  0.00000000000E+00  0.00000000000E+00  0.14172565293E+04  0.14172565293E+04  0.00000000000E+00 0. -1.
          1   -1    0    0  501    0 -0.00000000000E+00 -0.00000000000E+00 -0.30688154316E+03  0.30688154316E+03  0.00000000000E+00 0. -1.
         25    2    1    2    0    0  0.47570196275E+02 -0.10284571873E+03  0.27557118743E+03  0.32311789268E+03  0.12500211115E+03 0.  0.
          2    1    1    2  501    0 -0.34960640526E+02  0.20595084860E+02 -0.28009583230E+03  0.28301957384E+03  0.00000000000E+00 0. -1.
          1    1    1    2  502    0 -0.12609555749E+02  0.82250633865E+02  0.11148996310E+04  0.11180006060E+04  0.00000000000E+00 0. -1.
         22    1    3    3    0    0  0.44887840623E+02 -0.17708715871E+02  0.17462458381E+02  0.51317193086E+02  0.00000000000E+00 0.  1.
         22    1    3    3    0    0  0.26823556524E+01 -0.85137002854E+02  0.25810872905E+03  0.27180069959E+03  0.00000000000E+00 0.  1.
</event>
<event>
 7    1  0.6219721E-006  0.9250001E+02  0.7818608E-02  0.1367690E+00
          2   -1    0    0  502    0  0.00000000000E+00  0.00000000000E+00  0.93535499242E+03  0.93535499242E+03  0.00000000000E+00 0. -1.
          1   -1    0    0  501    0 -0.00000000000E+00 -0.00000000000E+00 -0.57641963817E+03  0.57641963817E+03  0.00000000000E+00 0. -1.
         25    2    1    2    0    0  0.73563763741E+02  0.10557749596E+03  0.31423078971E+03  0.36183459788E+03  0.12500020812E+03 0.  0.
          2    1    1    2  501    0 -0.73296078822E+02 -0.55862714909E+02 -0.54772716011E+03  0.55542596267E+03  0.00000000000E+00 0. -1.
          1    1    1    2  502    0 -0.26768491902E+00 -0.49714781053E+02  0.59243172464E+03  0.59451407004E+03  0.00000000000E+00 0. -1.
         22    1    3    3    0    0  0.58830071649E+02  0.84895625257E+02  0.31960367116E+03  0.33587907220E+03  0.00000000000E+00 0.  1.
         22    1    3    3    0    0  0.14733692093E+02  0.20681870706E+02 -0.53728814500E+01  0.25955525686E+02  0.00000000000E+00 0.  1.
</event>
<event>
 7    1  0.6219721E-006  0.1101248E+03  0.7818608E-02  0.1306448E+00
          2   -1    0    0  502    0  0.00000000000E+00  0.00000000000E+00  0.36351283654E+04  0.36351283654E+04  0.00000000000E+00 0. -1.
          1   -1    0    0  501    0 -0.00000000000E+00 -0.00000000000E+00 -0.92510837625E+02  0.92510837625E+02  0.00000000000E+00 0. -1.
         25    2    1    2    0    0  0.41187869770E+02 -0.21765086958E+02  0.48712259500E+03  0.50506200228E+03  0.12501617481E+03 0.  0.
          2    1    1    2  501    0 -0.85473683659E+02  0.77480424715E+02 -0.43109145122E+02  0.12315585737E+03  0.00000000000E+00 0. -1.
          1    1    1    2  502    0  0.44285813889E+02 -0.55715337756E+02  0.30986040779E+04  0.30994213433E+04  0.00000000000E+00 0. -1.
         22    1    3    3    0    0  0.10254076015E+02 -0.45682907945E+02  0.59771068928E+02  0.75925324063E+02  0.00000000000E+00 0. -1.
         22    1    3    3    0    0  0.30933793755E+02  0.23917820987E+02  0.42735152607E+03  0.42913667822E+03  0.00000000000E+00 0. -1.
</event>
<event>
 7    1  0.6219721E-006  0.3598461E+02  0.7818608E-02  0.1597837E+00
          2   -1    0    0  502    0  0.00000000000E+00  0.00000000000E+00  0.19294799974E+03  0.19294799974E+03  0.00000000000E+00 0. -1.
          1   -1    0    0  501    0 -0.00000000000E+00 -0.00000000000E+00 -0.57730283724E+03  0.57730283724E+03  0.00000000000E+00 0. -1.
         25    2    1    2    0    0 -0.46027225423E+02  0.39111853922E+02 -0.32907807686E+02  0.14267516776E+03  0.12500014836E+03 0.  0.
          2    1    1    2  501    0  0.19230525307E+02 -0.16050568505E+02 -0.48692089771E+03  0.48756475927E+03  0.00000000000E+00 0. -1.
          1    1    1    2  502    0  0.26796700117E+02 -0.23061285417E+02  0.13547386790E+03  0.14001090996E+03  0.00000000000E+00 0. -1.
         22    1    3    3    0    0  0.20411235724E+02  0.64331588445E+02 -0.11568296293E+02  0.68476253510E+02  0.00000000000E+00 0. -1.
         22    1    3    3    0    0 -0.66438461147E+02 -0.25219734523E+02 -0.21339511393E+02  0.74198914248E+02  0.00000000000E+00 0. -1.
</event>
<event>
 7    1  0.6219721E-006  0.7451058E+02  0.7818608E-02  0.1349717E+00
          2   -1    0    0  502    0  0.00000000000E+00  0.00000000000E+00  0.24354241232E+04  0.24354241232E+04  0.00000000000E+00 0. -1.
          1   -1    0    0  501    0 -0.00000000000E+00 -0.00000000000E+00 -0.62769872712E+02  0.62769872712E+02  0.00000000000E+00 0. -1.
         25    2    1    2    0    0  0.69657366784E+01  0.50809018566E+02  0.26424680310E+03  0.29678448949E+03  0.12499832958E+03 0.  0.
          2    1    1    2  501    0 -0.71245966028E+02 -0.89225357601E+01 -0.17672750020E+02  0.73945421852E+02  0.00000000000E+00 0. -1.
          1    1    1    2  502    0  0.64280229349E+02 -0.41886482806E+02  0.21260801974E+04  0.21274640846E+04  0.00000000000E+00 0. -1.
         22    1    3    3    0    0 -0.31026497314E+02 -0.29098595741E+02  0.54466699347E+02  0.69108560594E+02  0.00000000000E+00 0.  1.
         22    1    3    3    0    0  0.37992233993E+02  0.79907614306E+02  0.20978010376E+03  0.22767592890E+03  0.00000000000E+00 0.  1.
</event>
<event>
 7    1  0.6219721E-006  0.1102898E+03  0.7818608E-02  0.1387346E+00
          2   -1    0    0  502    0  0.00000000000E+00  0.00000000000E+00  0.49939288095E+03  0.49939288095E+03  0.00000000000E+00 0. -1.
          1   -1    0    0  501    0 -0.00000000000E+00 -0.00000000000E+00 -0.38100192424E+03  0.38100192424E+03  0.00000000000E+00 0. -1.
         25    2    1    2    0    0  0.37592740509E+02  0.96254664589E+02 -0.17830894526E+03  0.24103311666E+03  0.12499883509E+03 0.  0.
          2    1    1    2  501    0  0.33583586657E+02 -0.11504387022E+02 -0.16284921416E+03  0.16667355749E+03  0.00000000000E+00 0. -1.
          1    1    1    2  502    0 -0.71176327166E+02 -0.84750277567E+02  0.45954911612E+03  0.47268813104E+03  0.00000000000E+00 0. -1.
         22    1    3    3    0    0  0.46655209955E+02  0.11884564563E+03 -0.11003108530E+03  0.16854624242E+03  0.00000000000E+00 0.  1.
         22    1    3    3    0    0 -0.90624694465E+01 -0.22590981043E+02 -0.68277859957E+02  0.72486874241E+02  0.00000000000E+00 0.  1.
</event>
<event>
 7    1  0.6219721E-006  0.6477740E+02  0.7818608E-02  0.1527317E+00
          2   -1    0    0  502    0  0.00000000000E+00  0.00000000000E+00  0.62832019441E+03  0.62832019441E+03  0.00000000000E+00 0. -1.
          1   -1    0    0  501    0 -0.00000000000E+00 -0.00000000000E+00 -0.40513941535E+03  0.40513941535E+03  0.00000000000E+00 0. -1.
         25    2    1    2    0    0 -0.37283131550E+02 -0.25627226193E+02  0.10387788783E+03  0.16871476074E+03  0.12500907282E+03 0.  0.
          2    1    1    2  501    0  0.47229079443E+02  0.44946604045E+02 -0.36962664220E+03  0.37533270279E+03  0.00000000000E+00 0. -1.
          1    1    1    2  502    0 -0.99459478928E+01 -0.19319377851E+02  0.48892953342E+03  0.48941214624E+03  0.00000000000E+00 0. -1.
         22    1    3    3    0    0 -0.50315934752E+02  0.37185568868E+02  0.76863118264E+02  0.99108015676E+02  0.00000000000E+00 0.  1.
         22    1    3    3    0    0  0.13032803202E+02 -0.62812795062E+02  0.27014769570E+02  0.69606745059E+02  0.00000000000E+00 0.  1.
</event>
<event>
 7    1  0.6219721E-006  0.5671850E+02  0.7818608E-02  0.1437882E+00
          2   -1    0    0  502    0  0.00000000000E+00  0.00000000000E+00  0.11825247200E+02  0.11825247200E+02  0.00000000000E+00 0. -1.
          1   -1    0    0  501    0 -0.00000000000E+00 -0.00000000000E+00 -0.19324310205E+04  0.19324310205E+04  0.00000000000E+00 0. -1.
         25    2    1    2    0    0  0.40267519227E+02 -0.44902003882E+02 -0.72859596451E+03  0.74169654755E+03  0.12499610425E+03 0.  0.
          2    1    1    2  501    0 -0.58276892253E+02  0.19245556846E+01 -0.10754637563E+04  0.10770432634E+04  0.00000000000E+00 0. -1.
          1    1    1    2  502    0  0.18009373026E+02  0.42977448198E+02 -0.11654605249E+03  0.12551645678E+03  0.00000000000E+00 0. -1.
         22    1    3    3    0    0  0.19992813093E+02 -0.62545661709E+02 -0.69754683296E+03  0.70063061349E+03  0.00000000000E+00 0.  1.
         22    1    3    3    0    0  0.20274706133E+02  0.17643657826E+02 -0.31049131550E+02  0.41065934061E+02  0.00000000000E+00 0.  1.
</event>
<event>
 7    1  0.6219721E-006  0.7071636E+02  0.7818608E-02  0.1450064E+00
          2   -1    0    0  502    0  0.00000000000E+00  0.00000000000E+00  0.21860152043E+03  0.21860152043E+03  0.00000000000E+00 0. -1.
          1   -1    0    0  501    0 -0.00000000000E+00 -0.00000000000E+00 -0.35664225164E+04  0.35664225164E+04  0.00000000000E+00 0. -1.
         25    2    1    2    0    0  0.85868246873E+02 -0.41670309709E+02 -0.28050361669E+03  0.32158567379E+03  0.12500118430E+03 0.  0.
          2    1    1    2  501    0 -0.52172788040E+02  0.47160653251E+02 -0.32635250245E+04  0.32642827256E+04  0.00000000000E+00 0. -1.
          1    1    1    2  502    0 -0.33695458834E+02 -0.54903435421E+01  0.19620764531E+03  0.19915563737E+03  0.00000000000E+00 0. -1.
         22    1    3    3    0    0  0.73993242296E+02 -0.28914543822E+02 -0.57904939068E+02  0.98305812231E+02  0.00000000000E+00 0. -1.
         22    1    3    3    0    0  0.11875004577E+02 -0.12755765887E+02 -0.22259867763E+03  0.22327986156E+03  0.00000000000E+00 0. -1.
</event>
<event>
 7    1  0.6219721E-006  0.3533589E+02  0.7818608E-02  0.1619884E+00
          2   -1    0    0  502    0  0.00000000000E+00  0.00000000000E+00  0.10081250694E+03  0.10081250694E+03  0.00000000000E+00 0. -1.
          1   -1    0    0  501    0 -0.00000000000E+00 -0.00000000000E+00 -0.61811775026E+03  0.61811775026E+03  0.00000000000E+00 0. -1.
         25    2    1    2    0    0  0.55174185009E+02 -0.15010934145E+02 -0.34814833433E+03  0.37430160006E+03  0.12499962509E+03 0.  0.
          2    1    1    2  501    0 -0.22173301820E+02  0.29843122232E+01 -0.25286357769E+03  0.25385143362E+03  0.00000000000E+00 0. -1.
          1    1    1    2  502    0 -0.33000883189E+02  0.12026621922E+02  0.83706668691E+02  0.90777223516E+02  0.00000000000E+00 0. -1.
         22    1    3    3    0    0  0.68916439542E+02  0.37555646143E+02 -0.15616854751E+03  0.17478134176E+03  0.00000000000E+00 0.  1.
         22    1    3    3    0    0 -0.13742254533E+02 -0.52566580288E+02 -0.19197978683E+03  0.19952025830E+03  0.00000000000E+00 0.  1.
</event>
<event>
 7    1  0.8548483E-006  0.1017679E+03  0.7818608E-02  0.1318948E+00
          2   -1    0    0  502    0  0.00000000000E+00  0.00000000000E+00  0.10561801323E+04  0.10561801323E+04  0.00000000000E+00 0. -1.
          1   -1    0    0  501    0 -0.00000000000E+00 -0.00000000000E+00 -0.13030822023E+04  0.13030822023E+04  0.00000000000E+00 0. -1.
         25    2    1    2    0    0 -0.15385460226E+02 -0.73089583601E+02 -0.11792355122E+03  0.18737874759E+03  0.12500412592E+03 0.  0.
          2    1    1    2  501    0  0.67019249295E+02 -0.15509703420E+02 -0.11468240498E+04  0.11488853432E+04  0.00000000000E+00 0. -1.
          1    1    1    2  502    0 -0.51633789069E+02  0.88599287021E+02  0.10178455310E+04  0.10229982438E+04  0.00000000000E+00 0. -1.
         22    1    3    3    0    0 -0.12128122123E+02 -0.10310798931E+03 -0.54774650004E+02  0.11738232869E+03  0.00000000000E+00 0.  1.
         22    1    3    3    0    0 -0.32573381037E+01  0.30018405713E+02 -0.63148901214E+02  0.69996418892E+02  0.00000000000E+00 0.  1.
</event>
<event>
 7    1  0.6219721E-006  0.1464323E+03  0.7818608E-02  0.1282260E+00
          2   -1    0    0  502    0  0.00000000000E+00  0.00000000000E+00  0.13937974308E+03  0.13937974308E+03  0.00000000000E+00 0. -1.
          1   -1    0    0  501    0 -0.00000000000E+00 -0.00000000000E+00 -0.22855695870E+04  0.22855695870E+04  0.00000000000E+00 0. -1.
         25    2    1    2    0    0 -0.58889047970E+01 -0.98170582597E+02 -0.14042917965E+04  0.14132700816E+04  0.12499892607E+03 0.  0.
          2    1    1    2  501    0 -0.56497615526E+02 -0.36068625392E+02 -0.83442486922E+03  0.83711276938E+03  0.00000000000E+00 0. -1.
          1    1    1    2  502    0  0.62386520323E+02  0.13423920799E+03  0.92526821742E+02  0.17456647909E+03  0.00000000000E+00 0. -1.
         22    1    3    3    0    0 -0.45744413453E+02 -0.10768635119E+03 -0.96346646413E+03  0.97054444983E+03  0.00000000000E+00 0.  1.
         22    1    3    3    0    0  0.39855508656E+02  0.95157685921E+01 -0.44082533233E+03  0.44272563179E+03  0.00000000000E+00 0.  1.
</event>
<event>
 7    1  0.8192455E-006  0.1004528E+03  0.7818608E-02  0.1324822E+00
          2   -1    0    0  502    0  0.00000000000E+00  0.00000000000E+00  0.21691345047E+04  0.21691345047E+04  0.00000000000E+00 0. -1.
          1   -1    0    0  501    0 -0.00000000000E+00 -0.00000000000E+00 -0.24583648572E+04  0.24583648572E+04  0.00000000000E+00 0. -1.
         25    2    1    2    0    0  0.10989384621E+03  0.10644388600E+03 -0.12270641147E+04  0.12428668005E+04  0.12499833567E+03 0.  0.
          2    1    1    2  501    0 -0.53221267821E+02 -0.72348449570E+02 -0.12212438972E+04  0.12245421422E+04  0.00000000000E+00 0. -1.
          1    1    1    2  502    0 -0.56672578391E+02 -0.34095436432E+02  0.21590776594E+04  0.21600904192E+04  0.00000000000E+00 0. -1.
         22    1    3    3    0    0 -0.14160252901E+02  0.27031132692E+01 -0.39332978751E+03  0.39359387867E+03  0.00000000000E+00 0. -1.
         22    1    3    3    0    0  0.12405409911E+03  0.10374077273E+03 -0.83373432715E+03  0.84927292180E+03  0.00000000000E+00 0. -1.
</event>
<event>
 7    1  0.6219721E-006  0.7032513E+02  0.7818608E-02  0.1523778E+00
          2   -1    0    0  502    0  0.00000000000E+00  0.00000000000E+00  0.56848336697E+03  0.56848336697E+03  0.00000000000E+00 0. -1.
          1   -1    0    0  501    0 -0.00000000000E+00 -0.00000000000E+00 -0.10453004487E+03  0.10453004487E+03  0.00000000000E+00 0. -1.
         25    2    1    2    0    0  0.52315958001E+02 -0.18831951236E+02  0.30073251786E+02  0.14007575259E+03  0.12500085656E+03 0.  0.
          2    1    1    2  501    0  0.18155191737E+02  0.95006813322E+01 -0.44665318320E+02  0.49141271793E+02  0.00000000000E+00 0. -1.
          1    1    1    2  502    0 -0.70471149737E+02  0.93312699036E+01  0.47854538863E+03  0.48379638746E+03  0.00000000000E+00 0. -1.
         22    1    3    3    0    0  0.10114100759E+02 -0.51935844493E+02  0.58906309488E+02  0.79180681197E+02  0.00000000000E+00 0. -1.
         22    1    3    3    0    0  0.42201857242E+02  0.33103893257E+02 -0.28833057702E+02  0.60895071392E+02  0.00000000000E+00 0. -1.
</event>
<event>
 7    1  0.6219721E-006  0.8397143E+02  0.7818608E-02  0.1339143E+00
          2   -1    0    0  502    0  0.00000000000E+00  0.00000000000E+00  0.44852467167E+04  0.44852467167E+04  0.00000000000E+00 0. -1.
          1   -1    0    0  501    0 -0.00000000000E+00 -0.00000000000E+00 -0.19093625729E+02  0.19093625729E+02  0.00000000000E+00 0. -1.
         25    2    1    2    0    0 -0.26887027436E+02  0.28493175673E+01  0.88970369037E+03  0.89884840187E+03  0.12499904808E+03 0.  0.
          2    1    1    2  501    0  0.90922580585E+02  0.24878862383E+02  0.14264140856E+03  0.17097498323E+03  0.00000000000E+00 0. -1.
          1    1    1    2  502    0 -0.64035553149E+02 -0.27728179950E+02  0.34338079921E+04  0.34345169574E+04  0.00000000000E+00 0. -1.
         22    1    3    3    0    0 -0.27298654336E+02  0.41975386739E+02  0.79228215511E+03  0.79386281114E+03  0.00000000000E+00 0. -1.
         22    1    3    3    0    0  0.41162690061E+00 -0.39126069172E+02  0.97421535269E+02  0.10498559072E+03  0.00000000000E+00 0. -1.
</event>
<event>
 7    1  0.6219721E-006  0.6012505E+03  0.7818608E-02  0.1133907E+00
          2   -1    0    0  502    0  0.00000000000E+00  0.00000000000E+00  0.27047582537E+04  0.27047582537E+04  0.00000000000E+00 0. -1.
          1   -1    0    0  501    0 -0.00000000000E+00 -0.00000000000E+00 -0.49661986707E+03  0.49661986707E+03  0.00000000000E+00 0. -1.
         25    2    1    2    0    0 -0.15339898110E+03  0.63336496059E+03  0.58276956804E+03  0.88313512272E+03  0.12499941938E+03 0.  0.
          2    1    1    2  501    0  0.17823820030E+03 -0.55681874343E+03 -0.98162645580E+02  0.59283376596E+03  0.00000000000E+00 0. -1.
          1    1    1    2  502    0 -0.24839219192E+02 -0.76546217166E+02  0.17235314642E+04  0.17254092321E+04  0.00000000000E+00 0. -1.
         22    1    3    3    0    0 -0.13524683668E+03  0.61808806032E+03  0.53031873380E+03  0.82556799632E+03  0.00000000000E+00 0. -1.
         22    1    3    3    0    0 -0.18152144425E+02  0.15276900274E+02  0.52450834241E+02  0.57567126399E+02  0.00000000000E+00 0. -1.
</event>
<event>
 7    1  0.6219721E-006  0.5142704E+02  0.7818608E-02  0.1513624E+00
          2   -1    0    0  502    0  0.00000000000E+00  0.00000000000E+00  0.69575709657E+02  0.69575709657E+02  0.00000000000E+00 0. -1.
          1   -1    0    0  501    0 -0.00000000000E+00 -0.00000000000E+00 -0.48555660144E+03  0.48555660144E+03  0.00000000000E+00 0. -1.
         25    2    1    2    0    0  0.72119505917E+02 -0.33814384607E+01 -0.18995514026E+03  0.23857965585E+03  0.12499855845E+03 0.  0.
          2    1    1    2  501    0 -0.25569949003E+02 -0.15676308846E+02 -0.25616475949E+03  0.25791462338E+03  0.00000000000E+00 0. -1.
          1    1    1    2  502    0 -0.46549556914E+02  0.19057747307E+02  0.30139007954E+02  0.58638031871E+02  0.00000000000E+00 0. -1.
         22    1    3    3    0    0  0.10312621387E+03 -0.33784182408E+01 -0.17720008704E+03  0.20505194597E+03  0.00000000000E+00 0.  1.
         22    1    3    3    0    0 -0.31006707957E+02 -0.30202199595E-02 -0.12755053218E+02  0.33527709884E+02  0.00000000000E+00 0.  1.
</event>
<event>
 7    1  0.6219721E-006  0.5296120E+02  0.7818608E-02  0.1436239E+00
          2   -1    0    0  502    0  0.00000000000E+00  0.00000000000E+00  0.29719285838E+03  0.29719285838E+03  0.00000000000E+00 0. -1.
          1   -1    0    0  501    0 -0.00000000000E+00 -0.00000000000E+00 -0.12231069334E+04  0.12231069334E+04  0.00000000000E+00 0. -1.
         25    2    1    2    0    0 -0.56527163245E+01 -0.79548762993E+02 -0.40735604335E+03  0.43350035432E+03  0.12499460889E+03 0.  0.
          2    1    1    2  501    0 -0.29413413670E+02  0.43176108212E+02 -0.79957345955E+03  0.80127838011E+03  0.00000000000E+00 0. -1.
          1    1    1    2  502    0  0.35066129995E+02  0.36372654781E+02  0.28101542787E+03  0.28552105735E+03  0.00000000000E+00 0. -1.
         22    1    3    3    0    0 -0.60008500018E+02 -0.13181022206E+02 -0.14514373518E+03  0.15761174855E+03  0.00000000000E+00 0.  1.
         22    1    3    3    0    0  0.54355783694E+02 -0.66367740787E+02 -0.26221230817E+03  0.27588860577E+03  0.00000000000E+00 0.  1.
</event>
<event>
 7    1  0.6219721E-006  0.5204206E+02  0.7818608E-02  0.1435192E+00
          2   -1    0    0  502    0  0.00000000000E+00  0.00000000000E+00  0.86928929171E+03  0.86928929171E+03  0.00000000000E+00 0. -1.
          1   -1    0    0  501    0 -0.00000000000E+00 -0.00000000000E+00 -0.17458736509E+03  0.17458736509E+03  0.00000000000E+00 0. -1.
         25    2    1    2    0    0 -0.12854237677E+02 -0.56120478082E+02  0.12953236435E+03  0.18899649372E+03  0.12500520684E+03 0.  0.
          2    1    1    2  501    0 -0.35877125090E+02  0.38491879258E+02 -0.13909311781E+03  0.14871344356E+03  0.00000000000E+00 0. -1.
          1    1    1    2  502    0  0.48731362767E+02  0.17628598824E+02  0.70426268008E+03  0.70616671952E+03  0.00000000000E+00 0. -1.
         22    1    3    3    0    0 -0.27549740194E+02 -0.72567522177E+02  0.24091938827E+02  0.81273950169E+02  0.00000000000E+00 0. -1.
         22    1    3    3    0    0  0.14695502517E+02  0.16447044094E+02  0.10544042553E+03  0.10772254355E+03  0.00000000000E+00 0. -1.
</event>
<event>
 7    1  0.6219721E-006  0.5402968E+02  0.7818608E-02  0.1509144E+00
          2   -1    0    0  502    0  0.00000000000E+00  0.00000000000E+00  0.13020010356E+03  0.13020010356E+03  0.00000000000E+00 0. -1.
          1   -1    0    0  501    0 -0.00000000000E+00 -0.00000000000E+00 -0.61431956828E+03  0.61431956828E+03  0.00000000000E+00 0. -1.
         25    2    1    2    0    0  0.40804202768E+02  0.18317592064E+02 -0.42659312925E+03  0.44677444983E+03  0.12500077581E+03 0.  0.
          2    1    1    2  501    0  0.12840650426E+02 -0.26477007416E+02 -0.17017950994E+03  0.17270489231E+03  0.00000000000E+00 0. -1.
          1    1    1    2  502    0 -0.53644853193E+02  0.81594153524E+01  0.11265317447E+03  0.12504032970E+03  0.00000000000E+00 0. -1.
         22    1    3    3    0    0  0.29718165684E+02  0.68979946989E+02 -0.31326895078E+03  0.32214723028E+03  0.00000000000E+00 0. -1.
         22    1    3    3    0    0  0.11086037084E+02 -0.50662354925E+02 -0.11332417848E+03  0.12462721955E+03  0.00000000000E+00 0. -1.
</event>
<event>
 7    1  0.6219721E-006  0.5375501E+02  0.7818608E-02  0.1460023E+00
          2   -1    0    0  502    0  0.00000000000E+00  0.00000000000E+00  0.90082940410E+03  0.90082940410E+03  0.00000000000E+00 0. -1.
          1   -1    0    0  501    0 -0.00000000000E+00 -0.00000000000E+00 -0.64241515817E+02  0.64241515817E+02  0.00000000000E+00 0. -1.
         25    2    1    2    0    0  0.43910175188E+02 -0.77622417624E+02  0.10574259422E+03  0.18643911945E+03  0.12499882329E+03 0.  0.
          2    1    1    2  501    0 -0.27221814665E+02  0.39345744396E+02  0.12689803177E+01  0.47861520105E+02  0.00000000000E+00 0. -1.
          1    1    1    2  502    0 -0.16688360523E+02  0.38276673227E+02  0.72957631374E+03  0.73077028036E+03  0.00000000000E+00 0. -1.
         22    1    3    3    0    0  0.50087777615E+02 -0.18590663214E+01  0.97945763855E+02  0.11002551636E+03  0.00000000000E+00 0.  1.
         22    1    3    3    0    0 -0.61776024266E+01 -0.75763351302E+02  0.77968303675E+01  0.76413603082E+02  0.00000000000E+00 0.  1.
</event>
<event>
 7    1  0.6219721E-006  0.8749739E+02  0.7818608E-02  0.1352072E+00
          2   -1    0    0  502    0  0.00000000000E+00  0.00000000000E+00  0.21837781969E+04  0.21837781969E+04  0.00000000000E+00 0. -1.
          1   -1    0    0  501    0 -0.00000000000E+00 -0.00000000000E+00 -0.15123659208E+04  0.15123659208E+04  0.00000000000E+00 0. -1.
         25    2    1    2    0    0  0.23152386523E+02 -0.39709677473E+02  0.37525337506E+03  0.39818705643E+03  0.12499977972E+03 0.  0.
          2    1    1    2  501    0 -0.28512734007E+02 -0.52713243112E+02 -0.14991076273E+04  0.15003050823E+04  0.00000000000E+00 0. -1.
          1    1    1    2  502    0  0.53603474836E+01  0.92422920586E+02  0.17952665283E+04  0.17976519789E+04  0.00000000000E+00 0. -1.
         22    1    3    3    0    0  0.32620427374E+02 -0.56862628844E+02  0.37270871199E+03  0.37842996028E+03  0.00000000000E+00 0. -1.
         22    1    3    3    0    0 -0.94680408509E+01  0.17152951370E+02  0.25446630648E+01  0.19757096153E+02  0.00000000000E+00 0. -1.
</event>
<event>
 7    1  0.6219721E-006  0.1187544E+03  0.7818608E-02  0.1326159E+00
          2   -1    0    0  502    0  0.00000000000E+00  0.00000000000E+00  0.40628403505E+03  0.40628403505E+03  0.00000000000E+00 0. -1.
          1   -1    0    0  501    0 -0.00000000000E+00 -0.00000000000E+00 -0.78046040044E+03  0.78046040044E+03  0.00000000000E+00 0. -1.
         25    2    1    2    0    0  0.10008352109E+03  0.25915504736E+02  0.24846663899E+03  0.29672989651E+03  0.12499854484E+03 0.  0.
          2    1    1    2  501    0  0.28239791886E+02  0.47530317424E+02 -0.71404917715E+03  0.71618631955E+03  0.00000000000E+00 0. -1.
          1    1    1    2  502    0 -0.12832331298E+03 -0.73445822160E+02  0.91406172774E+02  0.17382821942E+03  0.00000000000E+00 0. -1.
         22    1    3    3    0    0  0.59267687913E+02  0.57032220110E+02  0.61104044865E+02  0.10246480986E+03  0.00000000000E+00 0. -1.
         22    1    3    3    0    0  0.40815833181E+02 -0.31116715374E+02  0.18736259412E+03  0.19426508665E+03  0.00000000000E+00 0. -1.
</event>
<event>
 7    1  0.6219721E-006  0.1426274E+03  0.7818608E-02  0.1390221E+00
          2   -1    0    0  502    0  0.00000000000E+00  0.00000000000E+00  0.11368850276E+04  0.11368850276E+04  0.00000000000E+00 0. -1.
          1   -1    0    0  501    0 -0.00000000000E+00 -0.00000000000E+00 -0.34436295780E+03  0.34436295780E+03  0.00000000000E+00 0. -1.
         25    2    1    2    0    0 -0.75422683322E+02 -0.13312226202E+03  0.66307604376E+02  0.20840233835E+03  0.12499887370E+03 0.  0.
          2    1    1    2  501    0  0.26820552492E+02 -0.33237205296E+00 -0.26759629275E+03  0.26893722019E+03  0.00000000000E+00 0. -1.
          1    1    1    2  502    0  0.48602130830E+02  0.13345463407E+03  0.99381075821E+03  0.10039084269E+04  0.00000000000E+00 0. -1.
         22    1    3    3    0    0 -0.10500119088E+03 -0.79280186936E+02  0.65483884277E+02  0.14696508846E+03  0.00000000000E+00 0. -1.
         22    1    3    3    0    0  0.29578507558E+02 -0.53842075085E+02  0.82372009839E+00  0.61437249887E+02  0.00000000000E+00 0. -1.
</event>
<event>
 7    1  0.6219721E-006  0.3084467E+02  0.7818608E-02  0.1600485E+00
          2   -1    0    0  502    0  0.00000000000E+00  0.00000000000E+00  0.11090845477E+04  0.11090845477E+04  0.00000000000E+00 0. -1.
          1   -1    0    0  501    0 -0.00000000000E+00 -0.00000000000E+00 -0.21786141726E+04  0.21786141726E+04  0.00000000000E+00 0. -1.
         25    2    1    2    0    0 -0.20777795049E+02  0.38495233597E+02 -0.17307351026E+03  0.21792905653E+03  0.12500013581E+03 0.  0.
          2    1    1    2  501    0  0.27507563711E+02 -0.83962005804E+01 -0.19827897351E+04  0.19829983096E+04  0.00000000000E+00 0. -1.
          1    1    1    2  502    0 -0.67297686622E+01 -0.30099033017E+02  0.10863336204E+04  0.10867713542E+04  0.00000000000E+00 0. -1.
         22    1    3    3    0    0 -0.26309013116E+02  0.75955526175E+02 -0.64877318485E+02  0.10329797956E+03  0.00000000000E+00 0. -1.
         22    1    3    3    0    0  0.55312180667E+01 -0.37460292578E+02 -0.10819619178E+03  0.11463107697E+03  0.00000000000E+00 0. -1.
</event>
<event>
 7    1  0.6219721E-006  0.5702978E+02  0.7818608E-02  0.1423913E+00
          2   -1    0    0  502    0  0.00000000000E+00  0.00000000000E+00  0.58561233313E+03  0.58561233313E+03  0.00000000000E+00 0. -1.
          1   -1    0    0  501    0 -0.00000000000E+00 -0.00000000000E+00 -0.12466697530E+04  0.12466697530E+04  0.00000000000E+00 0. -1.
         25    2    1    2    0    0 -0.78253530070E+02 -0.70722451188E+01 -0.67752878562E+03  0.69342513851E+03  0.12497814111E+03 0.  0.
          2    1    1    2  501    0  0.45476399211E+02 -0.32668173422E+02 -0.55864197660E+03  0.56144115494E+03  0.00000000000E+00 0. -1.
          1    1    1    2  502    0  0.32777130860E+02  0.39740418541E+02  0.57511334231E+03  0.57741579272E+03  0.00000000000E+00 0. -1.
         22    1    3    3    0    0  0.28068962485E+01 -0.53902787766E+02 -0.24069515663E+03  0.24667295681E+03  0.00000000000E+00 0.  1.
         22    1    3    3    0    0 -0.81060426319E+02  0.46830542647E+02 -0.43683362898E+03  0.44675218169E+03  0.00000000000E+00 0.  1.
</event>
<event>
 7    1  0.6219721E-006  0.5252038E+02  0.7818608E-02  0.1521828E+00
          2   -1    0    0  502    0  0.00000000000E+00  0.00000000000E+00  0.25541000633E+03  0.25541000633E+03  0.00000000000E+00 0. -1.
          1   -1    0    0  501    0 -0.00000000000E+00 -0.00000000000E+00 -0.68794596815E+03  0.68794596815E+03  0.00000000000E+00 0. -1.
         25    2    1    2    0    0  0.71187218159E+02 -0.78918555628E+01 -0.10849367906E+03  0.18034968332E+03  0.12500091386E+03 0.  0.
          2    1    1    2  501    0 -0.47159113863E+02  0.21865757369E+02 -0.54139433301E+03  0.54388410271E+03  0.00000000000E+00 0. -1.
          1    1    1    2  502    0 -0.24028104296E+02 -0.13973901806E+02  0.21735205024E+03  0.21912218845E+03  0.00000000000E+00 0. -1.
         22    1    3    3    0    0  0.80409570653E+02 -0.54095433928E+02 -0.74961445775E+02  0.12252033863E+03  0.00000000000E+00 0.  1.
         22    1    3    3    0    0 -0.92223524941E+01  0.46203578365E+02 -0.33532233280E+02  0.57829344696E+02  0.00000000000E+00 0.  1.
</event>
<event>
 7    1  0.6219721E-006  0.6529521E+02  0.7818608E-02  0.1422325E+00
          2   -1    0    0  502    0  0.00000000000E+00  0.00000000000E+00  0.17331745147E+04  0.17331745147E+04  0.00000000000E+00 0. -1.
          1   -1    0    0  501    0 -0.00000000000E+00 -0.00000000000E+00 -0.27513626673E+03  0.27513626673E+03  0.00000000000E+00 0. -1.
         25    2    1    2    0    0  0.53017495650E+02  0.57448742833E+02  0.24777350573E+03  0.28831255023E+03  0.12498481340E+03 0.  0.
          2    1    1    2  501    0 -0.44939730173E+02  0.73877401595E+01 -0.25209690105E+03  0.25617768359E+03  0.00000000000E+00 0. -1.
          1    1    1    2  502    0 -0.80777654773E+01 -0.64836482992E+02  0.14623616433E+04  0.14638205476E+04  0.00000000000E+00 0. -1.
         22    1    3    3    0    0 -0.24937743311E+02  0.53471633003E+02  0.16164363382E+03  0.17207489919E+03  0.00000000000E+00 0. -1.
         22    1    3    3    0    0  0.77955238961E+02  0.39771098296E+01  0.86129871910E+02  0.11623765104E+03  0.00000000000E+00 0. -1.
</event>
<event>
 7    1  0.6219721E-006  0.5884251E+02  0.7818608E-02  0.1518406E+00
          2   -1    0    0  502    0  0.00000000000E+00  0.00000000000E+00  0.37862746091E+03  0.37862746091E+03  0.00000000000E+00 0. -1.
          1   -1    0    0  501    0 -0.00000000000E+00 -0.00000000000E+00 -0.18798050553E+03  0.18798050553E+03  0.00000000000E+00 0. -1.
         25    2    1    2    0    0  0.45832876742E+01 -0.44644827289E+02  0.92746423284E+02  0.16199002504E+03  0.12499880819E+03 0.  0.
          2    1    1    2  501    0  0.17599981876E+02  0.56983021842E+02 -0.14687926394E+03  0.15852552576E+03  0.00000000000E+00 0. -1.
          1    1    1    2  502    0 -0.22183269550E+02 -0.12338194554E+02  0.24477979604E+03  0.24609241565E+03  0.00000000000E+00 0. -1.
         22    1    3    3    0    0 -0.26921084030E+02  0.33827725629E+02  0.53447597212E+02  0.68743766513E+02  0.00000000000E+00 0.  1.
         22    1    3    3    0    0  0.31504371704E+02 -0.78472552917E+02  0.39298826072E+02  0.93246258523E+02  0.00000000000E+00 0.  1.
</event>
<event>
 7    1  0.6219721E-006  0.1048920E+03  0.7818608E-02  0.1339204E+00
          2   -1    0    0  502    0  0.00000000000E+00  0.00000000000E+00  0.61779816579E+03  0.61779816579E+03  0.00000000000E+00 0. -1.
          1   -1    0    0  501    0 -0.00000000000E+00 -0.00000000000E+00 -0.56370665739E+03  0.56370665739E+03  0.00000000000E+00 0. -1.
         25    2    1    2    0    0 -0.60276195522E+02  0.70588146712E+02 -0.32062159175E+02  0.15896188678E+03  0.12499997277E+03 0.  0.
          2    1    1    2  501    0  0.10194584676E+03 -0.33426014077E+02 -0.46060814270E+03  0.47293774983E+03  0.00000000000E+00 0. -1.
          1    1    1    2  502    0 -0.41669651235E+02 -0.37162132636E+02  0.54676181028E+03  0.54960518658E+03  0.00000000000E+00 0. -1.
         22    1    3    3    0    0 -0.18174278597E+02  0.10140652987E+03 -0.27244591420E+02  0.10656386097E+03  0.00000000000E+00 0. -1.
         22    1    3    3    0    0 -0.42101916925E+02 -0.30818383159E+02 -0.48175677544E+01  0.52398025806E+02  0.00000000000E+00 0. -1.
</event>
<event>
 7    1  0.6219721E-006  0.4006766E+02  0.7818608E-02  0.1518641E+00
          2   -1    0    0  502    0  0.00000000000E+00  0.00000000000E+00  0.11802124729E+04  0.11802124729E+04  0.00000000000E+00 0. -1.
          1   -1    0    0  501    0 -0.00000000000E+00 -0.00000000000E+00 -0.12441801696E+04  0.12441801696E+04  0.00000000000E+00 0. -1.
         25    2    1    2    0    0  0.19161276113E+02  0.14693976263E+02 -0.24498175425E+02  0.12964923080E+03  0.12500278000E+03 0.  0.
          2    1    1    2  501    0  0.87645988625E+01 -0.39299448221E+02 -0.11664518765E+04  0.11671466253E+04  0.00000000000E+00 0. -1.
          1    1    1    2  502    0 -0.27925874976E+02  0.24605471958E+02  0.11269823552E+04  0.11275967864E+04  0.00000000000E+00 0. -1.
         22    1    3    3    0    0  0.32779238129E+02 -0.49581416421E+02 -0.23571061240E+02  0.63940521069E+02  0.00000000000E+00 0. -1.
         22    1    3    3    0    0 -0.13617962015E+02  0.64275392684E+02 -0.92711418472E+00  0.65708709734E+02  0.00000000000E+00 0. -1.
</event>
<event>
 7    1  0.6219721E-006  0.3390128E+02  0.7818608E-02  0.1604648E+00
          2   -1    0    0  502    0  0.00000000000E+00  0.00000000000E+00  0.61166139181E+02  0.61166139181E+02  0.00000000000E+00 0. -1.
          1   -1    0    0  501    0 -0.00000000000E+00 -0.00000000000E+00 -0.12954565895E+04  0.12954565895E+04  0.00000000000E+00 0. -1.
         25    2    1    2    0    0 -0.31547610163E+02 -0.82378253223E+01 -0.17847843298E+03  0.22032496806E+03  0.12500170815E+03 0.  0.
          2    1    1    2  501    0  0.29376553022E+02 -0.17191912058E+02 -0.10917162158E+04  0.10922466936E+04  0.00000000000E+00 0. -1.
          1    1    1    2  502    0  0.21710571409E+01  0.25429737380E+02  0.35904198530E+02  0.44051067006E+02  0.00000000000E+00 0. -1.
         22    1    3    3    0    0  0.12221565711E+02  0.41840581265E+02 -0.19031881166E+02  0.47562731311E+02  0.00000000000E+00 0. -1.
         22    1    3    3    0    0 -0.43769175874E+02 -0.50078406587E+02 -0.15944655181E+03  0.17276223675E+03  0.00000000000E+00 0. -1.
</event>
<event>
 7    1  0.6219721E-006  0.5660462E+02  0.7818608E-02  0.1502813E+00
          2   -1    0    0  502    0  0.00000000000E+00  0.00000000000E+00  0.93172177915E+03  0.93172177915E+03  0.00000000000E+00 0. -1.
          1   -1    0    0  501    0 -0.00000000000E+00 -0.00000000000E+00 -0.85414488674E+02  0.85414488674E+02  0.00000000000E+00 0. -1.
         25    2    1    2    0    0 -0.84109151717E+02  0.50522878580E+01  0.26987982796E+03  0.30912463081E+03  0.12499216303E+03 0.  0.
          2    1    1    2  501    0  0.29241959035E+02 -0.22227448662E+01 -0.61283238808E+02  0.67938708567E+02  0.00000000000E+00 0. -1.
          1    1    1    2  502    0  0.54867192683E+02 -0.28295429918E+01  0.63771070133E+03  0.64007292845E+03  0.00000000000E+00 0. -1.
         22    1    3    3    0    0 -0.29622527443E+01 -0.49582597473E+01  0.20411279762E+03  0.20419449903E+03  0.00000000000E+00 0.  1.
         22    1    3    3    0    0 -0.81146898973E+02  0.10010547605E+02  0.65767030340E+02  0.10493013178E+03  0.00000000000E+00 0.  1.
</event>
<event>
 7    1  0.6219721E-006  0.3895854E+02  0.7818608E-02  0.1526884E+00
          2   -1    0    0  502    0  0.00000000000E+00  0.00000000000E+00  0.57131697563E+03  0.57131697563E+03  0.00000000000E+00 0. -1.
          1   -1    0    0  501    0 -0.00000000000E+00 -0.00000000000E+00 -0.37869374450E+03  0.37869374450E+03  0.00000000000E+00 0. -1.
         25    2    1    2    0    0 -0.33351964277E+01 -0.30183621353E+00  0.10699319638E+03  0.16456544226E+03  0.12499210404E+03 0.  0.
          2    1    1    2  501    0  0.34052292052E+02  0.19519966327E+02 -0.34804902074E+03  0.35025520484E+03  0.00000000000E+00 0. -1.
          1    1    1    2  502    0 -0.30717095624E+02 -0.19218130114E+02  0.43367905550E+03  0.43519007303E+03  0.00000000000E+00 0. -1.
         22    1    3    3    0    0 -0.24146784506E+02 -0.35323629200E+02 -0.71397363007E+01  0.43379739698E+02  0.00000000000E+00 0.  1.
         22    1    3    3    0    0  0.20811588079E+02  0.35021792987E+02  0.11413293268E+03  0.12118570256E+03  0.00000000000E+00 0.  1.
</event>
<event>
 7    1  0.6219721E-006  0.1309822E+03  0.7818608E-02  0.1419626E+00
          2   -1    0    0  502    0  0.00000000000E+00  0.00000000000E+00  0.53656166987E+02  0.53656166987E+02  0.00000000000E+00 0. -1.
          1   -1    0    0  501    0 -0.00000000000E+00 -0.00000000000E+00 -0.25425610170E+04  0.25425610170E+04  0.00000000000E+00 0. -1.
         25    2    1    2    0    0  0.53152054701E+02  0.11591251345E+03 -0.29472347722E+03  0.34459793124E+03  0.12499981799E+03 0.  0.
          2    1    1    2  501    0 -0.74918763213E+02 -0.10794573839E+03 -0.22159373549E+04  0.22198296025E+04  0.00000000000E+00 0. -1.
          1    1    1    2  502    0  0.21766708513E+02 -0.79667750619E+01  0.21755982088E+02  0.31789650218E+02  0.00000000000E+00 0. -1.
         22    1    3    3    0    0  0.75171864728E+01  0.28120109179E+02 -0.21655194914E+03  0.21849941718E+03  0.00000000000E+00 0. -1.
         22    1    3    3    0    0  0.45634868228E+02  0.87792404268E+02 -0.78171528086E+02  0.12609851406E+03  0.00000000000E+00 0. -1.
</event>
<event>
 7    1  0.6219721E-006  0.7392203E+02  0.7818608E-02  0.1386438E+00
          2   -1    0    0  502    0  0.00000000000E+00  0.00000000000E+00  0.11628037626E+03  0.11628037626E+03  0.00000000000E+00 0. -1.
          1   -1    0    0  501    0 -0.00000000000E+00 -0.00000000000E+00 -0.36055884962E+03  0.36055884962E+03  0.00000000000E+00 0. -1.
         25    2    1    2    0    0  0.82313421257E-01  0.97675743824E+02 -0.29450615919E+03  0.33451330183E+03  0.12499885437E+03 0.  0.
          2    1    1    2  501    0  0.21838287184E+02 -0.49033190218E+02 -0.17179656042E+02  0.56358718153E+02  0.00000000000E+00 0. -1.
          1    1    1    2  502    0 -0.21920600605E+02 -0.48642553606E+02  0.67407341873E+02  0.85967205902E+02  0.00000000000E+00 0. -1.
         22    1    3    3    0    0  0.56966368979E+02  0.69353298845E+02 -0.21320201092E+03  0.23132259880E+03  0.00000000000E+00 0. -1.
         22    1    3    3    0    0 -0.56884055557E+02  0.28322444979E+02 -0.81304148270E+02  0.10319070303E+03  0.00000000000E+00 0. -1.
</event>
<event>
 7    1  0.6219721E-006  0.6574803E+02  0.7818608E-02  0.1450638E+00
          2   -1    0    0  502    0  0.00000000000E+00  0.00000000000E+00  0.20115608220E+04  0.20115608220E+04  0.00000000000E+00 0. -1.
          1   -1    0    0  501    0 -0.00000000000E+00 -0.00000000000E+00 -0.57257760352E+03  0.57257760352E+03  0.00000000000E+00 0. -1.
         25    2    1    2    0    0  0.16593216436E+01  0.99125513465E+02 -0.32557777929E+03  0.36256733122E+03  0.12500223411E+03 0.  0.
          2    1    1    2  501    0  0.11407188254E+02 -0.34739942609E+02 -0.22649701171E+03  0.22942947471E+03  0.00000000000E+00 0. -1.
          1    1    1    2  502    0 -0.13066509898E+02 -0.64385570856E+02  0.19910580095E+04  0.19921416196E+04  0.00000000000E+00 0. -1.
         22    1    3    3    0    0  0.97221994598E+01  0.11409808402E+03 -0.32603052575E+03  0.34555578082E+03  0.00000000000E+00 0. -1.
         22    1    3    3    0    0 -0.80628778162E+01 -0.14972570554E+02  0.45274645768E+00  0.17011550401E+02  0.00000000000E+00 0. -1.
</event>
<event>
 7    1  0.6219721E-006  0.8316283E+02  0.7818608E-02  0.1412481E+00
          2   -1    0    0  502    0  0.00000000000E+00  0.00000000000E+00  0.12785642690E+02  0.12785642690E+02  0.00000000000E+00 0. -1.
          1   -1    0    0  501    0 -0.00000000000E+00 -0.00000000000E+00 -0.17213811075E+04  0.17213811075E+04  0.00000000000E+00 0. -1.
         25    2    1    2    0    0  0.13452272945E+02  0.69701587720E+02 -0.78816652824E+03  0.80116824010E+03  0.12499919089E+03 0.  0.
          2    1    1    2  501    0 -0.33649220996E+02  0.18874392607E+02 -0.55887694934E+03  0.56020706643E+03  0.00000000000E+00 0. -1.
          1    1    1    2  502    0  0.20196948051E+02 -0.88575980328E+02 -0.36155198722E+03  0.37279144365E+03  0.00000000000E+00 0. -1.
         22    1    3    3    0    0  0.40582767807E+02  0.76986504045E+02 -0.74228997612E+03  0.74737426468E+03  0.00000000000E+00 0.  1.
         22    1    3    3    0    0 -0.27130494862E+02 -0.72849163244E+01 -0.45876552117E+02  0.53793975420E+02  0.00000000000E+00 0.  1.
</event>
<event>
 7    1  0.6219721E-006  0.4841646E+02  0.7818608E-02  0.1464523E+00
          2   -1    0    0  502    0  0.00000000000E+00  0.00000000000E+00  0.60622831712E+03  0.60622831712E+03  0.00000000000E+00 0. -1.
          1   -1    0    0  501    0 -0.00000000000E+00 -0.00000000000E+00 -0.16512695860E+04  0.16512695860E+04  0.00000000000E+00 0. -1.
         25    2    1    2    0    0 -0.67969025851E+01  0.13439996476E+02 -0.34951848081E+01  0.12595702711E+03  0.12500449980E+03 0.  0.
          2    1    1    2  501    0  0.37109479853E+02  0.25230998875E+02 -0.15851178191E+04  0.15857528866E+04  0.00000000000E+00 0. -1.
          1    1    1    2  502    0 -0.30312577268E+02 -0.38670995350E+02  0.54357173507E+03  0.54578798941E+03  0.00000000000E+00 0. -1.
         22    1    3    3    0    0  0.12317301122E+02 -0.39077871061E+02  0.38364691374E+02  0.56130610702E+02  0.00000000000E+00 0. -1.
         22    1    3    3    0    0 -0.19114203708E+02  0.52517867536E+02 -0.41859876182E+02  0.69826416405E+02  0.00000000000E+00 0. -1.
</event>
<event>
 7    1  0.6219721E-006  0.5782225E+02  0.7818608E-02  0.1426829E+00
          2   -1    0    0  502    0  0.00000000000E+00  0.00000000000E+00  0.24437733850E+04  0.24437733850E+04  0.00000000000E+00 0. -1.
          1   -1    0    0  501    0 -0.00000000000E+00 -0.00000000000E+00 -0.76627579361E+02  0.76627579361E+02  0.00000000000E+00 0. -1.
         25    2    1    2    0    0  0.22234398764E+02  0.63095231229E+02  0.16762963632E+04  0.16822810566E+04  0.12499871866E+03 0.  0.
          2    1    1    2  501    0  0.32167222565E+02 -0.37872367259E+02 -0.63925826665E+02  0.80966398735E+02  0.00000000000E+00 0. -1.
          1    1    1    2  502    0 -0.54401621329E+02 -0.25222863970E+02  0.75477526917E+03  0.75715350902E+03  0.00000000000E+00 0. -1.
         22    1    3    3    0    0  0.24898951784E+02  0.25742986123E+02  0.11307412674E+03  0.11861035904E+03  0.00000000000E+00 0.  1.
         22    1    3    3    0    0 -0.26645530204E+01  0.37352245106E+02  0.15632222364E+04  0.15636706976E+04  0.00000000000E+00 0.  1.
</event>
<event>
 7    1  0.6219721E-006  0.7524850E+02  0.7818608E-02  0.1411066E+00
          2   -1    0    0  502    0  0.00000000000E+00  0.00000000000E+00  0.11869307745E+03  0.11869307745E+03  0.00000000000E+00 0. -1.
          1   -1    0    0  501    0 -0.00000000000E+00 -0.00000000000E+00 -0.23903394313E+03  0.23903394313E+03  0.00000000000E+00 0. -1.
         25    2    1    2    0    0 -0.13598248480E+02 -0.35372422669E+02 -0.10382773829E+03  0.16685630611E+03  0.12499882801E+03 0.  0.
          2    1    1    2  501    0 -0.92873690597E+01 -0.42098852670E+02 -0.78155402928E+02  0.89257132080E+02  0.00000000000E+00 0. -1.
          1    1    1    2  502    0  0.22885617539E+02  0.77471275339E+02  0.61642275529E+02  0.10161358239E+03  0.00000000000E+00 0. -1.
         22    1    3    3    0    0 -0.63565869568E+02 -0.36144833152E+02 -0.88042556444E+02  0.11444894269E+03  0.00000000000E+00 0.  1.
         22    1    3    3    0    0  0.49967621088E+02  0.77241048299E+00 -0.15785181841E+02  0.52407363423E+02  0.00000000000E+00 0.  1.
</event>
<event>
 7    1  0.6219721E-006  0.6492180E+02  0.7818608E-02  0.1382914E+00
          2   -1    0    0  502    0  0.00000000000E+00  0.00000000000E+00  0.13609024271E+03  0.13609024271E+03  0.00000000000E+00 0. -1.
          1   -1    0    0  501    0 -0.00000000000E+00 -0.00000000000E+00 -0.16036306611E+04  0.16036306611E+04  0.00000000000E+00 0. -1.
         25    2    1    2    0    0 -0.46268083886E+02 -0.11063536205E+03 -0.29742143875E+03  0.34418221896E+03  0.12498387374E+03 0.  0.
          2    1    1    2  501    0  0.40752734483E+02  0.48370122161E+02 -0.12733161951E+04  0.12748861074E+04  0.00000000000E+00 0. -1.
          1    1    1    2  502    0  0.55153494036E+01  0.62265239893E+02  0.10319721545E+03  0.12065257749E+03  0.00000000000E+00 0. -1.
         22    1    3    3    0    0  0.26543391818E+02 -0.39402471861E+02 -0.25741304421E+02  0.54034444489E+02  0.00000000000E+00 0. -1.
         22    1    3    3    0    0 -0.72811475704E+02 -0.71232890194E+02 -0.27168013433E+03  0.29014777447E+03  0.00000000000E+00 0. -1.
</event>
<event>
 7    1  0.6219721E-006  0.4590837E+02  0.7818608E-02  0.1500208E+00
          2   -1    0    0  502    0  0.00000000000E+00  0.00000000000E+00  0.68145178273E+03  0.68145178273E+03  0.00000000000E+00 0. -1.
          1   -1    0    0  501    0 -0.00000000000E+00 -0.00000000000E+00 -0.12254078941E+04  0.12254078941E+04  0.00000000000E+00 0. -1.
         25    2    1    2    0    0  0.75463961288E+02  0.17464707555E+02  0.32869982145E+02  0.15067917438E+03  0.12499580954E+03 0.  0.
          2    1    1    2  501    0 -0.30122670129E+02 -0.21157865753E+02 -0.11653348673E+04  0.11659161134E+04  0.00000000000E+00 0. -1.
          1    1    1    2  502    0 -0.45341291159E+02  0.36931581977E+01  0.58850877381E+03  0.59026438903E+03  0.00000000000E+00 0. -1.
         22    1    3    3    0    0  0.16644220198E+02 -0.15106260768E+02  0.70245120241E+02  0.73753685319E+02  0.00000000000E+00 0.  1.
         22    1    3    3    0    0  0.58819741090E+02  0.32570968323E+02 -0.37375138097E+02  0.76925489060E+02  0.00000000000E+00 0.  1.
</event>
<event>
 7    1  0.6219721E-006  0.8118404E+02  0.7818608E-02  0.1395807E+00
          2   -1    0    0  502    0  0.00000000000E+00  0.00000000000E+00  0.14600627820E+04  0.14600627820E+04  0.00000000000E+00 0. -1.
          1   -1    0    0  501    0 -0.00000000000E+00 -0.00000000000E+00 -0.15735148710E+04  0.15735148710E+04  0.00000000000E+00 0. -1.
         25    2    1    2    0    0 -0.11966425040E+03  0.35814101484E+02  0.59835991839E+03  0.62390751852E+03  0.12499526809E+03 0.  0.
          2    1    1    2  501    0  0.79719338060E+02 -0.14954181240E+02 -0.15590881009E+04  0.15611964985E+04  0.00000000000E+00 0. -1.
          1    1    1    2  502    0  0.39944912338E+02 -0.20859920244E+02  0.84727609358E+03  0.84847363603E+03  0.00000000000E+00 0. -1.
         22    1    3    3    0    0 -0.59504785272E+02  0.74548135758E+02  0.43867446385E+03  0.44892485925E+03  0.00000000000E+00 0. -1.
         22    1    3    3    0    0 -0.60159465126E+02 -0.38734034274E+02  0.15968545454E+03  0.17498265927E+03  0.00000000000E+00 0. -1.
</event>
<event>
 7    1  0.6219721E-006  0.7777292E+02  0.7818608E-02  0.1386856E+00
          2   -1    0    0  502    0  0.00000000000E+00  0.00000000000E+00  0.22100090528E+04  0.22100090528E+04  0.00000000000E+00 0. -1.
          1   -1    0    0  501    0 -0.00000000000E+00 -0.00000000000E+00 -0.23409215646E+02  0.23409215646E+02  0.00000000000E+00 0. -1.
         25    2    1    2    0    0  0.65430897454E+02  0.10618794558E+03  0.51661532271E+03  0.54595347162E+03  0.12496687316E+03 0.  0.
          2    1    1    2  501    0 -0.20363084250E+02 -0.46257186321E+02  0.73384081108E+02  0.89104465918E+02  0.00000000000E+00 0. -1.
          1    1    1    2  502    0 -0.45067813204E+02 -0.59930759260E+02  0.15966004333E+04  0.15983603309E+04  0.00000000000E+00 0. -1.
         22    1    3    3    0    0  0.22185811737E+02  0.12309097825E+02  0.75072260263E+01  0.26459073572E+02  0.00000000000E+00 0.  1.
         22    1    3    3    0    0  0.43245085717E+02  0.93878847755E+02  0.50910809669E+03  0.51949439805E+03  0.00000000000E+00 0.  1.
</event>
<event>
 7    1  0.6219721E-006  0.6094733E+02  0.7818608E-02  0.1432315E+00
          2   -1    0    0  502    0  0.00000000000E+00  0.00000000000E+00  0.13333046506E+04  0.13333046506E+04  0.00000000000E+00 0. -1.
          1   -1    0    0  501    0 -0.00000000000E+00 -0.00000000000E+00 -0.39743851088E+03  0.39743851088E+03  0.00000000000E+00 0. -1.
         25    2    1    2    0    0 -0.25310202815E+02  0.10274930980E+02  0.15043583926E+03  0.19748991751E+03  0.12500058085E+03 0.  0.
          2    1    1    2  501    0 -0.34259579592E+01  0.45090193162E+02 -0.37170112230E+03  0.37444170043E+03  0.00000000000E+00 0. -1.
          1    1    1    2  502    0  0.28736160775E+02 -0.55365124142E+02  0.11571314227E+04  0.11588115435E+04  0.00000000000E+00 0. -1.
         22    1    3    3    0    0  0.39106180493E+02  0.15324041975E+02  0.11787694915E+03  0.12513630471E+03  0.00000000000E+00 0.  1.
         22    1    3    3    0    0 -0.64416383309E+02 -0.50491109949E+01  0.32558890108E+02  0.72353612802E+02  0.00000000000E+00 0.  1.
</event>
<event>
 7    1  0.6219721E-006  0.8239812E+02  0.7818608E-02  0.1406575E+00
          2   -1    0    0  502    0  0.00000000000E+00  0.00000000000E+00  0.59199425438E+03  0.59199425438E+03  0.00000000000E+00 0. -1.
          1   -1    0    0  501    0 -0.00000000000E+00 -0.00000000000E+00 -0.92658229118E+03  0.92658229118E+03  0.00000000000E+00 0. -1.
         25    2    1    2    0    0  0.57926732521E+02  0.60043722195E+02  0.10206685465E+02  0.15063300241E+03  0.12500148028E+03 0.  0.
          2    1    1    2  501    0 -0.22141614482E+02 -0.79593905729E+02 -0.85355891835E+03  0.85754782258E+03  0.00000000000E+00 0. -1.
          1    1    1    2  502    0 -0.35785118039E+02  0.19550183533E+02  0.50876419609E+03  0.51039572056E+03  0.00000000000E+00 0. -1.
         22    1    3    3    0    0 -0.27615971014E+02  0.18638187089E+02 -0.32408266252E+02  0.46479238317E+02  0.00000000000E+00 0. -1.
         22    1    3    3    0    0  0.85542703535E+02  0.41405535106E+02  0.42614951717E+02  0.10415376410E+03  0.00000000000E+00 0. -1.
</event>
<event>
 7    1  0.6219721E-006  0.2818741E+03  0.7818608E-02  0.1282238E+00
          2   -1    0    0  502    0  0.00000000000E+00  0.00000000000E+00  0.19440479570E+04  0.19440479570E+04  0.00000000000E+00 0. -1.
          1   -1    0    0  501    0 -0.00000000000E+00 -0.00000000000E+00 -0.15774522931E+03  0.15774522931E+03  0.00000000000E+00 0. -1.
         25    2    1    2    0    0 -0.39392617546E+02  0.25563961397E+03  0.66006403732E+03  0.71986991674E+03  0.12499909243E+03 0.  0.
          2    1    1    2  501    0  0.23265374024E+02 -0.28650950669E+03  0.34370913666E+02  0.28950014639E+03  0.00000000000E+00 0. -1.
          1    1    1    2  502    0  0.16127243522E+02  0.30869892723E+02  0.10918677767E+04  0.10924231232E+04  0.00000000000E+00 0. -1.
         22    1    3    3    0    0 -0.59698070129E+02  0.97665536849E+02  0.38883467299E+03  0.40533297372E+03  0.00000000000E+00 0.  1.
         22    1    3    3    0    0  0.20305452583E+02  0.15797407712E+03  0.27122936433E+03  0.31453694302E+03  0.00000000000E+00 0.  1.
</event>
<event>
 7    1  0.6219721E-006  0.2229220E+03  0.7818608E-02  0.1343538E+00
          2   -1    0    0  502    0  0.00000000000E+00  0.00000000000E+00  0.10265051956E+04  0.10265051956E+04  0.00000000000E+00 0. -1.
          1   -1    0    0  501    0 -0.00000000000E+00 -0.00000000000E+00 -0.44381180122E+03  0.44381180122E+03  0.00000000000E+00 0. -1.
         25    2    1    2    0    0 -0.16096387915E+03 -0.13396955247E+03 -0.98309601008E+01  0.24408415746E+03  0.12499286686E+03 0.  0.
          2    1    1    2  501    0  0.26297180899E+01 -0.25168426952E+02 -0.30246368870E+03  0.30352042454E+03  0.00000000000E+00 0. -1.
          1    1    1    2  502    0  0.15833416106E+03  0.15913797942E+03  0.89498804319E+03  0.92271241484E+03  0.00000000000E+00 0. -1.
         22    1    3    3    0    0 -0.67205511253E+02 -0.65227394413E+01  0.39657265138E+02  0.78305973916E+02  0.00000000000E+00 0.  1.
         22    1    3    3    0    0 -0.93758367900E+02 -0.12744681303E+03 -0.49488225239E+02  0.16577818354E+03  0.00000000000E+00 0.  1.
</event>
<event>
 7    1  0.6219721E-006  0.1335240E+03  0.7818608E-02  0.1254138E+00
          2   -1    0    0  502    0  0.00000000000E+00  0.00000000000E+00  0.34206036225E+03  0.34206036225E+03  0.00000000000E+00 0. -1.
          1   -1    0    0  501    0 -0.00000000000E+00 -0.00000000000E+00 -0.26427354527E+03  0.26427354527E+03  0.00000000000E+00 0. -1.
         25    2    1    2    0    0 -0.44593830232E+02 -0.15957370723E+03  0.46331526356E+02  0.21266154330E+03  0.12500377566E+03 0.  0.
          2    1    1    2  501    0 -0.45232059155E+02  0.12414635841E+03 -0.14273853871E+03  0.19450590715E+03  0.00000000000E+00 0. -1.
          1    1    1    2  502    0  0.89825889386E+02  0.35427348818E+02  0.17419382933E+03  0.19916645708E+03  0.00000000000E+00 0. -1.
         22    1    3    3    0    0 -0.33478199553E+02 -0.28456204215E+02 -0.36545202047E+02  0.57149778620E+02  0.00000000000E+00 0.  1.
         22    1    3    3    0    0 -0.11115630678E+02 -0.13111750301E+03  0.82876728404E+02  0.15551176468E+03  0.00000000000E+00 0.  1.
</event>
<event>
 7    1  0.6219721E-006  0.4125356E+02  0.7818608E-02  0.1552275E+00
          2   -1    0    0  502    0  0.00000000000E+00  0.00000000000E+00  0.38609880620E+02  0.38609880620E+02  0.00000000000E+00 0. -1.
          1   -1    0    0  501    0 -0.00000000000E+00 -0.00000000000E+00 -0.25763752385E+04  0.25763752385E+04  0.00000000000E+00 0. -1.
         25    2    1    2    0    0 -0.30203861917E+02  0.11557340269E+02 -0.56616752751E+03  0.58070382341E+03  0.12500166369E+03 0.  0.
          2    1    1    2  501    0 -0.81760152930E+01 -0.27825977633E+02 -0.19889261479E+04  0.19891375905E+04  0.00000000000E+00 0. -1.
          1    1    1    2  502    0  0.38379877210E+02  0.16268637364E+02  0.17328317472E+02  0.45143705239E+02  0.00000000000E+00 0. -1.
         22    1    3    3    0    0 -0.26105795558E+02  0.64627426282E+02 -0.40555357887E+03  0.41149960161E+03  0.00000000000E+00 0. -1.
         22    1    3    3    0    0 -0.40980663583E+01 -0.53070086014E+02 -0.16061394864E+03  0.16920422180E+03  0.00000000000E+00 0. -1.
</event>
<event>
 7    1  0.6219721E-006  0.3359510E+02  0.7818608E-02  0.1602940E+00
          2   -1    0    0  502    0  0.00000000000E+00  0.00000000000E+00  0.66164109369E+03  0.66164109369E+03  0.00000000000E+00 0. -1.
          1   -1    0    0  501    0 -0.00000000000E+00 -0.00000000000E+00 -0.96679048207E+03  0.96679048207E+03  0.00000000000E+00 0. -1.
         25    2    1    2    0    0  0.10944940847E+02  0.18933836623E+01 -0.23420480520E+03  0.26570709220E+03  0.12499996575E+03 0.  0.
          2    1    1    2  501    0 -0.30819659589E+02  0.14899660546E+02 -0.71616348252E+03  0.71698116083E+03  0.00000000000E+00 0. -1.
          1    1    1    2  502    0  0.19874718742E+02 -0.16793044208E+02  0.64521889933E+03  0.64574332272E+03  0.00000000000E+00 0. -1.
         22    1    3    3    0    0  0.36353984127E+02 -0.39078159496E+02 -0.19893976804E+03  0.20597511019E+03  0.00000000000E+00 0.  1.
         22    1    3    3    0    0 -0.25409043280E+02  0.40971543158E+02 -0.35265037163E+02  0.59731982014E+02  0.00000000000E+00 0.  1.
</event>
<event>
 7    1  0.6219721E-006  0.6058567E+02  0.7818608E-02  0.1486887E+00
          2   -1    0    0  502    0  0.00000000000E+00  0.00000000000E+00  0.22270956344E+04  0.22270956344E+04  0.00000000000E+00 0. -1.
          1   -1    0    0  501    0 -0.00000000000E+00 -0.00000000000E+00 -0.27525675008E+03  0.27525675008E+03  0.00000000000E+00 0. -1.
         25    2    1    2    0    0 -0.29010656137E+02  0.67165840305E+02 -0.43656289572E+02  0.15126915385E+03  0.12499446793E+03 0.  0.
          2    1    1    2  501    0 -0.15661578549E+02 -0.26278616012E+02 -0.17605285163E+03  0.17869095464E+03  0.00000000000E+00 0. -1.
          1    1    1    2  502    0  0.44672234686E+02 -0.40887224292E+02  0.21715480256E+04  0.21723922760E+04  0.00000000000E+00 0. -1.
         22    1    3    3    0    0 -0.43441389553E+01  0.96597125769E+02 -0.54981074550E+02  0.11123306527E+03  0.00000000000E+00 0.  1.
         22    1    3    3    0    0 -0.24666517182E+02 -0.29431285464E+02  0.11324784978E+02  0.40036088580E+02  0.00000000000E+00 0.  1.
</event>
<event>
 7    1  0.6219721E-006  0.8619185E+02  0.7818608E-02  0.1383484E+00
          2   -1    0    0  502    0  0.00000000000E+00  0.00000000000E+00  0.50062256156E+03  0.50062256156E+03  0.00000000000E+00 0. -1.
          1   -1    0    0  501    0 -0.00000000000E+00 -0.00000000000E+00 -0.57969412980E+03  0.57969412980E+03  0.00000000000E+00 0. -1.
         25    2    1    2    0    0 -0.69735174387E+02 -0.23802516685E+02 -0.21548163458E+03  0.25978317944E+03  0.12500164453E+03 0.  0.
          2    1    1    2  501    0  0.90186166774E+02 -0.18366053565E+02 -0.33468685289E+03  0.34711114372E+03  0.00000000000E+00 0. -1.
          1    1    1    2  502    0 -0.20450992387E+02  0.42168570250E+02  0.47109691922E+03  0.47342236819E+03  0.00000000000E+00 0. -1.
         22    1    3    3    0    0 -0.45058330032E+02 -0.26599788767E+02 -0.22660757998E+03  0.23256998339E+03  0.00000000000E+00 0.  1.
         22    1    3    3    0    0 -0.24676844355E+02  0.27972720823E+01  0.11125945406E+02  0.27213196056E+02  0.00000000000E+00 0.  1.
</event>
<event>
 7    1  0.6219721E-006  0.2913049E+02  0.7818608E-02  0.1626485E+00
          2   -1    0    0  502    0  0.00000000000E+00  0.00000000000E+00  0.23217359353E+04  0.23217359353E+04  0.00000000000E+00 0. -1.
          1   -1    0    0  501    0 -0.00000000000E+00 -0.00000000000E+00 -0.25477219187E+03  0.25477219187E+03  0.00000000000E+00 0. -1.
         25    2    1    2    0    0 -0.12803976405E+02  0.48668039055E+01  0.75870459650E+03  0.76905435145E+03  0.12499721256E+03 0.  0.
          2    1    1    2  501    0 -0.98028692173E+01 -0.24202870295E+02 -0.24877187330E+03  0.25013860182E+03  0.00000000000E+00 0. -1.
          1    1    1    2  502    0  0.22606845622E+02  0.19336066390E+02  0.15570310202E+04  0.15573151739E+04  0.00000000000E+00 0. -1.
         22    1    3    3    0    0 -0.68270818429E+02 -0.30443024978E+01  0.35957172339E+03  0.36600819211E+03  0.00000000000E+00 0.  1.
         22    1    3    3    0    0  0.55466842024E+02  0.79111064033E+01  0.39913287311E+03  0.40304615935E+03  0.00000000000E+00 0.  1.
</event>
<event>
 7    1  0.6219721E-006  0.4209421E+02  0.7818608E-02  0.1566550E+00
          2   -1    0    0  502    0  0.00000000000E+00  0.00000000000E+00  0.19299174066E+04  0.19299174066E+04  0.00000000000E+00 0. -1.
          1   -1    0    0  501    0 -0.00000000000E+00 -0.00000000000E+00 -0.16002446725E+03  0.16002446725E+03  0.00000000000E+00 0. -1.
         25    2    1    2    0    0  0.95876025219E+01  0.49581517146E+02  0.13294566797E+04  0.13362748882E+04  0.12500105873E+03 0.  0.
          2    1    1    2  501    0  0.14364468291E+02 -0.39564633791E+02 -0.15349854632E+03  0.15916501475E+03  0.00000000000E+00 0. -1.
          1    1    1    2  502    0 -0.23952070813E+02 -0.10016883355E+02  0.59393480600E+03  0.59450197092E+03  0.00000000000E+00 0. -1.
         22    1    3    3    0    0  0.14085986831E+02 -0.25003041107E+02  0.89353925155E+03  0.89399997827E+03  0.00000000000E+00 0.  1.
         22    1    3    3    0    0 -0.44983843096E+01  0.74584558253E+02  0.43591742815E+03  0.44227490993E+03  0.00000000000E+00 0.  1.
</event>
<event>
 7    1  0.6219721E-006  0.4224888E+02  0.7818608E-02  0.1555599E+00
          2   -1    0    0  502    0  0.00000000000E+00  0.00000000000E+00  0.85879327386E+03  0.85879327386E+03  0.00000000000E+00 0. -1.
          1   -1    0    0  501    0 -0.00000000000E+00 -0.00000000000E+00 -0.15200910472E+04  0.15200910472E+04  0.00000000000E+00 0. -1.
         25    2    1    2    0    0 -0.43667008366E+02  0.49872215249E+01 -0.11148345668E+03  0.17316060854E+03  0.12499742093E+03 0.  0.
          2    1    1    2  501    0  0.36313327246E+02  0.21743546786E+02 -0.13772117258E+04  0.13778619587E+04  0.00000000000E+00 0. -1.
          1    1    1    2  502    0  0.73536811204E+01 -0.26730768310E+02  0.82739740919E+03  0.82786175376E+03  0.00000000000E+00 0. -1.
         22    1    3    3    0    0 -0.77361455450E+02  0.79572029424E+01 -0.27277038271E+02  0.82414493173E+02  0.00000000000E+00 0.  1.
         22    1    3    3    0    0  0.33694447084E+02 -0.29699814175E+01 -0.84206418408E+02  0.90746115372E+02  0.00000000000E+00 0.  1.
</event>
<event>
 7    1  0.6219721E-006  0.1608550E+03  0.7818608E-02  0.1261515E+00
          2   -1    0    0  502    0  0.00000000000E+00  0.00000000000E+00  0.76165453884E+03  0.76165453884E+03  0.00000000000E+00 0. -1.
          1   -1    0    0  501    0 -0.00000000000E+00 -0.00000000000E+00 -0.65479763648E+03  0.65479763648E+03  0.00000000000E+00 0. -1.
         25    2    1    2    0    0  0.14950696066E+03  0.35314928176E+02 -0.31986139135E+03  0.37621291666E+03  0.12500149418E+03 0.  0.
          2    1    1    2  501    0 -0.26739986958E+02  0.69566949346E+02 -0.29315448324E+03  0.30247998014E+03  0.00000000000E+00 0. -1.
          1    1    1    2  502    0 -0.12276697370E+03 -0.10488187752E+03  0.71987277694E+03  0.73775927852E+03  0.00000000000E+00 0. -1.
         22    1    3    3    0    0  0.32706675682E+02  0.68572242599E+02 -0.13800254804E+03  0.15753279771E+03  0.00000000000E+00 0.  1.
         22    1    3    3    0    0  0.11680028498E+03 -0.33257314423E+02 -0.18185884332E+03  0.21868011895E+03  0.00000000000E+00 0.  1.
</event>
<event>
 7    1  0.6219721E-006  0.6611390E+02  0.7818608E-02  0.1396093E+00
          2   -1    0    0  502    0  0.00000000000E+00  0.00000000000E+00  0.17906525963E+04  0.17906525963E+04  0.00000000000E+00 0. -1.
          1   -1    0    0  501    0 -0.00000000000E+00 -0.00000000000E+00 -0.21321266031E+03  0.21321266031E+03  0.00000000000E+00 0. -1.
         25    2    1    2    0    0  0.87089894886E+02 -0.80246908072E+02  0.15483052130E+03  0.23156466537E+03  0.12500195149E+03 0.  0.
          2    1    1    2  501    0 -0.32385795993E+02  0.44713206464E+02 -0.16980282994E+03  0.17855282600E+03  0.00000000000E+00 0. -1.
          1    1    1    2  502    0 -0.54704098892E+02  0.35533701607E+02  0.15924122447E+04  0.15937477653E+04  0.00000000000E+00 0. -1.
         22    1    3    3    0    0  0.63172388085E+02  0.12500555569E+02  0.22514923291E+02  0.68219764561E+02  0.00000000000E+00 0.  1.
         22    1    3    3    0    0  0.23917506800E+02 -0.92747463641E+02  0.13231559801E+03  0.16334490081E+03  0.00000000000E+00 0.  1.
</event>
<event>
 7    1  0.6219721E-006  0.8834427E+02  0.7818608E-02  0.1318954E+00
          2   -1    0    0  502    0  0.00000000000E+00  0.00000000000E+00  0.16472775680E+03  0.16472775680E+03  0.00000000000E+00 0. -1.
          1   -1    0    0  501    0 -0.00000000000E+00 -0.00000000000E+00 -0.10213506553E+04  0.10213506553E+04  0.00000000000E+00 0. -1.
         25    2    1    2    0    0 -0.56493735308E+02  0.19977647846E+02 -0.59829069961E+03  0.61414013842E+03  0.12500279932E+03 0.  0.
          2    1    1    2  501    0  0.94622583215E+02 -0.89439279439E+02 -0.39392769576E+03  0.41488775283E+03  0.00000000000E+00 0. -1.
          1    1    1    2  502    0 -0.38128847907E+02  0.69461631593E+02  0.13559549691E+03  0.15705052081E+03  0.00000000000E+00 0. -1.
         22    1    3    3    0    0 -0.44144849866E+02  0.57788393548E+02 -0.18255529661E+03  0.19650624040E+03  0.00000000000E+00 0. -1.
         22    1    3    3    0    0 -0.12348885442E+02 -0.37810745702E+02 -0.41573540301E+03  0.41763389802E+03  0.00000000000E+00 0. -1.
</event>
<event>
 7    1  0.6219721E-006  0.2070686E+03  0.7818608E-02  0.1252423E+00
          2   -1    0    0  502    0  0.00000000000E+00  0.00000000000E+00  0.17700726320E+04  0.17700726320E+04  0.00000000000E+00 0. -1.
          1   -1    0    0  501    0 -0.00000000000E+00 -0.00000000000E+00 -0.22878342785E+03  0.22878342785E+03  0.00000000000E+00 0. -1.
         25    2    1    2    0    0 -0.10906953077E+02  0.20106668529E+03  0.16322737502E+03  0.28777577770E+03  0.12499979484E+03 0.  0.
          2    1    1    2  501    0 -0.63056949698E+02 -0.59230682905E+01 -0.15314129145E+03  0.16572120200E+03  0.00000000000E+00 0. -1.
          1    1    1    2  502    0  0.73963902775E+02 -0.19514361700E+03  0.15312031205E+04  0.15453590801E+04  0.00000000000E+00 0. -1.
         22    1    3    3    0    0  0.29096045749E+02  0.82657567959E+02  0.72892808899E+01  0.87931718026E+02  0.00000000000E+00 0. -1.
         22    1    3    3    0    0 -0.40002998826E+02  0.11840911734E+03  0.15593809413E+03  0.19984405967E+03  0.00000000000E+00 0. -1.
</event>
<event>
 7    1  0.6219721E-006  0.7128903E+02  0.7818608E-02  0.1358313E+00
          2   -1    0    0  502    0  0.00000000000E+00  0.00000000000E+00  0.23025939841E+04  0.23025939841E+04  0.00000000000E+00 0. -1.
          1   -1    0    0  501    0 -0.00000000000E+00 -0.00000000000E+00 -0.12341294352E+03  0.12341294352E+03  0.00000000000E+00 0. -1.
         25    2    1    2    0    0  0.36537418592E+02 -0.31241807962E+02  0.45208465518E+03  0.47150479233E+03  0.12500080088E+03 0.  0.
          2    1    1    2  501    0 -0.56160966597E+02 -0.41400870634E+02 -0.10215254411E+03  0.12370621862E+03  0.00000000000E+00 0. -1.
          1    1    1    2  502    0  0.19623548005E+02  0.72642678596E+02  0.18292489296E+04  0.18307959167E+04  0.00000000000E+00 0. -1.
         22    1    3    3    0    0 -0.43160008564E+02 -0.29275087135E+02  0.13998594579E+03  0.14938501292E+03  0.00000000000E+00 0.  1.
         22    1    3    3    0    0  0.79697427155E+02 -0.19667208275E+01  0.31209870939E+03  0.32211977941E+03  0.00000000000E+00 0.  1.
</event>
<event>
 7    1  0.6219721E-006  0.1163642E+03  0.7818608E-02  0.1339044E+00
          2   -1    0    0  502    0  0.00000000000E+00  0.00000000000E+00  0.48221799915E+03  0.48221799915E+03  0.00000000000E+00 0. -1.
          1   -1    0    0  501    0 -0.00000000000E+00 -0.00000000000E+00 -0.56114265327E+03  0.56114265327E+03  0.00000000000E+00 0. -1.
         25    2    1    2    0    0  0.24826609818E+01 -0.80394749699E+02  0.81361676229E+02  0.16945666800E+03  0.12500544223E+03 0.  0.
          2    1    1    2  501    0 -0.25813299452E+02 -0.43286680348E+02 -0.50470152640E+03  0.50721168547E+03  0.00000000000E+00 0. -1.
          1    1    1    2  502    0  0.23330638470E+02  0.12368143005E+03  0.34441519606E+03  0.36669229895E+03  0.00000000000E+00 0. -1.
         22    1    3    3    0    0  0.50129589303E+02 -0.12930380047E+02  0.68507812167E+02  0.85869032717E+02  0.00000000000E+00 0. -1.
         22    1    3    3    0    0 -0.47646928321E+02 -0.67464369651E+02  0.12853864062E+02  0.83587635283E+02  0.00000000000E+00 0. -1.
</event>
<event>
 7    1  0.6219721E-006  0.2533836E+03  0.7818608E-02  0.1220754E+00
          2   -1    0    0  502    0  0.00000000000E+00  0.00000000000E+00  0.33283945851E+04  0.33283945851E+04  0.00000000000E+00 0. -1.
          1   -1    0    0  501    0 -0.00000000000E+00 -0.00000000000E+00 -0.42365951124E+03  0.42365951124E+03  0.00000000000E+00 0. -1.
         25    2    1    2    0    0 -0.18059307421E+03  0.23536535923E+03  0.56295570126E+03  0.64849576963E+03  0.12496771935E+03 0.  0.
          2    1    1    2  501    0  0.10974923715E+03 -0.22552243953E+03 -0.33907233221E+03  0.42175266716E+03  0.00000000000E+00 0. -1.
          1    1    1    2  502    0  0.70843837052E+02 -0.98429197029E+01  0.26808517048E+04  0.26818056595E+04  0.00000000000E+00 0. -1.
         22    1    3    3    0    0 -0.49857256538E+01  0.72155896098E+02  0.20753796435E+03  0.21978020259E+03  0.00000000000E+00 0. -1.
         22    1    3    3    0    0 -0.17560734855E+03  0.16320946314E+03  0.35541773690E+03  0.42871556705E+03  0.00000000000E+00 0. -1.
</event>
<event>
 7    1  0.6219721E-006  0.9961368E+02  0.7818608E-02  0.1300724E+00
          2   -1    0    0  502    0  0.00000000000E+00  0.00000000000E+00  0.23175430156E+03  0.23175430156E+03  0.00000000000E+00 0. -1.
          1   -1    0    0  501    0 -0.00000000000E+00 -0.00000000000E+00 -0.17837411355E+04  0.17837411355E+04  0.00000000000E+00 0. -1.
         25    2    1    2    0    0 -0.14074861287E+03 -0.33587138116E+02  0.58291613488E+02  0.19989914263E+03  0.12499394845E+03 0.  0.
          2    1    1    2  501    0  0.54437245942E+02  0.62548579660E+02 -0.16915357511E+04  0.16935669268E+04  0.00000000000E+00 0. -1.
          1    1    1    2  502    0  0.86311366929E+02 -0.28961441544E+02  0.81257303640E+02  0.12202936758E+03  0.00000000000E+00 0. -1.
         22    1    3    3    0    0  0.22588819071E+02  0.34223574132E+01  0.13491843463E+02  0.26532944000E+02  0.00000000000E+00 0. -1.
         22    1    3    3    0    0 -0.16333743194E+03 -0.37009495529E+02  0.44799770025E+02  0.17336619863E+03  0.00000000000E+00 0. -1.
</event>
<event>
 7    1  0.6219721E-006  0.8176737E+02  0.7818608E-02  0.1339327E+00
          2   -1    0    0  502    0  0.00000000000E+00  0.00000000000E+00  0.23622318993E+03  0.23622318993E+03  0.00000000000E+00 0. -1.
          1   -1    0    0  501    0 -0.00000000000E+00 -0.00000000000E+00 -0.40754009402E+04  0.40754009402E+04  0.00000000000E+00 0. -1.
         25    2    1    2    0    0 -0.60793076011E+02  0.88592702371E+02 -0.23507054397E+03  0.28710250484E+03  0.12500089054E+03 0.  0.
          2    1    1    2  501    0  0.71157413653E+02 -0.74643613351E+01 -0.38060099338E+04  0.38066823758E+04  0.00000000000E+00 0. -1.
          1    1    1    2  502    0 -0.10364337642E+02 -0.81128341036E+02  0.20190272753E+03  0.21783924944E+03  0.00000000000E+00 0. -1.
         22    1    3    3    0    0  0.36505681420E+02  0.58909684941E+01 -0.47679243015E+02  0.60338035270E+02  0.00000000000E+00 0.  1.
         22    1    3    3    0    0 -0.97298757431E+02  0.82701733877E+02 -0.18739130096E+03  0.22676446957E+03  0.00000000000E+00 0.  1.
</event>
<event>
 7    1  0.6219721E-006  0.4779751E+02  0.7818608E-02  0.1470350E+00
          2   -1    0    0  502    0  0.00000000000E+00  0.00000000000E+00  0.25892068214E+02  0.25892068214E+02  0.00000000000E+00 0. -1.
          1   -1    0    0  501    0 -0.00000000000E+00 -0.00000000000E+00 -0.13164216539E+04  0.13164216539E+04  0.00000000000E+00 0. -1.
         25    2    1    2    0    0 -0.81538448118E+01 -0.36667920978E+02 -0.28418865278E+03  0.31272804023E+03  0.12499846064E+03 0.  0.
          2    1    1    2  501    0  0.43507320872E+02 -0.26979905035E+01 -0.95455468830E+03  0.95554948542E+03  0.00000000000E+00 0. -1.
          1    1    1    2  502    0 -0.35353476060E+02  0.39365911481E+02 -0.51786244585E+02  0.74036196448E+02  0.00000000000E+00 0. -1.
         22    1    3    3    0    0 -0.83107748946E+01 -0.21061081002E+02  0.49435245562E+01  0.23174912025E+02  0.00000000000E+00 0.  1.
         22    1    3    3    0    0  0.15693008283E+00 -0.15606839975E+02 -0.28913217733E+03  0.28955312820E+03  0.00000000000E+00 0.  1.
</event>
<event>
 7    1  0.6219721E-006  0.4209417E+02  0.7818608E-02  0.1516849E+00
          2   -1    0    0  502    0  0.00000000000E+00  0.00000000000E+00  0.19669188433E+02  0.19669188433E+02  0.00000000000E+00 0. -1.
          1   -1    0    0  501    0 -0.00000000000E+00 -0.00000000000E+00 -0.32339967141E+04  0.32339967141E+04  0.00000000000E+00 0. -1.
         25    2    1    2    0    0  0.45660939172E+01 -0.58570099656E+01 -0.71025136665E+03  0.72120575376E+03  0.12500232658E+03 0.  0.
          2    1    1    2  501    0 -0.26873749467E+02  0.33928515148E+02 -0.24951296590E+04  0.24955050306E+04  0.00000000000E+00 0. -1.
          1    1    1    2  502    0  0.22307655550E+02 -0.28071505183E+02 -0.89465000745E+01  0.36955118224E+02  0.00000000000E+00 0. -1.
         22    1    3    3    0    0 -0.26241114128E+02 -0.32075307362E+02 -0.84172049922E+02  0.93820868686E+02  0.00000000000E+00 0.  1.
         22    1    3    3    0    0  0.30807208045E+02  0.26218297396E+02 -0.62607931673E+03  0.62738488507E+03  0.00000000000E+00 0.  1.
</event>
<event>
 7    1  0.6219721E-006  0.1344893E+03  0.7818608E-02  0.1297451E+00
          2   -1    0    0  502    0  0.00000000000E+00  0.00000000000E+00  0.98274580647E+03  0.98274580647E+03  0.00000000000E+00 0. -1.
          1   -1    0    0  501    0 -0.00000000000E+00 -0.00000000000E+00 -0.82069367826E+03  0.82069367826E+03  0.00000000000E+00 0. -1.
         25    2    1    2    0    0  0.29837842636E+02 -0.66202616685E+02  0.23446790295E+03  0.27544923565E+03  0.12499600233E+03 0.  0.
          2    1    1    2  501    0 -0.58050724797E+02  0.12286892915E+03 -0.79303616044E+03  0.80459493670E+03  0.00000000000E+00 0. -1.
          1    1    1    2  502    0  0.28212882162E+02 -0.56666312469E+02  0.72062038569E+03  0.72339531237E+03  0.00000000000E+00 0. -1.
         22    1    3    3    0    0 -0.15908034745E+01 -0.17871558705E+02 -0.12483496804E+02  0.21857743678E+02  0.00000000000E+00 0. -1.
         22    1    3    3    0    0  0.31428646110E+02 -0.48331057981E+02  0.24695139975E+03  0.25359149198E+03  0.00000000000E+00 0. -1.
</event>
<event>
 7    1  0.6219721E-006  0.5844678E+02  0.7818608E-02  0.1414021E+00
          2   -1    0    0  502    0  0.00000000000E+00  0.00000000000E+00  0.14099962531E+03  0.14099962531E+03  0.00000000000E+00 0. -1.
          1   -1    0    0  501    0 -0.00000000000E+00 -0.00000000000E+00 -0.34915924857E+03  0.34915924857E+03  0.00000000000E+00 0. -1.
         25    2    1    2    0    0 -0.11552729701E+01 -0.21280163986E+02  0.59972667096E+01  0.12695150776E+03  0.12500615217E+03 0.  0.
          2    1    1    2  501    0 -0.58224860748E+02 -0.50884306177E+01 -0.27078525668E+03  0.27702108543E+03  0.00000000000E+00 0. -1.
          1    1    1    2  502    0  0.59380133718E+02  0.26368594603E+02  0.56628366717E+02  0.86186280688E+02  0.00000000000E+00 0. -1.
         22    1    3    3    0    0 -0.36829158125E+02 -0.22284562429E+02 -0.46568203820E+02  0.63415977623E+02  0.00000000000E+00 0. -1.
         22    1    3    3    0    0  0.35673885155E+02  0.10043984434E+01  0.52565470529E+02  0.63535530141E+02  0.00000000000E+00 0. -1.
</event>
<event>
 7    1  0.6219721E-006  0.3316900E+02  0.7818608E-02  0.1603283E+00
          2   -1    0    0  502    0  0.00000000000E+00  0.00000000000E+00  0.14731773972E+04  0.14731773972E+04  0.00000000000E+00 0. -1.
          1   -1    0    0  501    0 -0.00000000000E+00 -0.00000000000E+00 -0.26671658925E+03  0.26671658925E+03  0.00000000000E+00 0. -1.
         25    2    1    2    0    0 -0.16367897243E+02 -0.23411379151E+02  0.22732429502E+03  0.26099207308E+03  0.12499810547E+03 0.  0.
          2    1    1    2  501    0  0.24754417111E+02 -0.88819544192E+01 -0.24896351025E+03  0.25034875617E+03  0.00000000000E+00 0. -1.
          1    1    1    2  502    0 -0.83865198681E+01  0.32293333570E+02  0.12281000232E+04  0.12285531572E+04  0.00000000000E+00 0. -1.
         22    1    3    3    0    0 -0.19605833069E+02  0.41021263899E+02  0.32836927241E+02  0.56083835218E+02  0.00000000000E+00 0. -1.
         22    1    3    3    0    0  0.32379358257E+01 -0.64432643049E+02  0.19448736778E+03  0.20490823786E+03  0.00000000000E+00 0. -1.
</event>
<event>
 7    1  0.6219721E-006  0.2144794E+03  0.7818608E-02  0.1253329E+00
          2   -1    0    0  502    0  0.00000000000E+00  0.00000000000E+00  0.32476663505E+03  0.32476663505E+03  0.00000000000E+00 0. -1.
          1   -1    0    0  501    0 -0.00000000000E+00 -0.00000000000E+00 -0.65538354582E+03  0.65538354582E+03  0.00000000000E+00 0. -1.
         25    2    1    2    0    0 -0.12415913633E+03 -0.11597302564E+03 -0.26325270062E+02  0.21255981817E+03  0.12499369043E+03 0.  0.
          2    1    1    2  501    0  0.14673121245E+03  0.17221017292E+03 -0.50744278622E+03  0.55559389274E+03  0.00000000000E+00 0. -1.
          1    1    1    2  502    0 -0.22572076125E+02 -0.56237147285E+02  0.20315114551E+03  0.21199646996E+03  0.00000000000E+00 0. -1.
         22    1    3    3    0    0  0.18425464451E+02  0.74126523251E+01  0.70407867935E+01  0.21071730669E+02  0.00000000000E+00 0. -1.
         22    1    3    3    0    0 -0.14258460078E+03 -0.12338567796E+03 -0.33366056856E+02  0.19148808750E+03  0.00000000000E+00 0. -1.
</event>
<event>
 7    1  0.6219721E-006  0.1414002E+03  0.7818608E-02  0.1337099E+00
          2   -1    0    0  502    0  0.00000000000E+00  0.00000000000E+00  0.81366052411E+03  0.81366052411E+03  0.00000000000E+00 0. -1.
          1   -1    0    0  501    0 -0.00000000000E+00 -0.00000000000E+00 -0.95171434699E+03  0.95171434699E+03  0.00000000000E+00 0. -1.
         25    2    1    2    0    0 -0.61156649850E+02  0.13247675596E+03 -0.11724345695E+03  0.22507914598E+03  0.12499746824E+03 0.  0.
          2    1    1    2  501    0  0.93901334123E+02 -0.10588451860E+03 -0.77354268427E+03  0.78638239821E+03  0.00000000000E+00 0. -1.
          1    1    1    2  502    0 -0.32744684273E+02 -0.26592237362E+02  0.75273231833E+03  0.75391332691E+03  0.00000000000E+00 0. -1.
         22    1    3    3    0    0  0.20290224460E+02  0.85315789323E+02 -0.20399907146E+02  0.90036844280E+02  0.00000000000E+00 0. -1.
         22    1    3    3    0    0 -0.81446874309E+02  0.47160966637E+02 -0.96843549802E+02  0.13504230170E+03  0.00000000000E+00 0. -1.
</event>
<event>
 7    1  0.6219721E-006  0.4742801E+02  0.7818608E-02  0.1465170E+00
          2   -1    0    0  502    0  0.00000000000E+00  0.00000000000E+00  0.70818316564E+02  0.70818316564E+02  0.00000000000E+00 0. -1.
          1   -1    0    0  501    0 -0.00000000000E+00 -0.00000000000E+00 -0.28880368660E+04  0.28880368660E+04  0.00000000000E+00 0. -1.
         25    2    1    2    0    0  0.53489695344E+02  0.49677574886E+02 -0.16630888023E+04  0.16693769293E+04  0.12500383615E+03 0.  0.
          2    1    1    2  501    0 -0.45343660390E+02 -0.48147339585E+01 -0.12136466563E+04  0.12145029582E+04  0.00000000000E+00 0. -1.
          1    1    1    2  502    0 -0.81460349533E+01 -0.44862840927E+02  0.59516909147E+02  0.74975294971E+02  0.00000000000E+00 0. -1.
         22    1    3    3    0    0  0.68772857683E+02  0.13325398315E+02 -0.43088416128E+03  0.43654144435E+03  0.00000000000E+00 0. -1.
         22    1    3    3    0    0 -0.15283162339E+02  0.36352176570E+02 -0.12322046410E+04  0.12328354850E+04  0.00000000000E+00 0. -1.
</event>
<event>
 7    1  0.6219721E-006  0.9126048E+02  0.7818608E-02  0.1486613E+00
          2   -1    0    0  502    0  0.00000000000E+00  0.00000000000E+00  0.44807781094E+03  0.44807781094E+03  0.00000000000E+00 0. -1.
          1   -1    0    0  501    0 -0.00000000000E+00 -0.00000000000E+00 -0.12728194004E+04  0.12728194004E+04  0.00000000000E+00 0. -1.
         25    2    1    2    0    0 -0.37973199307E+02 -0.69792380731E+02 -0.15065479077E+03  0.21126936083E+03  0.12499974628E+03 0.  0.
          2    1    1    2  501    0 -0.20328458579E+02 -0.89389296291E+00 -0.10867368682E+04  0.10869273508E+04  0.00000000000E+00 0. -1.
          1    1    1    2  502    0  0.58301657886E+02  0.70686273694E+02  0.41265006949E+03  0.42270049970E+03  0.00000000000E+00 0. -1.
         22    1    3    3    0    0 -0.47911403059E+02 -0.18941984135E+02 -0.15090398168E+03  0.15945630433E+03  0.00000000000E+00 0. -1.
         22    1    3    3    0    0  0.99382037523E+01 -0.50850396595E+02  0.24919090490E+00  0.51813056500E+02  0.00000000000E+00 0. -1.
</event>
<event>
 7    1  0.6219721E-006  0.6360807E+02  0.7818608E-02  0.1482710E+00
          2   -1    0    0  502    0  0.00000000000E+00  0.00000000000E+00  0.13342829675E+03  0.13342829675E+03  0.00000000000E+00 0. -1.
          1   -1    0    0  501    0 -0.00000000000E+00 -0.00000000000E+00 -0.41982605273E+03  0.41982605273E+03  0.00000000000E+00 0. -1.
         25    2    1    2    0    0 -0.53519451471E+02 -0.66853225243E+02 -0.24676566955E+03  0.28957263536E+03  0.12500132026E+03 0.  0.
          2    1    1    2  501    0  0.43306306970E+02  0.38640209551E+02 -0.14391005863E+03  0.15517282942E+03  0.00000000000E+00 0. -1.
          1    1    1    2  502    0  0.10213144501E+02  0.28213015692E+02  0.10427797219E+03  0.10850888470E+03  0.00000000000E+00 0. -1.
         22    1    3    3    0    0  0.32344901085E+02 -0.46141853768E+02 -0.56460854221E+02  0.79768987424E+02  0.00000000000E+00 0. -1.
         22    1    3    3    0    0 -0.85864352555E+02 -0.20711371476E+02 -0.19030481533E+03  0.20980364793E+03  0.00000000000E+00 0. -1.
</event>
<event>
 7    1  0.6219721E-006  0.1223045E+03  0.7818608E-02  0.1248846E+00
          2   -1    0    0  502    0  0.00000000000E+00  0.00000000000E+00  0.46203768352E+03  0.46203768352E+03  0.00000000000E+00 0. -1.
          1   -1    0    0  501    0 -0.00000000000E+00 -0.00000000000E+00 -0.29754744836E+03  0.29754744836E+03  0.00000000000E+00 0. -1.
         25    2    1    2    0    0  0.40445656564E+02  0.49580066850E+02 -0.50419975973E+02  0.14920135257E+03  0.12499934187E+03 0.  0.
          2    1    1    2  501    0 -0.81322794732E+02  0.75733134886E+02 -0.17024195275E+03  0.20330082917E+03  0.00000000000E+00 0. -1.
          1    1    1    2  502    0  0.40877138168E+02 -0.12531320174E+03  0.38515216388E+03  0.40708295014E+03  0.00000000000E+00 0. -1.
         22    1    3    3    0    0  0.56909529446E+02 -0.25021324654E+02 -0.34729380370E+02  0.71210189510E+02  0.00000000000E+00 0.  1.
         22    1    3    3    0    0 -0.16463872882E+02  0.74601391504E+02 -0.15690595603E+02  0.77991163057E+02  0.00000000000E+00 0.  1.
</event>
<event>
 7    1  0.6219721E-006  0.7960867E+02  0.7818608E-02  0.1445616E+00
          2   -1    0    0  502    0  0.00000000000E+00  0.00000000000E+00  0.67633296469E+03  0.67633296469E+03  0.00000000000E+00 0. -1.
          1   -1    0    0  501    0 -0.00000000000E+00 -0.00000000000E+00 -0.21219296793E+03  0.21219296793E+03  0.00000000000E+00 0. -1.
         25    2    1    2    0    0 -0.84307869974E+02 -0.51345704083E+02  0.18032545955E+03  0.24059603852E+03  0.12499993648E+03 0.  0.
          2    1    1    2  501    0  0.76104239952E+02  0.21098762951E+02 -0.17293076733E+03  0.19011066100E+03  0.00000000000E+00 0. -1.
          1    1    1    2  502    0  0.82036300219E+01  0.30246941132E+02  0.45674530453E+03  0.45781923311E+03  0.00000000000E+00 0. -1.
         22    1    3    3    0    0 -0.66196088203E+02 -0.83385821401E+02  0.17289837508E+03  0.20304916993E+03  0.00000000000E+00 0. -1.
         22    1    3    3    0    0 -0.18111781771E+02  0.32040117318E+02  0.74270844695E+01  0.37546868583E+02  0.00000000000E+00 0. -1.
</event>
<event>
 7    1  0.6219721E-006  0.9057357E+02  0.7818608E-02  0.1428941E+00
          2   -1    0    0  502    0  0.00000000000E+00  0.00000000000E+00  0.18562127990E+04  0.18562127990E+04  0.00000000000E+00 0. -1.
          1   -1    0    0  501    0 -0.00000000000E+00 -0.00000000000E+00 -0.12022341713E+03  0.12022341713E+03  0.00000000000E+00 0. -1.
         25    2    1    2    0    0  0.82094071403E+00  0.80814291981E+02  0.26022492093E+01  0.14887305879E+03  0.12499916879E+03 0.  0.
          2    1    1    2  501    0 -0.28933898433E+02 -0.94383479656E+02  0.49486518317E+01  0.98842808871E+02  0.00000000000E+00 0. -1.
          1    1    1    2  502    0  0.28112957719E+02  0.13569187675E+02  0.17284384808E+04  0.17287203484E+04  0.00000000000E+00 0. -1.
         22    1    3    3    0    0  0.46317372547E+02  0.19218143660E+02 -0.37324885665E+02  0.62512263880E+02  0.00000000000E+00 0. -1.
         22    1    3    3    0    0 -0.45496431833E+02  0.61596148321E+02  0.39927134875E+02  0.86360794906E+02  0.00000000000E+00 0. -1.
</event>
<event>
 7    1  0.6219721E-006  0.6323723E+02  0.7818608E-02  0.1483364E+00
          2   -1    0    0  502    0  0.00000000000E+00  0.00000000000E+00  0.13523385429E+04  0.13523385429E+04  0.00000000000E+00 0. -1.
          1   -1    0    0  501    0 -0.00000000000E+00 -0.00000000000E+00 -0.16928524747E+03  0.16928524747E+03  0.00000000000E+00 0. -1.
         25    2    1    2    0    0  0.64066345170E+02 -0.26066157512E+02  0.11638846883E+02  0.14333166106E+03  0.12499824461E+03 0.  0.
          2    1    1    2  501    0 -0.94319869517E+00  0.30027382533E+02 -0.10045501882E+03  0.10485105689E+03  0.00000000000E+00 0. -1.
          1    1    1    2  502    0 -0.63123146475E+02 -0.39612250209E+01  0.12718694674E+04  0.12734410724E+04  0.00000000000E+00 0. -1.
         22    1    3    3    0    0  0.39497204258E+02 -0.19990094237E+02  0.68233607083E+02  0.81335466725E+02  0.00000000000E+00 0.  1.
         22    1    3    3    0    0  0.24569140912E+02 -0.60760632743E+01 -0.56594760201E+02  0.61996194337E+02  0.00000000000E+00 0.  1.
</event>
<event>
 7    1  0.6219721E-006  0.1368092E+03  0.7818608E-02  0.1242163E+00
          2   -1    0    0  502    0  0.00000000000E+00  0.00000000000E+00  0.38604382875E+03  0.38604382875E+03  0.00000000000E+00 0. -1.
          1   -1    0    0  501    0 -0.00000000000E+00 -0.00000000000E+00 -0.79407847050E+03  0.79407847050E+03  0.00000000000E+00 0. -1.
         25    2    1    2    0    0  0.22386449924E+03 -0.24151921707E+02 -0.91634851736E+02  0.27335147220E+03  0.12500180783E+03 0.  0.
          2    1    1    2  501    0 -0.12072034854E+03  0.49674481694E+02 -0.59470917643E+03  0.60886776990E+03  0.00000000000E+00 0. -1.
          1    1    1    2  502    0 -0.10314415070E+03 -0.25522559987E+02  0.27830938642E+03  0.29790305716E+03  0.00000000000E+00 0. -1.
         22    1    3    3    0    0  0.12887398024E+03 -0.74551270833E+02 -0.40585531720E+02  0.15431649345E+03  0.00000000000E+00 0. -1.
         22    1    3    3    0    0  0.94990519000E+02  0.50399349126E+02 -0.51049320017E+02  0.11903497875E+03  0.00000000000E+00 0. -1.
</event>
<event>
 7    1  0.6219721E-006  0.1295248E+03  0.7818608E-02  0.1273579E+00
          2   -1    0    0  502    0  0.00000000000E+00  0.00000000000E+00  0.25976097631E+03  0.25976097631E+03  0.00000000000E+00 0. -1.
          1   -1    0    0  501    0 -0.00000000000E+00 -0.00000000000E+00 -0.10253782231E+04  0.10253782231E+04  0.00000000000E+00 0. -1.
         25    2    1    2    0    0  0.45942317127E+02  0.16184828031E+03  0.52290619415E+02  0.21601973948E+03  0.12499862648E+03 0.  0.
          2    1    1    2  501    0 -0.69584176690E+02 -0.43997736288E+02 -0.91247381475E+03  0.91618023393E+03  0.00000000000E+00 0. -1.
          1    1    1    2  502    0  0.23641859563E+02 -0.11785054402E+03  0.94565948499E+02  0.15293922605E+03  0.00000000000E+00 0. -1.
         22    1    3    3    0    0  0.77898967394E+01 -0.54783358833E+01 -0.25774823500E+02  0.27477921714E+02  0.00000000000E+00 0.  1.
         22    1    3    3    0    0  0.38152420387E+02  0.16732661619E+03  0.78065442915E+02  0.18854181776E+03  0.00000000000E+00 0.  1.
</event>
<event>
 7    1  0.6219721E-006  0.1050323E+03  0.7818608E-02  0.1411951E+00
          2   -1    0    0  502    0  0.00000000000E+00  0.00000000000E+00  0.23041049887E+04  0.23041049887E+04  0.00000000000E+00 0. -1.
          1   -1    0    0  501    0 -0.00000000000E+00 -0.00000000000E+00 -0.51075106673E+03  0.51075106673E+03  0.00000000000E+00 0. -1.
         25    2    1    2    0    0  0.65415433338E+02  0.39707898985E+02  0.87910188641E+03  0.89123566652E+03  0.12499996168E+03 0.  0.
          2    1    1    2  501    0 -0.95874661782E+02 -0.43332439239E+02 -0.49903249405E+03  0.51000302076E+03  0.00000000000E+00 0. -1.
          1    1    1    2  502    0  0.30459228444E+02  0.36245402537E+01  0.14132845296E+04  0.14136173681E+04  0.00000000000E+00 0. -1.
         22    1    3    3    0    0  0.15470587311E+02 -0.43609080246E+02  0.20407550196E+03  0.20925558882E+03  0.00000000000E+00 0. -1.
         22    1    3    3    0    0  0.49944846027E+02  0.83316979231E+02  0.67502638445E+03  0.68198007770E+03  0.00000000000E+00 0. -1.
</event>
<event>
 7    1  0.6219721E-006  0.1150570E+03  0.7818608E-02  0.1277920E+00
          2   -1    0    0  502    0  0.00000000000E+00  0.00000000000E+00  0.10314775075E+03  0.10314775075E+03  0.00000000000E+00 0. -1.
          1   -1    0    0  501    0 -0.00000000000E+00 -0.00000000000E+00 -0.14926459171E+04  0.14926459171E+04  0.00000000000E+00 0. -1.
         25    2    1    2    0    0 -0.39307644895E+02  0.54552705689E+02 -0.41656285472E+03  0.44007978778E+03  0.12499807614E+03 0.  0.
          2    1    1    2  501    0  0.12802228162E+03 -0.48752551938E+02 -0.10370777541E+04  0.10460864133E+04  0.00000000000E+00 0. -1.
          1    1    1    2  502    0 -0.88714636722E+02 -0.58001537513E+01  0.64142442478E+02  0.10962746681E+03  0.00000000000E+00 0. -1.
         22    1    3    3    0    0 -0.19025073103E+02  0.24630888180E+02 -0.11152025759E+02  0.33060576789E+02  0.00000000000E+00 0. -1.
         22    1    3    3    0    0 -0.20282571792E+02  0.29921817509E+02 -0.40541082896E+03  0.40701921099E+03  0.00000000000E+00 0. -1.
</event>
<event>
 7    1  0.6219721E-006  0.8362006E+02  0.7818608E-02  0.1340891E+00
          2   -1    0    0  502    0  0.00000000000E+00  0.00000000000E+00  0.13338253435E+04  0.13338253435E+04  0.00000000000E+00 0. -1.
          1   -1    0    0  501    0 -0.00000000000E+00 -0.00000000000E+00 -0.27336442060E+03  0.27336442060E+03  0.00000000000E+00 0. -1.
         25    2    1    2    0    0  0.14588535737E+03 -0.41186246418E+02  0.42696734242E+03  0.47000698131E+03  0.12500642624E+03 0.  0.
          2    1    1    2  501    0 -0.79821601485E+02  0.21198987814E+02 -0.24368138313E+03  0.25729652472E+03  0.00000000000E+00 0. -1.
          1    1    1    2  502    0 -0.66063755888E+02  0.19987258604E+02  0.87717496363E+03  0.87988625809E+03  0.00000000000E+00 0. -1.
         22    1    3    3    0    0  0.14368217179E+03 -0.22815394541E+02  0.42741810594E+03  0.45149899889E+03  0.00000000000E+00 0. -1.
         22    1    3    3    0    0  0.22031855851E+01 -0.18370851877E+02 -0.45076352235E+00  0.18507982417E+02  0.00000000000E+00 0. -1.
</event>
<event>
 7    1  0.6219721E-006  0.1017371E+03  0.7818608E-02  0.1393069E+00
          2   -1    0    0  502    0  0.00000000000E+00  0.00000000000E+00  0.10148854937E+04  0.10148854937E+04  0.00000000000E+00 0. -1.
          1   -1    0    0  501    0 -0.00000000000E+00 -0.00000000000E+00 -0.66580462477E+03  0.66580462477E+03  0.00000000000E+00 0. -1.
         25    2    1    2    0    0 -0.31309222523E+01 -0.73219067726E+02  0.21915455214E+03  0.26272900475E+03  0.12500791039E+03 0.  0.
          2    1    1    2  501    0  0.17003075817E+02 -0.32584990981E+02 -0.63980925949E+03  0.64086408446E+03  0.00000000000E+00 0. -1.
          1    1    1    2  502    0 -0.13872153564E+02  0.10580405871E+03  0.76973557633E+03  0.77709702930E+03  0.00000000000E+00 0. -1.
         22    1    3    3    0    0  0.10936597263E+02 -0.10739139546E+03  0.16418833379E+03  0.19649511427E+03  0.00000000000E+00 0.  1.
         22    1    3    3    0    0 -0.14067519516E+02  0.34172327738E+02  0.54966218350E+02  0.66233890480E+02  0.00000000000E+00 0.  1.
</event>
<event>
 7    1  0.6219721E-006  0.5559719E+02  0.7818608E-02  0.1426219E+00
          2   -1    0    0  502    0  0.00000000000E+00  0.00000000000E+00  0.47248871322E+03  0.47248871322E+03  0.00000000000E+00 0. -1.
          1   -1    0    0  501    0 -0.00000000000E+00 -0.00000000000E+00 -0.29732332848E+04  0.29732332848E+04  0.00000000000E+00 0. -1.
         25    2    1    2    0    0  0.74549537888E+02  0.22069897916E+02 -0.19821486228E+03  0.24691138388E+03  0.12502554087E+03 0.  0.
          2    1    1    2  501    0 -0.29170510150E+02 -0.47294795322E+02 -0.27488846896E+04  0.27494462630E+04  0.00000000000E+00 0. -1.
          1    1    1    2  502    0 -0.45379027738E+02  0.25224897406E+02  0.44635498032E+03  0.44936435112E+03  0.00000000000E+00 0. -1.
         22    1    3    3    0    0 -0.17433799243E+01  0.60219197545E+02 -0.64085577547E+02  0.87956536858E+02  0.00000000000E+00 0. -1.
         22    1    3    3    0    0  0.76292917812E+02 -0.38149299629E+02 -0.13412928473E+03  0.15895484702E+03  0.00000000000E+00 0. -1.
</event>
<event>
 7    1  0.6219721E-006  0.1247353E+03  0.7818608E-02  0.1295906E+00
          2   -1    0    0  502    0  0.00000000000E+00  0.00000000000E+00  0.17273042564E+04  0.17273042564E+04  0.00000000000E+00 0. -1.
          1   -1    0    0  501    0 -0.00000000000E+00 -0.00000000000E+00 -0.43688612942E+03  0.43688612942E+03  0.00000000000E+00 0. -1.
         25    2    1    2    0    0  0.61681662204E+02 -0.20839113705E+02  0.15944923793E+02  0.14183891579E+03  0.12500056531E+03 0.  0.
          2    1    1    2  501    0 -0.12248746742E+03  0.53947899912E+02 -0.36120705800E+03  0.38520656060E+03  0.00000000000E+00 0. -1.
          1    1    1    2  502    0  0.60805805215E+02 -0.33108786207E+02  0.16356802612E+04  0.16371449094E+04  0.00000000000E+00 0. -1.
         22    1    3    3    0    0  0.79059667745E+02 -0.74714544343E+01  0.55313339845E+02  0.96777162906E+02  0.00000000000E+00 0.  1.
         22    1    3    3    0    0 -0.17378005541E+02 -0.13367659270E+02 -0.39368416052E+02  0.45061752889E+02  0.00000000000E+00 0.  1.
</event>
<event>
 7    1  0.6219721E-006  0.1912722E+03  0.7818608E-02  0.1371846E+00
          2   -1    0    0  502    0  0.00000000000E+00  0.00000000000E+00  0.11250236399E+04  0.11250236399E+04  0.00000000000E+00 0. -1.
          1   -1    0    0  501    0 -0.00000000000E+00 -0.00000000000E+00 -0.18514636566E+03  0.18514636566E+03  0.00000000000E+00 0. -1.
         25    2    1    2    0    0 -0.16283900854E+03 -0.74135464526E+02  0.40976084789E+03  0.46426418079E+03  0.12499866920E+03 0.  0.
          2    1    1    2  501    0  0.18275835908E+03  0.62184812677E+02 -0.98592941102E+02  0.21676747168E+03  0.00000000000E+00 0. -1.
          1    1    1    2  502    0 -0.19919350544E+02  0.11950651849E+02  0.62870936743E+03  0.62913835307E+03  0.00000000000E+00 0. -1.
         22    1    3    3    0    0 -0.15097974146E+03 -0.60295089574E+02  0.21958939540E+03  0.27322130724E+03  0.00000000000E+00 0.  1.
         22    1    3    3    0    0 -0.11859267084E+02 -0.13840374952E+02  0.19017145249E+03  0.19104287356E+03  0.00000000000E+00 0.  1.
</event>
<event>
 7    1  0.6219721E-006  0.1622297E+03  0.7818608E-02  0.1364501E+00
          2   -1    0    0  502    0  0.00000000000E+00  0.00000000000E+00  0.41450502645E+03  0.41450502645E+03  0.00000000000E+00 0. -1.
          1   -1    0    0  501    0 -0.00000000000E+00 -0.00000000000E+00 -0.19647799887E+03  0.19647799887E+03  0.00000000000E+00 0. -1.
         25    2    1    2    0    0 -0.89857781853E+02 -0.12475590356E+03 -0.71704784825E+02  0.21072729025E+03  0.12500383297E+03 0.  0.
          2    1    1    2  501    0  0.11476560848E+03  0.13982097367E+03  0.96841278636E+02  0.20518109761E+03  0.00000000000E+00 0. -1.
          1    1    1    2  502    0 -0.24907826623E+02 -0.15065070105E+02  0.19289053376E+03  0.19507463746E+03  0.00000000000E+00 0. -1.
         22    1    3    3    0    0 -0.28823105178E+02 -0.13245710239E+03 -0.38999458732E+02  0.14105535490E+03  0.00000000000E+00 0.  1.
         22    1    3    3    0    0 -0.61034676675E+02  0.77011988265E+01 -0.32705326093E+02  0.69671935348E+02  0.00000000000E+00 0.  1.
</event>
<event>
 7    1  0.6219721E-006  0.6063159E+02  0.7818608E-02  0.1547323E+00
          2   -1    0    0  502    0  0.00000000000E+00  0.00000000000E+00  0.35343090260E+03  0.35343090260E+03  0.00000000000E+00 0. -1.
          1   -1    0    0  501    0 -0.00000000000E+00 -0.00000000000E+00 -0.97665714562E+03  0.97665714562E+03  0.00000000000E+00 0. -1.
         25    2    1    2    0    0  0.39086117533E+02  0.69026814301E+02  0.10920663142E+02  0.14844422564E+03  0.12499600620E+03 0.  0.
          2    1    1    2  501    0 -0.35303897031E+02 -0.49010146143E+02 -0.90650995458E+03  0.90852003683E+03  0.00000000000E+00 0. -1.
          1    1    1    2  502    0 -0.37822205016E+01 -0.20016668159E+02  0.27236304842E+03  0.27312378575E+03  0.00000000000E+00 0. -1.
         22    1    3    3    0    0  0.13672671329E+02  0.14606330800E+02 -0.55439674739E+02  0.58939327922E+02  0.00000000000E+00 0. -1.
         22    1    3    3    0    0  0.25413446204E+02  0.54420483502E+02  0.66360337881E+02  0.89504897722E+02  0.00000000000E+00 0. -1.
</event>
<event>
 7    1  0.6219721E-006  0.7207734E+02  0.7818608E-02  0.1463456E+00
          2   -1    0    0  502    0  0.00000000000E+00  0.00000000000E+00  0.19883569780E+04  0.19883569780E+04  0.00000000000E+00 0. -1.
          1   -1    0    0  501    0 -0.00000000000E+00 -0.00000000000E+00 -0.24249115432E+03  0.24249115432E+03  0.00000000000E+00 0. -1.
         25    2    1    2    0    0  0.67553033636E+02 -0.65992636337E+02  0.25316610119E+03  0.29771711346E+03  0.12499585775E+03 0.  0.
          2    1    1    2  501    0 -0.37587195290E+02  0.61013337961E+02 -0.21424693842E+03  0.22591408828E+03  0.00000000000E+00 0. -1.
          1    1    1    2  502    0 -0.29965838346E+02  0.49792983764E+01  0.17069466609E+04  0.17072169306E+04  0.00000000000E+00 0. -1.
         22    1    3    3    0    0  0.12609730364E+02  0.12969418834E+02  0.16879950791E+03  0.16976597126E+03  0.00000000000E+00 0. -1.
         22    1    3    3    0    0  0.54943303272E+02 -0.78962055171E+02  0.84366593276E+02  0.12795114221E+03  0.00000000000E+00 0. -1.
</event>
<event>
 7    1  0.6219721E-006  0.2292715E+03  0.7818608E-02  0.1202634E+00
          2   -1    0    0  502    0  0.00000000000E+00  0.00000000000E+00  0.48555244471E+03  0.48555244471E+03  0.00000000000E+00 0. -1.
          1   -1    0    0  501    0 -0.00000000000E+00 -0.00000000000E+00 -0.14355460404E+04  0.14355460404E+04  0.00000000000E+00 0. -1.
         25    2    1    2    0    0  0.19948139001E+02 -0.15824883724E+03 -0.40366512538E+02  0.20662659863E+03  0.12499789274E+03 0.  0.
          2    1    1    2  501    0  0.42686411305E+02 -0.85838733173E+02 -0.12706162445E+04  0.12742276322E+04  0.00000000000E+00 0. -1.
          1    1    1    2  502    0 -0.62634550306E+02  0.24408757042E+03  0.36098916129E+03  0.44024425436E+03  0.00000000000E+00 0. -1.
         22    1    3    3    0    0  0.50715880933E+02 -0.15703228356E+03 -0.53033074557E+02  0.17333131759E+03  0.00000000000E+00 0.  1.
         22    1    3    3    0    0 -0.30767741932E+02 -0.12165536777E+01  0.12666562019E+02  0.33295281044E+02  0.00000000000E+00 0.  1.
</event>
<event>
 7    1  0.6219721E-006  0.1018246E+03  0.7818608E-02  0.1296571E+00
          2   -1    0    0  502    0  0.00000000000E+00  0.00000000000E+00  0.58117109344E+03  0.58117109344E+03  0.00000000000E+00 0. -1.
          1   -1    0    0  501    0 -0.00000000000E+00 -0.00000000000E+00 -0.11645369051E+04  0.11645369051E+04  0.00000000000E+00 0. -1.
         25    2    1    2    0    0  0.11726441473E+02 -0.26805634053E+02 -0.15476543223E+03  0.20107737555E+03  0.12499488188E+03 0.  0.
          2    1    1    2  501    0 -0.14237500609E+02  0.11106031330E+03 -0.98022685124E+03  0.98660112482E+03  0.00000000000E+00 0. -1.
          1    1    1    2  502    0  0.25110591354E+01 -0.84254679244E+02  0.55162647182E+03  0.55802949815E+03  0.00000000000E+00 0. -1.
         22    1    3    3    0    0  0.19189567346E+02 -0.62587123640E+02 -0.15069534427E+03  0.16429995230E+03  0.00000000000E+00 0. -1.
         22    1    3    3    0    0 -0.74631258733E+01  0.35781489587E+02 -0.40700879605E+01  0.36777423250E+02  0.00000000000E+00 0. -1.
</event>
<event>
 7    1  0.6219721E-006  0.7802030E+02  0.7818608E-02  0.1366722E+00
          2   -1    0    0  502    0  0.00000000000E+00  0.00000000000E+00  0.31608498020E+03  0.31608498020E+03  0.00000000000E+00 0. -1.
          1   -1    0    0  501    0 -0.00000000000E+00 -0.00000000000E+00 -0.65477841840E+03  0.65477841840E+03  0.00000000000E+00 0. -1.
         25    2    1    2    0    0  0.82235049511E+02 -0.75025163662E+02  0.19115413732E+03  0.25408074438E+03  0.12500296757E+03 0.  0.
          2    1    1    2  501    0 -0.76175110767E+02  0.15916931536E+02 -0.61114860411E+03  0.61608328375E+03  0.00000000000E+00 0. -1.
          1    1    1    2  502    0 -0.60599387441E+01  0.59108232126E+02  0.81301028593E+02  0.10069937047E+03  0.00000000000E+00 0. -1.
         22    1    3    3    0    0 -0.11952629423E+02 -0.27337111044E+02 -0.60061684895E+01  0.30434471414E+02  0.00000000000E+00 0.  1.
         22    1    3    3    0    0  0.94187678934E+02 -0.47688052618E+02  0.19716030581E+03  0.22364627296E+03  0.00000000000E+00 0.  1.
</event>
<event>
 7    1  0.6219721E-006  0.9143313E+02  0.7818608E-02  0.1359472E+00
          2   -1    0    0  502    0  0.00000000000E+00  0.00000000000E+00  0.93345646709E+03  0.93345646709E+03  0.00000000000E+00 0. -1.
          1   -1    0    0  501    0 -0.00000000000E+00 -0.00000000000E+00 -0.61836427746E+03  0.61836427746E+03  0.00000000000E+00 0. -1.
         25    2    1    2    0    0  0.11816198799E+03  0.79809424332E+02  0.13213772485E+03  0.23112064143E+03  0.12499829177E+03 0.  0.
          2    1    1    2  501    0 -0.44964187195E+02 -0.29670994533E+02 -0.56496950235E+03  0.56753210009E+03  0.00000000000E+00 0. -1.
          1    1    1    2  502    0 -0.73197800793E+02 -0.50138429799E+02  0.74792396713E+03  0.75316800303E+03  0.00000000000E+00 0. -1.
         22    1    3    3    0    0 -0.47945974623E+01  0.35680763598E+02  0.84881073234E+02  0.92200334322E+02  0.00000000000E+00 0. -1.
         22    1    3    3    0    0  0.12295658545E+03  0.44128660735E+02  0.47256651619E+02  0.13892030711E+03  0.00000000000E+00 0. -1.
</event>
<event>
 7    1  0.6219721E-006  0.1489730E+03  0.7818608E-02  0.1228188E+00
          2   -1    0    0  502    0  0.00000000000E+00  0.00000000000E+00  0.45341312508E+03  0.45341312508E+03  0.00000000000E+00 0. -1.
          1   -1    0    0  501    0 -0.00000000000E+00 -0.00000000000E+00 -0.18044041721E+04  0.18044041721E+04  0.00000000000E+00 0. -1.
         25    2    1    2    0    0  0.33760852674E+02  0.18947536523E+03 -0.55234953040E+03  0.59812609534E+03  0.12499645193E+03 0.  0.
          2    1    1    2  501    0 -0.10473294193E+03 -0.10207606063E+03 -0.12173534837E+04  0.12261068533E+04  0.00000000000E+00 0. -1.
          1    1    1    2  502    0  0.70972089257E+02 -0.87399304599E+02  0.41871196713E+03  0.43358434856E+03  0.00000000000E+00 0. -1.
         22    1    3    3    0    0  0.84316039098E+01  0.41336576749E+02 -0.23404961527E+02  0.48245173291E+02  0.00000000000E+00 0.  1.
         22    1    3    3    0    0  0.25329248764E+02  0.14813878848E+03 -0.52894456887E+03  0.54988092205E+03  0.00000000000E+00 0.  1.
</event>
<event>
 7    1  0.6219721E-006  0.1351668E+03  0.7818608E-02  0.1315623E+00
          2   -1    0    0  502    0  0.00000000000E+00  0.00000000000E+00  0.10553515127E+04  0.10553515127E+04  0.00000000000E+00 0. -1.
          1   -1    0    0  501    0 -0.00000000000E+00 -0.00000000000E+00 -0.11882540185E+04  0.11882540185E+04  0.00000000000E+00 0. -1.
         25    2    1    2    0    0  0.17399451491E+03 -0.38122824891E+02  0.36750499809E+03  0.42709718980E+03  0.12499857967E+03 0.  0.
          2    1    1    2  501    0 -0.48480433282E+02  0.22294908818E+02 -0.11517542824E+04  0.11529897408E+04  0.00000000000E+00 0. -1.
          1    1    1    2  502    0 -0.12551408163E+03  0.15827916073E+02  0.65134677849E+03  0.66351860069E+03  0.00000000000E+00 0. -1.
         22    1    3    3    0    0  0.21937780907E+02 -0.25238034635E+01 -0.54677272755E+01  0.22749326509E+02  0.00000000000E+00 0.  1.
         22    1    3    3    0    0  0.15205673400E+03 -0.35599021428E+02  0.37297272537E+03  0.40434786329E+03  0.00000000000E+00 0.  1.
</event>
<event>
 7    1  0.6219721E-006  0.8171558E+02  0.7818608E-02  0.1360811E+00
          2   -1    0    0  502    0  0.00000000000E+00  0.00000000000E+00  0.83671868649E+03  0.83671868649E+03  0.00000000000E+00 0. -1.
          1   -1    0    0  501    0 -0.00000000000E+00 -0.00000000000E+00 -0.73249572266E+02  0.73249572266E+02  0.00000000000E+00 0. -1.
         25    2    1    2    0    0  0.48651161275E+02 -0.10560025134E+03  0.35045096827E+03  0.38981957662E+03  0.12500029033E+03 0.  0.
          2    1    1    2  501    0  0.12845126546E+02  0.58202929928E+02 -0.32518644506E+02  0.67897279538E+02  0.00000000000E+00 0. -1.
          1    1    1    2  502    0 -0.61496287821E+02  0.47397321409E+02  0.44553679047E+03  0.45225140260E+03  0.00000000000E+00 0. -1.
         22    1    3    3    0    0 -0.27802641634E+02 -0.83287004137E+02  0.22134300668E+03  0.23812273841E+03  0.00000000000E+00 0.  1.
         22    1    3    3    0    0  0.76453802909E+02 -0.22313247199E+02  0.12910796159E+03  0.15169683822E+03  0.00000000000E+00 0.  1.
</event>
<event>
 7    1  0.6219721E-006  0.6042011E+02  0.7818608E-02  0.1409499E+00
          2   -1    0    0  502    0  0.00000000000E+00  0.00000000000E+00  0.16370735985E+03  0.16370735985E+03  0.00000000000E+00 0. -1.
          1   -1    0    0  501    0 -0.00000000000E+00 -0.00000000000E+00 -0.14162598223E+04  0.14162598223E+04  0.00000000000E+00 0. -1.
         25    2    1    2    0    0 -0.33445731396E+02 -0.44168048949E+02 -0.85651684593E+02  0.16133906945E+03  0.12499860303E+03 0.  0.
          2    1    1    2  501    0 -0.28652611335E+02  0.46186037400E+02 -0.12844869945E+04  0.12856364032E+04  0.00000000000E+00 0. -1.
          1    1    1    2  502    0  0.62098342731E+02 -0.20179884506E+01  0.11758621665E+03  0.13299170949E+03  0.00000000000E+00 0. -1.
         22    1    3    3    0    0 -0.70184748664E+02 -0.49754524356E+02 -0.23936522343E+02  0.89299321054E+02  0.00000000000E+00 0.  1.
         22    1    3    3    0    0  0.36739017267E+02  0.55864754064E+01 -0.61715162250E+02  0.72039748395E+02  0.00000000000E+00 0.  1.
</event>
<event>
 7    1  0.6219721E-006  0.3341270E+02  0.7818608E-02  0.1575322E+00
          2   -1    0    0  502    0  0.00000000000E+00  0.00000000000E+00  0.80735094334E+03  0.80735094334E+03  0.00000000000E+00 0. -1.
          1   -1    0    0  501    0 -0.00000000000E+00 -0.00000000000E+00 -0.10274280508E+03  0.10274280508E+03  0.00000000000E+00 0. -1.
         25    2    1    2    0    0 -0.54335995238E+00  0.19833301344E+02  0.28592101517E+03  0.31268217241E+03  0.12500263573E+03 0.  0.
          2    1    1    2  501    0 -0.30562334892E+02 -0.49685840331E+01 -0.86074307997E+02  0.91474202038E+02  0.00000000000E+00 0. -1.
          1    1    1    2  502    0  0.31105694845E+02 -0.14864717310E+02  0.50476143109E+03  0.50593737397E+03  0.00000000000E+00 0. -1.
         22    1    3    3    0    0  0.54691519353E+02  0.37998421794E+02  0.17877104850E+03  0.19077245642E+03  0.00000000000E+00 0.  1.
         22    1    3    3    0    0 -0.55234879305E+02 -0.18165120451E+02  0.10714996668E+03  0.12190971598E+03  0.00000000000E+00 0.  1.
</event>
<event>
 7    1  0.6219721E-006  0.1211386E+03  0.7818608E-02  0.1419382E+00
          2   -1    0    0  502    0  0.00000000000E+00  0.00000000000E+00  0.37537013103E+04  0.37537013103E+04  0.00000000000E+00 0. -1.
          1   -1    0    0  501    0 -0.00000000000E+00 -0.00000000000E+00 -0.70575623836E+01  0.70575623836E+01  0.00000000000E+00 0. -1.
         25    2    1    2    0    0  0.50919001475E+01  0.13355639460E+03  0.21000899695E+04  0.21080480537E+04  0.12500191511E+03 0.  0.
          2    1    1    2  501    0  0.11967153665E+02 -0.22074237147E+02  0.49817683938E+03  0.49880923007E+03  0.00000000000E+00 0. -1.
          1    1    1    2  502    0 -0.17059053812E+02 -0.11148215746E+03  0.11483769391E+04  0.11539015889E+04  0.00000000000E+00 0. -1.
         22    1    3    3    0    0 -0.23953563471E+02 -0.73297037244E+01  0.72950608208E+03  0.72993603936E+03  0.00000000000E+00 0.  1.
         22    1    3    3    0    0  0.29045463618E+02  0.14088609833E+03  0.13705838874E+04  0.13781120144E+04  0.00000000000E+00 0.  1.
</event>
<event>
 7    1  0.6219721E-006  0.5911303E+02  0.7818608E-02  0.1487289E+00
          2   -1    0    0  502    0  0.00000000000E+00  0.00000000000E+00  0.10343095150E+04  0.10343095150E+04  0.00000000000E+00 0. -1.
          1   -1    0    0  501    0 -0.00000000000E+00 -0.00000000000E+00 -0.26634913565E+03  0.26634913565E+03  0.00000000000E+00 0. -1.
         25    2    1    2    0    0  0.33359066923E+02 -0.41498426224E+01  0.10946179335E+03  0.16952038542E+03  0.12500091332E+03 0.  0.
          2    1    1    2  501    0 -0.52413321250E+02  0.28938632127E+02 -0.23224904870E+03  0.23984207574E+03  0.00000000000E+00 0. -1.
          1    1    1    2  502    0  0.19054254327E+02 -0.24788789505E+02  0.89074763473E+03  0.89129618953E+03  0.00000000000E+00 0. -1.
         22    1    3    3    0    0  0.42450446072E+02 -0.56266516288E+02  0.87198921254E+02  0.11212320498E+03  0.00000000000E+00 0.  1.
         22    1    3    3    0    0 -0.90913791491E+01  0.52116673666E+02  0.22262872093E+02  0.57397180442E+02  0.00000000000E+00 0.  1.
</event>
<event>
 7    1  0.6219721E-006  0.1273932E+03  0.7818608E-02  0.1283753E+00
          2   -1    0    0  502    0  0.00000000000E+00  0.00000000000E+00  0.24785066888E+04  0.24785066888E+04  0.00000000000E+00 0. -1.
          1   -1    0    0  501    0 -0.00000000000E+00 -0.00000000000E+00 -0.23650714446E+03  0.23650714446E+03  0.00000000000E+00 0. -1.
         25    2    1    2    0    0 -0.59163102743E+02  0.66597331961E+02  0.12004972208E+03  0.19485120626E+03  0.12497831595E+03 0.  0.
          2    1    1    2  501    0  0.12940930934E+03 -0.37680433118E+02 -0.17559636208E+03  0.22136094226E+03  0.00000000000E+00 0. -1.
          1    1    1    2  502    0 -0.70246206598E+02 -0.28916898843E+02  0.22975461843E+04  0.22988016847E+04  0.00000000000E+00 0. -1.
         22    1    3    3    0    0 -0.10939807929E+01  0.18516546628E+02 -0.25147308315E+02  0.31248142481E+02  0.00000000000E+00 0.  1.
         22    1    3    3    0    0 -0.58069121950E+02  0.48080785333E+02  0.14519703039E+03  0.16360306378E+03  0.00000000000E+00 0.  1.
</event>
<event>
 7    1  0.6219721E-006  0.1846873E+03  0.7818608E-02  0.1332689E+00
          2   -1    0    0  502    0  0.00000000000E+00  0.00000000000E+00  0.45280255673E+03  0.45280255673E+03  0.00000000000E+00 0. -1.
          1   -1    0    0  501    0 -0.00000000000E+00 -0.00000000000E+00 -0.13351859687E+04  0.13351859687E+04  0.00000000000E+00 0. -1.
         25    2    1    2    0    0 -0.13590769734E+03  0.15000895410E+03 -0.54915216161E+02  0.24415911760E+03  0.12499762092E+03 0.  0.
          2    1    1    2  501    0  0.14144215413E+03 -0.11690499374E+03 -0.11777417664E+04  0.11919514792E+04  0.00000000000E+00 0. -1.
          1    1    1    2  502    0 -0.55344567940E+01 -0.33103960365E+02  0.35027357057E+03  0.35187792861E+03  0.00000000000E+00 0. -1.
         22    1    3    3    0    0 -0.83279391566E+02  0.65792967738E+02 -0.89673287519E+02  0.13894412603E+03  0.00000000000E+00 0.  1.
         22    1    3    3    0    0 -0.52628305772E+02  0.84215986363E+02  0.34758071358E+02  0.10521499157E+03  0.00000000000E+00 0.  1.
</event>
<event>
 7    1  0.6219721E-006  0.1732647E+03  0.7818608E-02  0.1236749E+00
          2   -1    0    0  502    0  0.00000000000E+00  0.00000000000E+00  0.18440791616E+03  0.18440791616E+03  0.00000000000E+00 0. -1.
          1   -1    0    0  501    0 -0.00000000000E+00 -0.00000000000E+00 -0.47039360762E+03  0.47039360762E+03  0.00000000000E+00 0. -1.
         25    2    1    2    0    0 -0.15497532079E+02 -0.13212292126E+03 -0.48319516985E+02  0.18882793042E+03  0.12499828703E+03 0.  0.
          2    1    1    2  501    0 -0.55853562035E+02  0.18472433571E+03 -0.30063147809E+03  0.35724219545E+03  0.00000000000E+00 0. -1.
          1    1    1    2  502    0  0.71351094113E+02 -0.52601414444E+02  0.62965303615E+02  0.10873139791E+03  0.00000000000E+00 0. -1.
         22    1    3    3    0    0 -0.19871472296E+02  0.47682587915E+01 -0.47669725239E+02  0.51865348813E+02  0.00000000000E+00 0. -1.
         22    1    3    3    0    0  0.43739402175E+01 -0.13689118006E+03 -0.64979174561E+00  0.13696258160E+03  0.00000000000E+00 0. -1.
</event>
<event>
 7    1  0.6219721E-006  0.1173602E+03  0.7818608E-02  0.1404057E+00
          2   -1    0    0  502    0  0.00000000000E+00  0.00000000000E+00  0.10814900138E+04  0.10814900138E+04  0.00000000000E+00 0. -1.
          1   -1    0    0  501    0 -0.00000000000E+00 -0.00000000000E+00 -0.18729154555E+03  0.18729154555E+03  0.00000000000E+00 0. -1.
         25    2    1    2    0    0 -0.90184933592E+02  0.15309514300E+02  0.20234181417E+03  0.25482701157E+03  0.12500757012E+03 0.  0.
          2    1    1    2  501    0  0.11925302715E+03 -0.12520779323E+02 -0.13843725551E+03  0.18314728530E+03  0.00000000000E+00 0. -1.
          1    1    1    2  502    0 -0.29068093560E+02 -0.27887349768E+01  0.83029390958E+03  0.83080726248E+03  0.00000000000E+00 0. -1.
         22    1    3    3    0    0 -0.10989055637E+03  0.26316359013E+02  0.10281349740E+03  0.15277139909E+03  0.00000000000E+00 0. -1.
         22    1    3    3    0    0  0.19705622782E+02 -0.11006844713E+02  0.99528316769E+02  0.10205561248E+03  0.00000000000E+00 0. -1.
</event>
<event>
 7    1  0.6219721E-006  0.1246509E+03  0.7818608E-02  0.1241631E+00
          2   -1    0    0  502    0  0.00000000000E+00  0.00000000000E+00  0.19256755020E+04  0.19256755020E+04  0.00000000000E+00 0. -1.
          1   -1    0    0  501    0 -0.00000000000E+00 -0.00000000000E+00 -0.60950075535E+03  0.60950075535E+03  0.00000000000E+00 0. -1.
         25    2    1    2    0    0 -0.71753427532E+02 -0.21120767749E+03 -0.29941228379E+02  0.25744734867E+03  0.12500169115E+03 0.  0.
          2    1    1    2  501    0 -0.40186900114E+00  0.11879155205E+03 -0.45629687188E+03  0.47150655311E+03  0.00000000000E+00 0. -1.
          1    1    1    2  502    0  0.72155296533E+02  0.92416125439E+02  0.18024128469E+04  0.18062223556E+04  0.00000000000E+00 0. -1.
         22    1    3    3    0    0 -0.69067315215E+02 -0.17321355718E+03 -0.72734086758E+02  0.20015863158E+03  0.00000000000E+00 0. -1.
         22    1    3    3    0    0 -0.26861123168E+01 -0.37994120310E+02  0.42792858379E+02  0.57288717089E+02  0.00000000000E+00 0. -1.
</event>
<event>
 7    1  0.6219721E-006  0.6814435E+02  0.7818608E-02  0.1497084E+00
          2   -1    0    0  502    0  0.00000000000E+00  0.00000000000E+00  0.24725368788E+03  0.24725368788E+03  0.00000000000E+00 0. -1.
          1   -1    0    0  501    0 -0.00000000000E+00 -0.00000000000E+00 -0.85270664845E+03  0.85270664845E+03  0.00000000000E+00 0. -1.
         25    2    1    2    0    0  0.45695431312E+02 -0.93578054825E+01 -0.30296901059E+03  0.33104512463E+03  0.12500004877E+03 0.  0.
          2    1    1    2  501    0 -0.70965731420E+02  0.11212388994E+02 -0.53259209250E+03  0.53741621644E+03  0.00000000000E+00 0. -1.
          1    1    1    2  502    0  0.25270300109E+02 -0.18545835119E+01  0.23010814252E+03  0.23149899525E+03  0.00000000000E+00 0. -1.
         22    1    3    3    0    0 -0.39573652089E+02  0.33731656383E+01 -0.15289791064E+03  0.15797222308E+03  0.00000000000E+00 0.  1.
         22    1    3    3    0    0  0.85269083400E+02 -0.12730971121E+02 -0.15007109995E+03  0.17307290155E+03  0.00000000000E+00 0.  1.
</event>
<event>
 7    1  0.6219721E-006  0.7007358E+02  0.7818608E-02  0.1508146E+00
          2   -1    0    0  502    0  0.00000000000E+00  0.00000000000E+00  0.15021293811E+04  0.15021293811E+04  0.00000000000E+00 0. -1.
          1   -1    0    0  501    0 -0.00000000000E+00 -0.00000000000E+00 -0.72590431497E+02  0.72590431497E+02  0.00000000000E+00 0. -1.
         25    2    1    2    0    0  0.51718919601E+02 -0.58144868671E+02  0.27476471023E+03  0.31173095646E+03  0.12499948333E+03 0.  0.
          2    1    1    2  501    0 -0.22254502205E+02 -0.51528262014E+01 -0.50640257897E+02  0.55554029612E+02  0.00000000000E+00 0. -1.
          1    1    1    2  502    0 -0.29464417395E+02  0.63297694872E+02  0.12054144972E+04  0.12074348265E+04  0.00000000000E+00 0. -1.
         22    1    3    3    0    0  0.10957597262E+02 -0.76443080203E+02  0.77265674223E+02  0.10924100815E+03  0.00000000000E+00 0. -1.
         22    1    3    3    0    0  0.40761322339E+02  0.18298211532E+02  0.19749903601E+03  0.20248994831E+03  0.00000000000E+00 0. -1.
</event>
<event>
 7    1  0.6219721E-006  0.7766793E+02  0.7818608E-02  0.1337057E+00
          2   -1    0    0  502    0  0.00000000000E+00  0.00000000000E+00  0.36017628227E+03  0.36017628227E+03  0.00000000000E+00 0. -1.
          1   -1    0    0  501    0 -0.00000000000E+00 -0.00000000000E+00 -0.35933889836E+03  0.35933889836E+03  0.00000000000E+00 0. -1.
         25    2    1    2    0    0 -0.28199947526E+02 -0.18731598363E+02 -0.71359471522E+02  0.14786304857E+03  0.12500078856E+03 0.  0.
          2    1    1    2  501    0  0.48689185975E+02 -0.59425175742E+02 -0.23852782778E+03  0.25059431951E+03  0.00000000000E+00 0. -1.
          1    1    1    2  502    0 -0.20489238449E+02  0.78156774105E+02  0.31072468322E+03  0.32105781254E+03  0.00000000000E+00 0. -1.
         22    1    3    3    0    0  0.31832816098E+02  0.19840324335E+02 -0.66490203721E+02  0.76340774435E+02  0.00000000000E+00 0.  1.
         22    1    3    3    0    0 -0.60032763625E+02 -0.38571922698E+02 -0.48692678012E+01  0.71522274139E+02  0.00000000000E+00 0.  1.
</event>
<event>
 7    1  0.6219721E-006  0.5235861E+02  0.7818608E-02  0.1521665E+00
          2   -1    0    0  502    0  0.00000000000E+00  0.00000000000E+00  0.18203864790E+04  0.18203864790E+04  0.00000000000E+00 0. -1.
          1   -1    0    0  501    0 -0.00000000000E+00 -0.00000000000E+00 -0.69258752524E+03  0.69258752524E+03  0.00000000000E+00 0. -1.
         25    2    1    2    0    0  0.22668961600E+02 -0.24684796894E+02  0.17252042913E+03  0.21566453145E+03  0.12499868256E+03 0.  0.
          2    1    1    2  501    0 -0.49568513262E+02  0.17234861526E+02 -0.66986936508E+03  0.67192190337E+03  0.00000000000E+00 0. -1.
          1    1    1    2  502    0  0.26899551662E+02  0.74499353682E+01  0.16251478897E+04  0.16253875694E+04  0.00000000000E+00 0. -1.
         22    1    3    3    0    0 -0.25793944368E+02  0.35039076986E+02  0.10369593324E+03  0.11245403973E+03  0.00000000000E+00 0. -1.
         22    1    3    3    0    0  0.48462905968E+02 -0.59723873880E+02  0.68824495894E+02  0.10321049172E+03  0.00000000000E+00 0. -1.
</event>
<event>
 7    1  0.6219721E-006  0.1362632E+03  0.7818608E-02  0.1362997E+00
          2   -1    0    0  502    0  0.00000000000E+00  0.00000000000E+00  0.12645184303E+04  0.12645184303E+04  0.00000000000E+00 0. -1.
          1   -1    0    0  501    0 -0.00000000000E+00 -0.00000000000E+00 -0.32471802944E+03  0.32471802944E+03  0.00000000000E+00 0. -1.
         25    2    1    2    0    0  0.20375637850E+02  0.12332202182E+03  0.72424825093E+02  0.19103300757E+03  0.12499906803E+03 0.  0.
          2    1    1    2  501    0  0.35017878894E+02  0.23237829708E+01 -0.26006972616E+03  0.26242696941E+03  0.00000000000E+00 0. -1.
          1    1    1    2  502    0 -0.55393516744E+02 -0.12564580479E+03  0.11274453020E+04  0.11357764828E+04  0.00000000000E+00 0. -1.
         22    1    3    3    0    0 -0.32746819200E+02  0.10564572726E+03  0.16372435203E+02  0.11180979604E+03  0.00000000000E+00 0.  1.
         22    1    3    3    0    0  0.53122457050E+02  0.17676294560E+02  0.56052389889E+02  0.79223211527E+02  0.00000000000E+00 0.  1.
</event>
<event>
 7    1  0.6219721E-006  0.5664367E+02  0.7818608E-02  0.1419782E+00
          2   -1    0    0  502    0  0.00000000000E+00  0.00000000000E+00  0.11914321958E+03  0.11914321958E+03  0.00000000000E+00 0. -1.
          1   -1    0    0  501    0 -0.00000000000E+00 -0.00000000000E+00 -0.15285485265E+03  0.15285485265E+03  0.00000000000E+00 0. -1.
         25    2    1    2    0    0  0.25176489764E+02 -0.84395053873E+01 -0.38348175406E+02  0.13342067802E+03  0.12500165550E+03 0.  0.
          2    1    1    2  501    0 -0.64769503328E+02 -0.32068502194E+02 -0.22601310445E+02  0.75725138680E+02  0.00000000000E+00 0. -1.
          1    1    1    2  502    0  0.39593013565E+02  0.40508007581E+02  0.27237852775E+02  0.62852255529E+02  0.00000000000E+00 0. -1.
         22    1    3    3    0    0 -0.20865133478E+02  0.49363864226E+02 -0.20640508546E+02  0.57429743856E+02  0.00000000000E+00 0. -1.
         22    1    3    3    0    0  0.46041623242E+02 -0.57803369613E+02 -0.17707666860E+02  0.75990934163E+02  0.00000000000E+00 0. -1.
</event>
<event>
 7    1  0.6219721E-006  0.1746646E+03  0.7818608E-02  0.1257701E+00
          2   -1    0    0  502    0  0.00000000000E+00  0.00000000000E+00  0.84468668429E+03  0.84468668429E+03  0.00000000000E+00 0. -1.
          1   -1    0    0  501    0 -0.00000000000E+00 -0.00000000000E+00 -0.10777596949E+04  0.10777596949E+04  0.00000000000E+00 0. -1.
         25    2    1    2    0    0 -0.10394240695E+03  0.17986589585E+03  0.46234724577E+02  0.24681640043E+03  0.12499968525E+03 0.  0.
          2    1    1    2  501    0  0.70411226876E+02 -0.10961361890E+02 -0.96551754410E+03  0.96814359487E+03  0.00000000000E+00 0. -1.
          1    1    1    2  502    0  0.33531180073E+02 -0.16890453396E+03  0.68620980888E+03  0.70748638392E+03  0.00000000000E+00 0. -1.
         22    1    3    3    0    0 -0.64115509186E+02  0.18257374996E+03  0.63025969875E+02  0.20350981689E+03  0.00000000000E+00 0. -1.
         22    1    3    3    0    0 -0.39826897762E+02 -0.27078541108E+01 -0.16791245298E+02  0.43306583540E+02  0.00000000000E+00 0. -1.
</event>
<event>
 7    1  0.6219721E-006  0.7304956E+02  0.7818608E-02  0.1382512E+00
          2   -1    0    0  502    0  0.00000000000E+00  0.00000000000E+00  0.25293970178E+03  0.25293970178E+03  0.00000000000E+00 0. -1.
          1   -1    0    0  501    0 -0.00000000000E+00 -0.00000000000E+00 -0.67132405247E+03  0.67132405247E+03  0.00000000000E+00 0. -1.
         25    2    1    2    0    0 -0.39548993965E+02  0.60169659496E+02 -0.21456312536E+03  0.25854756576E+03  0.12499999260E+03 0.  0.
          2    1    1    2  501    0  0.54451159208E+02  0.11897384004E+02 -0.42704896616E+03  0.43067075125E+03  0.00000000000E+00 0. -1.
          1    1    1    2  502    0 -0.14902165243E+02 -0.72067043499E+02  0.22322774083E+03  0.23504543723E+03  0.00000000000E+00 0. -1.
         22    1    3    3    0    0 -0.67847982855E+02  0.82636522528E+02 -0.14498463126E+03  0.18014629315E+03  0.00000000000E+00 0. -1.
         22    1    3    3    0    0  0.28298988890E+02 -0.22466863032E+02 -0.69578494098E+02  0.78401272615E+02  0.00000000000E+00 0. -1.
</event>
<event>
 7    1  0.6219721E-006  0.1139451E+03  0.7818608E-02  0.1419829E+00
          2   -1    0    0  502    0  0.00000000000E+00  0.00000000000E+00  0.14406111274E+03  0.14406111274E+03  0.00000000000E+00 0. -1.
          1   -1    0    0  501    0 -0.00000000000E+00 -0.00000000000E+00 -0.15130690625E+04  0.15130690625E+04  0.00000000000E+00 0. -1.
         25    2    1    2    0    0 -0.18574409439E+02 -0.13227035231E+03  0.54993678123E+02  0.19102299983E+03  0.12500010819E+03 0.  0.
          2    1    1    2  501    0 -0.38674564252E+00  0.11361022979E+03 -0.14333980408E+04  0.14378933818E+04  0.00000000000E+00 0. -1.
          1    1    1    2  502    0  0.18961155082E+02  0.18660122517E+02  0.93964129564E+01  0.28213793627E+02  0.00000000000E+00 0. -1.
         22    1    3    3    0    0  0.51826761800E+02 -0.49950293345E+02  0.62748686506E+01  0.72252467227E+02  0.00000000000E+00 0.  1.
         22    1    3    3    0    0 -0.70401171239E+02 -0.82320058961E+02  0.48718809472E+02  0.11877053261E+03  0.00000000000E+00 0.  1.
</event>
<event>
 7    1  0.6219721E-006  0.7062110E+02  0.7818608E-02  0.1383315E+00
          2   -1    0    0  502    0  0.00000000000E+00  0.00000000000E+00  0.16930645514E+04  0.16930645514E+04  0.00000000000E+00 0. -1.
          1   -1    0    0  501    0 -0.00000000000E+00 -0.00000000000E+00 -0.26643147014E+03  0.26643147014E+03  0.00000000000E+00 0. -1.
         25    2    1    2    0    0 -0.16127358170E+02  0.11213873130E+03  0.16884512614E+03  0.23868497674E+03  0.12500661887E+03 0.  0.
          2    1    1    2  501    0 -0.19216333152E+02 -0.67066014022E+02 -0.22569049206E+03  0.23622725478E+03  0.00000000000E+00 0. -1.
          1    1    1    2  502    0  0.35343691322E+02 -0.45072717275E+02  0.14834784472E+04  0.14845837900E+04  0.00000000000E+00 0. -1.
         22    1    3    3    0    0  0.37029863750E+02 -0.71258490696E+01  0.31021143671E+02  0.48829293349E+02  0.00000000000E+00 0. -1.
         22    1    3    3    0    0 -0.53157221919E+02  0.11926458037E+03  0.13782398247E+03  0.18985568339E+03  0.00000000000E+00 0. -1.
</event>
<event>
 7    1  0.6219721E-006  0.1957426E+03  0.7818608E-02  0.1385066E+00
          2   -1    0    0  502    0  0.00000000000E+00  0.00000000000E+00  0.92281938162E+03  0.92281938162E+03  0.00000000000E+00 0. -1.
          1   -1    0    0  501    0 -0.00000000000E+00 -0.00000000000E+00 -0.13036866063E+04  0.13036866063E+04  0.00000000000E+00 0. -1.
         25    2    1    2    0    0 -0.16872469585E+03 -0.89360768670E+02  0.21324458559E+03  0.31233318388E+03  0.12500157799E+03 0.  0.
          2    1    1    2  501    0  0.16287172373E+03  0.10887574083E+03 -0.12463313970E+04  0.12616350805E+04  0.00000000000E+00 0. -1.
          1    1    1    2  502    0  0.58529721218E+01 -0.19514972162E+02  0.65221958666E+03  0.65253772354E+03  0.00000000000E+00 0. -1.
         22    1    3    3    0    0 -0.16258827536E+03 -0.31921259632E+02  0.18392301313E+03  0.24755118432E+03  0.00000000000E+00 0.  1.
         22    1    3    3    0    0 -0.61364204902E+01 -0.57439509038E+02  0.29321572466E+02  0.64781999559E+02  0.00000000000E+00 0.  1.
</event>
<event>
 7    1  0.6219721E-006  0.4914610E+02  0.7818608E-02  0.1526199E+00
          2   -1    0    0  502    0  0.00000000000E+00  0.00000000000E+00  0.16854872115E+02  0.16854872115E+02  0.00000000000E+00 0. -1.
          1   -1    0    0  501    0 -0.00000000000E+00 -0.00000000000E+00 -0.23553255513E+04  0.23553255513E+04  0.00000000000E+00 0. -1.
         25    2    1    2    0    0  0.40998567538E+02 -0.22680583359E+02 -0.10887361834E+04  0.10968891487E+04  0.12499614446E+03 0.  0.
          2    1    1    2  501    0  0.83613228953E+01  0.27615279874E+02 -0.12135437555E+04  0.12138867171E+04  0.00000000000E+00 0. -1.
          1    1    1    2  502    0 -0.49359890433E+02 -0.49346965155E+01 -0.36190740290E+02  0.61404557615E+02  0.00000000000E+00 0. -1.
         22    1    3    3    0    0  0.52055379430E+02  0.11078472395E+01 -0.10419541983E+04  0.10432543033E+04  0.00000000000E+00 0. -1.
         22    1    3    3    0    0 -0.11056811892E+02 -0.23788430598E+02 -0.46781985016E+02  0.53634845405E+02  0.00000000000E+00 0. -1.
</event>
<event>
 7    1  0.6219721E-006  0.8859621E+02  0.7818608E-02  0.1335453E+00
          2   -1    0    0  502    0  0.00000000000E+00  0.00000000000E+00  0.99446432056E+02  0.99446432056E+02  0.00000000000E+00 0. -1.
          1   -1    0    0  501    0 -0.00000000000E+00 -0.00000000000E+00 -0.19371440198E+04  0.19371440198E+04  0.00000000000E+00 0. -1.
         25    2    1    2    0    0 -0.53700321576E+02  0.74077553713E+01 -0.87447785515E+02  0.16188737388E+03  0.12498722836E+03 0.  0.
          2    1    1    2  501    0 -0.20671973087E+02  0.65092149161E+02 -0.17680135861E+04  0.17693321788E+04  0.00000000000E+00 0. -1.
          1    1    1    2  502    0  0.74372294664E+02 -0.72499904532E+02  0.17763783880E+02  0.10537089915E+03  0.00000000000E+00 0. -1.
         22    1    3    3    0    0 -0.74121743183E+01  0.58621548337E+02 -0.13275403637E+02  0.60561230166E+02  0.00000000000E+00 0.  1.
         22    1    3    3    0    0 -0.46288147258E+02 -0.51213792966E+02 -0.74172381878E+02  0.10132614371E+03  0.00000000000E+00 0.  1.
</event>
<event>
 7    1  0.6219721E-006  0.2391674E+03  0.7818608E-02  0.1222361E+00
          2   -1    0    0  502    0  0.00000000000E+00  0.00000000000E+00  0.16115658079E+04  0.16115658079E+04  0.00000000000E+00 0. -1.
          1   -1    0    0  501    0 -0.00000000000E+00 -0.00000000000E+00 -0.16982432762E+04  0.16982432762E+04  0.00000000000E+00 0. -1.
         25    2    1    2    0    0 -0.15598393191E+03 -0.26177867777E+03 -0.13877636375E+03  0.35741212917E+03  0.12500195115E+03 0.  0.
          2    1    1    2  501    0  0.10247093279E+03  0.20992926242E+03 -0.14398054634E+04  0.14586330449E+04  0.00000000000E+00 0. -1.
          1    1    1    2  502    0  0.53512999124E+02  0.51849415347E+02  0.14919043588E+04  0.14937639100E+04  0.00000000000E+00 0. -1.
         22    1    3    3    0    0 -0.17577966988E+03 -0.23278789469E+03 -0.10906649497E+03  0.31142285816E+03  0.00000000000E+00 0.  1.
         22    1    3    3    0    0  0.19795737968E+02 -0.28990783076E+02 -0.29709868779E+02  0.45989271009E+02  0.00000000000E+00 0.  1.
</event>
<event>
 7    1  0.6219721E-006  0.5232146E+02  0.7818608E-02  0.1527505E+00
          2   -1    0    0  502    0  0.00000000000E+00  0.00000000000E+00  0.31014408926E+02  0.31014408926E+02  0.00000000000E+00 0. -1.
          1   -1    0    0  501    0 -0.00000000000E+00 -0.00000000000E+00 -0.18555404722E+04  0.18555404722E+04  0.00000000000E+00 0. -1.
         25    2    1    2    0    0 -0.73257961107E+02 -0.25537069242E+02 -0.49446846108E+03  0.51589113818E+03  0.12500294669E+03 0.  0.
          2    1    1    2  501    0  0.25595818982E+02  0.81723930642E+01 -0.13183236950E+04  0.13185974741E+04  0.00000000000E+00 0. -1.
          1    1    1    2  502    0  0.47662142125E+02  0.17364676178E+02 -0.11733907186E+02  0.52066268818E+02  0.00000000000E+00 0. -1.
         22    1    3    3    0    0 -0.95032120783E+01  0.11370447939E+02 -0.37662637286E+03  0.37691779324E+03  0.00000000000E+00 0.  1.
         22    1    3    3    0    0 -0.63754749029E+02 -0.36907517181E+02 -0.11784208821E+03  0.13897334494E+03  0.00000000000E+00 0.  1.
</event>
<event>
 7    1  0.6219721E-006  0.1492486E+03  0.7818608E-02  0.1380378E+00
          2   -1    0    0  502    0  0.00000000000E+00  0.00000000000E+00  0.89414184961E+03  0.89414184961E+03  0.00000000000E+00 0. -1.
          1   -1    0    0  501    0 -0.00000000000E+00 -0.00000000000E+00 -0.15780881286E+03  0.15780881286E+03  0.00000000000E+00 0. -1.
         25    2    1    2    0    0 -0.91063303289E+02 -0.97886954406E+02 -0.66076461052E+01  0.18315032721E+03  0.12500400122E+03 0.  0.
          2    1    1    2  501    0  0.68825949858E+01 -0.26890857666E+02 -0.52423629853E+02  0.59318844448E+02  0.00000000000E+00 0. -1.
          1    1    1    2  502    0  0.84180708303E+02  0.12477781207E+03  0.79536431271E+03  0.80948149082E+03  0.00000000000E+00 0. -1.
         22    1    3    3    0    0 -0.80924952650E+02 -0.12555724189E+03  0.92918089725E+01  0.14966564959E+03  0.00000000000E+00 0. -1.
         22    1    3    3    0    0 -0.10138350638E+02  0.27670287487E+02 -0.15899455078E+02  0.33484677616E+02  0.00000000000E+00 0. -1.
</event>
<event>
 7    1  0.6219721E-006  0.5526462E+02  0.7818608E-02  0.1554732E+00
          2   -1    0    0  502    0  0.00000000000E+00  0.00000000000E+00  0.13208802202E+03  0.13208802202E+03  0.00000000000E+00 0. -1.
          1   -1    0    0  501    0 -0.00000000000E+00 -0.00000000000E+00 -0.17525592374E+03  0.17525592374E+03  0.00000000000E+00 0. -1.
         25    2    1    2    0    0  0.40885427972E+02 -0.99272125815E+01 -0.16801247617E+02  0.13295825698E+03  0.12500179362E+03 0.  0.
          2    1    1    2  501    0  0.85227995349E+01 -0.19533559776E+02 -0.87726305437E+02  0.90277919421E+02  0.00000000000E+00 0. -1.
          1    1    1    2  502    0 -0.49408227507E+02  0.29460772357E+02  0.61359651342E+02  0.84107769356E+02  0.00000000000E+00 0. -1.
         22    1    3    3    0    0 -0.11335135477E+02 -0.34581567698E+02 -0.53376509113E+02  0.64602026638E+02  0.00000000000E+00 0. -1.
         22    1    3    3    0    0  0.52220563450E+02  0.24654355116E+02  0.36575261496E+02  0.68356230343E+02  0.00000000000E+00 0. -1.
</event>
<event>
 7    1  0.6219721E-006  0.7658098E+02  0.7818608E-02  0.1402815E+00
          2   -1    0    0  502    0  0.00000000000E+00  0.00000000000E+00  0.99337963038E+03  0.99337963038E+03  0.00000000000E+00 0. -1.
          1   -1    0    0  501    0 -0.00000000000E+00 -0.00000000000E+00 -0.58850347252E+03  0.58850347252E+03  0.00000000000E+00 0. -1.
         25    2    1    2    0    0 -0.36134399298E+02  0.43605779056E+02 -0.17424600224E+03  0.22179484709E+03  0.12499650442E+03 0.  0.
          2    1    1    2  501    0 -0.38182815841E+02 -0.24172941640E+02 -0.38764692951E+03  0.39027221333E+03  0.00000000000E+00 0. -1.
          1    1    1    2  502    0  0.74317215139E+02 -0.19432837416E+02  0.96676908961E+03  0.96981604249E+03  0.00000000000E+00 0. -1.
         22    1    3    3    0    0 -0.60005388565E+02 -0.16746176697E+02 -0.12719676434E+03  0.14163367519E+03  0.00000000000E+00 0.  1.
         22    1    3    3    0    0  0.23870989267E+02  0.60351955753E+02 -0.47049237904E+02  0.80161171892E+02  0.00000000000E+00 0.  1.
</event>
<event>
 7    1  0.6219721E-006  0.7612312E+02  0.7818608E-02  0.1414952E+00
          2   -1    0    0  502    0  0.00000000000E+00  0.00000000000E+00  0.24718756918E+02  0.24718756918E+02  0.00000000000E+00 0. -1.
          1   -1    0    0  501    0 -0.00000000000E+00 -0.00000000000E+00 -0.13405105354E+04  0.13405105354E+04  0.00000000000E+00 0. -1.
         25    2    1    2    0    0 -0.10417166943E+03  0.34860123443E+02 -0.72701202913E+03  0.74581271089E+03  0.12499257700E+03 0.  0.
          2    1    1    2  501    0  0.41342138540E+02  0.73367270951E+00 -0.51328164584E+03  0.51494442287E+03  0.00000000000E+00 0. -1.
          1    1    1    2  502    0  0.62829530890E+02 -0.35593796153E+02 -0.75498103475E+02  0.10447215852E+03  0.00000000000E+00 0. -1.
         22    1    3    3    0    0  0.13343662599E+02  0.76048637847E+01 -0.91342544491E+01  0.17869579991E+02  0.00000000000E+00 0. -1.
         22    1    3    3    0    0 -0.11751533203E+03  0.27255259658E+02 -0.71787777469E+03  0.72794313090E+03  0.00000000000E+00 0. -1.
</event>
<event>
 7    1  0.6219721E-006  0.1546846E+03  0.7818608E-02  0.1244991E+00
          2   -1    0    0  502    0  0.00000000000E+00  0.00000000000E+00  0.16795811279E+03  0.16795811279E+03  0.00000000000E+00 0. -1.
          1   -1    0    0  501    0 -0.00000000000E+00 -0.00000000000E+00 -0.68370688508E+03  0.68370688508E+03  0.00000000000E+00 0. -1.
         25    2    1    2    0    0 -0.19147634192E+03 -0.91210429322E+02 -0.35352538501E+03  0.43079944178E+03  0.12500171703E+03 0.  0.
          2    1    1    2  501    0  0.13064917677E+03  0.23082562354E+02 -0.25701256119E+03  0.28923600862E+03  0.00000000000E+00 0. -1.
          1    1    1    2  502    0  0.60827165145E+02  0.68127866968E+02  0.94789173906E+02  0.13162954747E+03  0.00000000000E+00 0. -1.
         22    1    3    3    0    0 -0.16570589942E+03 -0.16840365395E+02 -0.25697407339E+03  0.30623147684E+03  0.00000000000E+00 0.  1.
         22    1    3    3    0    0 -0.25770442493E+02 -0.74370063927E+02 -0.96551311611E+02  0.12456796494E+03  0.00000000000E+00 0.  1.
</event>
<event>
 7    1  0.6219721E-006  0.1036841E+03  0.7818608E-02  0.1341669E+00
          2   -1    0    0  502    0  0.00000000000E+00  0.00000000000E+00  0.36194270121E+03  0.36194270121E+03  0.00000000000E+00 0. -1.
          1   -1    0    0  501    0 -0.00000000000E+00 -0.00000000000E+00 -0.39819549496E+03  0.39819549496E+03  0.00000000000E+00 0. -1.
         25    2    1    2    0    0  0.65148164461E+01  0.11000188440E+03 -0.54044456750E+02  0.17517959142E+03  0.12499691412E+03 0.  0.
          2    1    1    2  501    0 -0.52746625880E+02 -0.16581906394E+02 -0.27170240631E+03  0.27727128188E+03  0.00000000000E+00 0. -1.
          1    1    1    2  502    0  0.46231809434E+02 -0.93419978004E+02  0.28949406930E+03  0.30768732287E+03  0.00000000000E+00 0. -1.
         22    1    3    3    0    0  0.24952801366E+00 -0.28223416414E+02 -0.76751219953E+01  0.29249461464E+02  0.00000000000E+00 0. -1.
         22    1    3    3    0    0  0.62652884325E+01  0.13822530081E+03 -0.46369334755E+02  0.14593012996E+03  0.00000000000E+00 0. -1.
</event>
<event>
 7    1  0.6219721E-006  0.1155081E+03  0.7818608E-02  0.1277300E+00
          2   -1    0    0  502    0  0.00000000000E+00  0.00000000000E+00  0.51773130685E+03  0.51773130685E+03  0.00000000000E+00 0. -1.
          1   -1    0    0  501    0 -0.00000000000E+00 -0.00000000000E+00 -0.14918312000E+03  0.14918312000E+03  0.00000000000E+00 0. -1.
         25    2    1    2    0    0 -0.48744000925E+02  0.10643197169E+03  0.18729512422E+03  0.25378316484E+03  0.12499075555E+03 0.  0.
          2    1    1    2  501    0 -0.40114078727E+02 -0.11274877181E+03 -0.75408927101E+02  0.14144939428E+03  0.00000000000E+00 0. -1.
          1    1    1    2  502    0  0.88858079652E+02  0.63168001116E+01  0.25666198972E+03  0.27168186773E+03  0.00000000000E+00 0. -1.
         22    1    3    3    0    0 -0.49016692408E+02  0.68559405994E+02  0.19735414402E+03  0.21459656671E+03  0.00000000000E+00 0.  1.
         22    1    3    3    0    0  0.27269148287E+00  0.37872565700E+02 -0.10059019795E+02  0.39186598125E+02  0.00000000000E+00 0.  1.
</event>
<event>
 7    1  0.6219721E-006  0.1720946E+03  0.7818608E-02  0.1224545E+00
          2   -1    0    0  502    0  0.00000000000E+00  0.00000000000E+00  0.28519228405E+03  0.28519228405E+03  0.00000000000E+00 0. -1.
          1   -1    0    0  501    0 -0.00000000000E+00 -0.00000000000E+00 -0.74769323956E+03  0.74769323956E+03  0.00000000000E+00 0. -1.
         25    2    1    2    0    0 -0.10177417315E+03  0.28679340253E+02 -0.18958217990E+03  0.25048647804E+03  0.12498634274E+03 0.  0.
          2    1    1    2  501    0 -0.78804564709E+02 -0.63521776343E+02 -0.48858848666E+03  0.49896280902E+03  0.00000000000E+00 0. -1.
          1    1    1    2  502    0  0.18057873786E+03  0.34842436090E+02  0.21566971105E+03  0.28343623654E+03  0.00000000000E+00 0. -1.
         22    1    3    3    0    0  0.27339391938E+02  0.55515350446E+01 -0.13702806077E+02  0.31081003640E+02  0.00000000000E+00 0. -1.
         22    1    3    3    0    0 -0.12911356509E+03  0.23127805209E+02 -0.17587937382E+03  0.21940547440E+03  0.00000000000E+00 0. -1.
</event>
<event>
 7    1  0.6219721E-006  0.7703139E+02  0.7818608E-02  0.1396557E+00
          2   -1    0    0  502    0  0.00000000000E+00  0.00000000000E+00  0.15937976861E+04  0.15937976861E+04  0.00000000000E+00 0. -1.
          1   -1    0    0  501    0 -0.00000000000E+00 -0.00000000000E+00 -0.18372384880E+03  0.18372384880E+03  0.00000000000E+00 0. -1.
         25    2    1    2    0    0  0.62277309467E+02 -0.16984659161E+02  0.95156317635E+02  0.16980219738E+03  0.12494446578E+03 0.  0.
          2    1    1    2  501    0  0.97659882195E+01  0.46189068509E+02 -0.14153120525E+03  0.14919747530E+03  0.00000000000E+00 0. -1.
          1    1    1    2  502    0 -0.72043297687E+02 -0.29204409347E+02  0.14564487249E+04  0.14585218622E+04  0.00000000000E+00 0. -1.
         22    1    3    3    0    0  0.64782029904E+02  0.40249582963E+02  0.80027431426E+02  0.11054922029E+03  0.00000000000E+00 0.  1.
         22    1    3    3    0    0 -0.25047204367E+01 -0.57234242125E+02  0.15128886209E+02  0.59252977089E+02  0.00000000000E+00 0.  1.
</event>
<event>
 7    1  0.6219721E-006  0.1856534E+03  0.7818608E-02  0.1368225E+00
          2   -1    0    0  502    0  0.00000000000E+00  0.00000000000E+00  0.17683371806E+04  0.17683371806E+04  0.00000000000E+00 0. -1.
          1   -1    0    0  501    0 -0.00000000000E+00 -0.00000000000E+00 -0.29960031794E+04  0.29960031794E+04  0.00000000000E+00 0. -1.
         25    2    1    2    0    0 -0.16452643188E+03  0.31059660343E+02  0.41228668477E+02  0.21298057990E+03  0.12500909977E+03 0.  0.
          2    1    1    2  501    0  0.18525252846E+03 -0.17696850523E+02 -0.29070592266E+04  0.29130096164E+04  0.00000000000E+00 0. -1.
          1    1    1    2  502    0 -0.20726096587E+02 -0.13362809821E+02  0.16381645593E+04  0.16383501638E+04  0.00000000000E+00 0. -1.
         22    1    3    3    0    0 -0.18148049197E+03  0.31564687369E+02  0.53762658077E+02  0.19189039021E+03  0.00000000000E+00 0.  1.
         22    1    3    3    0    0  0.16954060089E+02 -0.50502702627E+00 -0.12533989600E+02  0.21090189688E+02  0.00000000000E+00 0.  1.
</event>
<event>
 7    1  0.6219721E-006  0.1697694E+03  0.7818608E-02  0.1191272E+00
          2   -1    0    0  502    0  0.00000000000E+00  0.00000000000E+00  0.10614344246E+03  0.10614344246E+03  0.00000000000E+00 0. -1.
          1   -1    0    0  501    0 -0.00000000000E+00 -0.00000000000E+00 -0.12914766411E+04  0.12914766411E+04  0.00000000000E+00 0. -1.
         25    2    1    2    0    0 -0.78169796396E+02  0.15167735624E+03 -0.86549644168E+02  0.22854418466E+03  0.12500026389E+03 0.  0.
          2    1    1    2  501    0  0.17181911630E+03 -0.38935511636E+02 -0.92551376868E+03  0.94213243168E+03  0.00000000000E+00 0. -1.
          1    1    1    2  502    0 -0.93649319903E+02 -0.11274184460E+03 -0.17326978576E+03  0.22694346719E+03  0.00000000000E+00 0. -1.
         22    1    3    3    0    0  0.10355894113E+02 -0.13075590892E+02  0.85291847932E+01  0.18733996191E+02  0.00000000000E+00 0. -1.
         22    1    3    3    0    0 -0.88525690508E+02  0.16475294713E+03 -0.95078828961E+02  0.20981018847E+03  0.00000000000E+00 0. -1.
</event>
<event>
 7    1  0.6219721E-006  0.6366286E+02  0.7818608E-02  0.1397704E+00
          2   -1    0    0  502    0  0.00000000000E+00  0.00000000000E+00  0.13221408396E+03  0.13221408396E+03  0.00000000000E+00 0. -1.
          1   -1    0    0  501    0 -0.00000000000E+00 -0.00000000000E+00 -0.13949779509E+04  0.13949779509E+04  0.00000000000E+00 0. -1.
         25    2    1    2    0    0 -0.74903313951E+02  0.30000037403E+01  0.30047894713E+01  0.14578218079E+03  0.12499563597E+03 0.  0.
          2    1    1    2  501    0  0.45096836368E+02  0.45121966670E+02 -0.13087697906E+04  0.13103236551E+04  0.00000000000E+00 0. -1.
          1    1    1    2  502    0  0.29806477583E+02 -0.48121970410E+02  0.43001134150E+02  0.71086198944E+02  0.00000000000E+00 0. -1.
         22    1    3    3    0    0  0.23678764792E+02  0.23476637569E+01  0.34835511429E+02  0.42186588908E+02  0.00000000000E+00 0. -1.
         22    1    3    3    0    0 -0.98582078743E+02  0.65233998333E+00 -0.31830721958E+02  0.10359559188E+03  0.00000000000E+00 0. -1.
</event>
<event>
 7    1  0.6219721E-006  0.5428659E+02  0.7818608E-02  0.1459951E+00
          2   -1    0    0  502    0  0.00000000000E+00  0.00000000000E+00  0.62947967722E+03  0.62947967722E+03  0.00000000000E+00 0. -1.
          1   -1    0    0  501    0 -0.00000000000E+00 -0.00000000000E+00 -0.58602705831E+02  0.58602705831E+02  0.00000000000E+00 0. -1.
         25    2    1    2    0    0 -0.64542784403E+01 -0.45087970265E+01  0.55547787411E+02  0.13701243141E+03  0.12499945085E+03 0.  0.
          2    1    1    2  501    0  0.41410348026E+02  0.46043211592E+02  0.42435263689E+02  0.75070272823E+02  0.00000000000E+00 0. -1.
          1    1    1    2  502    0 -0.34956069586E+02 -0.41534414565E+02  0.47289392029E+03  0.47599967882E+03  0.00000000000E+00 0. -1.
         22    1    3    3    0    0  0.58484958619E+02 -0.11577212690E+02  0.21742794703E+02  0.63460786000E+02  0.00000000000E+00 0. -1.
         22    1    3    3    0    0 -0.64939237059E+02  0.70684156631E+01  0.33804992708E+02  0.73551645405E+02  0.00000000000E+00 0. -1.
</event>
<event>
 7    1  0.6219721E-006  0.7281035E+02  0.7818608E-02  0.1456511E+00
          2   -1    0    0  502    0  0.00000000000E+00  0.00000000000E+00  0.95077529333E+03  0.95077529333E+03  0.00000000000E+00 0. -1.
          1   -1    0    0  501    0 -0.00000000000E+00 -0.00000000000E+00 -0.51565463283E+02  0.51565463283E+02  0.00000000000E+00 0. -1.
         25    2    1    2    0    0  0.64523693771E+02 -0.20768845534E+02  0.11169678458E+03  0.18081998336E+03  0.12500017077E+03 0.  0.
          2    1    1    2  501    0 -0.11164108176E+02 -0.29590957732E+02  0.10517794803E+01  0.31644404417E+02  0.00000000000E+00 0. -1.
          1    1    1    2  502    0 -0.53359585594E+02  0.50359803266E+02  0.78646126598E+03  0.78987636884E+03  0.00000000000E+00 0. -1.
         22    1    3    3    0    0  0.91291620638E+02 -0.96653813368E+01  0.34001760360E+02  0.97896370223E+02  0.00000000000E+00 0.  1.
         22    1    3    3    0    0 -0.26767926868E+02 -0.11103464197E+02  0.77695024224E+02  0.82923613134E+02  0.00000000000E+00 0.  1.
</event>
<event>
 7    1  0.6219721E-006  0.1216853E+03  0.7818608E-02  0.1277037E+00
          2   -1    0    0  502    0  0.00000000000E+00  0.00000000000E+00  0.83707363480E+03  0.83707363480E+03  0.00000000000E+00 0. -1.
          1   -1    0    0  501    0 -0.00000000000E+00 -0.00000000000E+00 -0.15258862247E+03  0.15258862247E+03  0.00000000000E+00 0. -1.
         25    2    1    2    0    0  0.68374595174E+02 -0.14469388643E+02  0.73366310417E+02  0.16091133744E+03  0.12500157815E+03 0.  0.
          2    1    1    2  501    0 -0.14335557123E+03 -0.25082790226E+02 -0.56245424733E+02  0.15602408138E+03  0.00000000000E+00 0. -1.
          1    1    1    2  502    0  0.74980976055E+02  0.39552178869E+02  0.66736412664E+03  0.67272683844E+03  0.00000000000E+00 0. -1.
         22    1    3    3    0    0  0.13771000086E+02 -0.55228924490E+02  0.73258845760E+02  0.92772479894E+02  0.00000000000E+00 0. -1.
         22    1    3    3    0    0  0.54603595089E+02  0.40759535847E+02  0.10746465741E+00  0.68138857547E+02  0.00000000000E+00 0. -1.
</event>
<event>
 7    1  0.6219721E-006  0.8558917E+02  0.7818608E-02  0.1343693E+00
          2   -1    0    0  502    0  0.00000000000E+00  0.00000000000E+00  0.46614646752E+03  0.46614646752E+03  0.00000000000E+00 0. -1.
          1   -1    0    0  501    0 -0.00000000000E+00 -0.00000000000E+00 -0.97824246787E+03  0.97824246787E+03  0.00000000000E+00 0. -1.
         25    2    1    2    0    0 -0.50260603700E+02 -0.44576481319E+02  0.31260967968E+02  0.14531311309E+03  0.12500184697E+03 0.  0.
          2    1    1    2  501    0 -0.38480412260E+02  0.53401663092E+02 -0.91475557205E+03  0.91712062257E+03  0.00000000000E+00 0. -1.
          1    1    1    2  502    0  0.88741015961E+02 -0.88251817727E+01  0.37139860373E+03  0.38195519973E+03  0.00000000000E+00 0. -1.
         22    1    3    3    0    0 -0.23065863243E+02 -0.87136453160E+02  0.10656338399E+02  0.90765373709E+02  0.00000000000E+00 0.  1.
         22    1    3    3    0    0 -0.27194740457E+02  0.42559971840E+02  0.20604629569E+02  0.54547739378E+02  0.00000000000E+00 0.  1.
</event>
<event>
 7    1  0.6219721E-006  0.1581995E+03  0.7818608E-02  0.1245034E+00
          2   -1    0    0  502    0  0.00000000000E+00  0.00000000000E+00  0.16025332522E+04  0.16025332522E+04  0.00000000000E+00 0. -1.
          1   -1    0    0  501    0 -0.00000000000E+00 -0.00000000000E+00 -0.33398881158E+03  0.33398881158E+03  0.00000000000E+00 0. -1.
         25    2    1    2    0    0 -0.10132012651E+03  0.14714517717E+03 -0.19940148856E+02  0.21896654380E+03  0.12502506374E+03 0.  0.
          2    1    1    2  501    0 -0.41550543316E+02 -0.79002661683E+02 -0.20087136998E+03  0.21981168186E+03  0.00000000000E+00 0. -1.
          1    1    1    2  502    0  0.14287066983E+03 -0.68142515489E+02  0.14893559594E+04  0.14977438381E+04  0.00000000000E+00 0. -1.
         22    1    3    3    0    0 -0.11324589849E+03  0.84173639786E+02 -0.47943602362E+02  0.14902491123E+03  0.00000000000E+00 0.  1.
         22    1    3    3    0    0  0.11925771974E+02  0.62971537386E+02  0.28003453506E+02  0.69941632567E+02  0.00000000000E+00 0.  1.
</event>
<event>
 7    1  0.6219721E-006  0.4578118E+02  0.7818608E-02  0.1576370E+00
          2   -1    0    0  502    0  0.00000000000E+00  0.00000000000E+00  0.27442034113E+03  0.27442034113E+03  0.00000000000E+00 0. -1.
          1   -1    0    0  501    0 -0.00000000000E+00 -0.00000000000E+00 -0.29335667626E+03  0.29335667626E+03  0.00000000000E+00 0. -1.
         25    2    1    2    0    0  0.33132490331E+02  0.19984966616E+02 -0.64778815608E+02  0.14601165146E+03  0.12500378637E+03 0.  0.
          2    1    1    2  501    0 -0.46564164276E+02 -0.19941107939E+01 -0.18451811264E+03  0.19031324643E+03  0.00000000000E+00 0. -1.
          1    1    1    2  502    0  0.13431673946E+02 -0.17990855822E+02  0.23036059312E+03  0.23145211950E+03  0.00000000000E+00 0. -1.
         22    1    3    3    0    0  0.30367719286E+02  0.15702888119E+02 -0.10244669239E+03  0.10800048079E+03  0.00000000000E+00 0.  1.
         22    1    3    3    0    0  0.27647710446E+01  0.42820784973E+01  0.37667876778E+02  0.38011170675E+02  0.00000000000E+00 0.  1.
</event>
<event>
 7    1  0.6219721E-006  0.9244752E+02  0.7818608E-02  0.1377880E+00
          2   -1    0    0  502    0  0.00000000000E+00  0.00000000000E+00  0.18600472164E+04  0.18600472164E+04  0.00000000000E+00 0. -1.
          1   -1    0    0  501    0 -0.00000000000E+00 -0.00000000000E+00 -0.31313008380E+02  0.31313008380E+02  0.00000000000E+00 0. -1.
         25    2    1    2    0    0  0.86536456940E+02 -0.27995041593E+02  0.61890365546E+03  0.63791658433E+03  0.12499421220E+03 0.  0.
          2    1    1    2  501    0 -0.21310901895E+02 -0.40467415943E+02  0.62576993686E+01  0.46161944219E+02  0.00000000000E+00 0. -1.
          1    1    1    2  502    0 -0.65225555045E+02  0.68462457536E+02  0.12035728532E+04  0.12072816962E+04  0.00000000000E+00 0. -1.
         22    1    3    3    0    0 -0.30790538257E+02  0.25934008789E+01  0.85684472679E+02  0.91085738909E+02  0.00000000000E+00 0.  1.
         22    1    3    3    0    0  0.11732699520E+03 -0.30588442472E+02  0.53321918278E+03  0.54683084542E+03  0.00000000000E+00 0.  1.
</event>
<event>
 7    1  0.6219721E-006  0.5666401E+02  0.7818608E-02  0.1455536E+00
          2   -1    0    0  502    0  0.00000000000E+00  0.00000000000E+00  0.85574634701E+03  0.85574634701E+03  0.00000000000E+00 0. -1.
          1   -1    0    0  501    0 -0.00000000000E+00 -0.00000000000E+00 -0.48190162551E+03  0.48190162551E+03  0.00000000000E+00 0. -1.
         25    2    1    2    0    0 -0.27577623707E+02  0.25925978079E+02 -0.17708573923E+02  0.13180006009E+03  0.12499992232E+03 0.  0.
          2    1    1    2  501    0  0.17812551856E+01 -0.57702628003E+02 -0.40457254691E+03  0.40867066431E+03  0.00000000000E+00 0. -1.
          1    1    1    2  502    0  0.25796368521E+02  0.31776649924E+02  0.79612584233E+03  0.79717724813E+03  0.00000000000E+00 0. -1.
         22    1    3    3    0    0 -0.38669722645E+02  0.67041365488E+02 -0.36116344683E+02  0.85406571698E+02  0.00000000000E+00 0. -1.
         22    1    3    3    0    0  0.11092098938E+02 -0.41115387409E+02  0.18407770760E+02  0.46393488390E+02  0.00000000000E+00 0. -1.
</event>
<event>
 7    1  0.6219721E-006  0.9338957E+02  0.7818608E-02  0.1354139E+00
          2   -1    0    0  502    0  0.00000000000E+00  0.00000000000E+00  0.34196957617E+03  0.34196957617E+03  0.00000000000E+00 0. -1.
          1   -1    0    0  501    0 -0.00000000000E+00 -0.00000000000E+00 -0.42526397444E+03  0.42526397444E+03  0.00000000000E+00 0. -1.
         25    2    1    2    0    0 -0.95612996358E+02  0.90331635064E+02 -0.18675601149E+03  0.26039186835E+03  0.12499787161E+03 0.  0.
          2    1    1    2  501    0  0.75453820457E+02 -0.38974194356E+02 -0.19006476497E+03  0.20817512274E+03  0.00000000000E+00 0. -1.
          1    1    1    2  502    0  0.20159175901E+02 -0.51357440707E+02  0.29352637819E+03  0.29866655953E+03  0.00000000000E+00 0. -1.
         22    1    3    3    0    0 -0.87672606178E+02  0.11090814866E+01 -0.64574261259E+02  0.10889238336E+03  0.00000000000E+00 0. -1.
         22    1    3    3    0    0 -0.79403901794E+01  0.89222553577E+02 -0.12218175023E+03  0.15149948499E+03  0.00000000000E+00 0. -1.
</event>
<event>
 7    1  0.6219721E-006  0.9035963E+02  0.7818608E-02  0.1359943E+00
          2   -1    0    0  502    0  0.00000000000E+00  0.00000000000E+00  0.77320267136E+03  0.77320267136E+03  0.00000000000E+00 0. -1.
          1   -1    0    0  501    0 -0.00000000000E+00 -0.00000000000E+00 -0.20216391798E+03  0.20216391798E+03  0.00000000000E+00 0. -1.
         25    2    1    2    0    0  0.45567106590E+02  0.35527005318E+01  0.29689800551E+03  0.32536448546E+03  0.12499855934E+03 0.  0.
          2    1    1    2  501    0 -0.86274247638E+02  0.32377569176E+02 -0.17490004227E+03  0.19769061075E+03  0.00000000000E+00 0. -1.
          1    1    1    2  502    0  0.40707141048E+02 -0.35930269707E+02  0.44904079014E+03  0.45231149313E+03  0.00000000000E+00 0. -1.
         22    1    3    3    0    0  0.86431180575E+01  0.58842236702E+02  0.88575482264E+02  0.10668987004E+03  0.00000000000E+00 0.  1.
         22    1    3    3    0    0  0.36923988533E+02 -0.55289536170E+02  0.20832252325E+03  0.21867461543E+03  0.00000000000E+00 0.  1.
</event>
<event>
 7    1  0.6219721E-006  0.1004857E+03  0.7818608E-02  0.1314021E+00
          2   -1    0    0  502    0  0.00000000000E+00  0.00000000000E+00  0.49780808359E+03  0.49780808359E+03  0.00000000000E+00 0. -1.
          1   -1    0    0  501    0 -0.00000000000E+00 -0.00000000000E+00 -0.14839302863E+04  0.14839302863E+04  0.00000000000E+00 0. -1.
         25    2    1    2    0    0 -0.83965870960E+02 -0.14836121472E+03 -0.18851394270E+03  0.28323723022E+03  0.12499801787E+03 0.  0.
          2    1    1    2  501    0  0.47675173257E+02  0.85227913665E+02 -0.12431841878E+04  0.12470138909E+04  0.00000000000E+00 0. -1.
          1    1    1    2  502    0  0.36290697703E+02  0.63133301054E+02  0.44557592773E+03  0.45148724878E+03  0.00000000000E+00 0. -1.
         22    1    3    3    0    0 -0.82304895391E+02 -0.27453193686E+02 -0.53231987241E+02  0.10179105125E+03  0.00000000000E+00 0. -1.
         22    1    3    3    0    0 -0.16609755684E+01 -0.12090802103E+03 -0.13528195546E+03  0.18144617897E+03  0.00000000000E+00 0. -1.
</event>
<event>
 7    1  0.6219721E-006  0.5285502E+02  0.7818608E-02  0.1535895E+00
          2   -1    0    0  502    0  0.00000000000E+00  0.00000000000E+00  0.59420543038E+03  0.59420543038E+03  0.00000000000E+00 0. -1.
          1   -1    0    0  501    0 -0.00000000000E+00 -0.00000000000E+00 -0.36372319835E+02  0.36372319835E+02  0.00000000000E+00 0. -1.
         25    2    1    2    0    0 -0.53947945688E+02 -0.87821701931E+01  0.14346001983E+03  0.19797279702E+03  0.12499977486E+03 0.  0.
          2    1    1    2  501    0  0.51408762863E+02 -0.16258090570E+02  0.75379048907E+02  0.92677869108E+02  0.00000000000E+00 0. -1.
          1    1    1    2  502    0  0.25391828247E+01  0.25040260764E+02  0.33899404182E+03  0.33992708409E+03  0.00000000000E+00 0. -1.
         22    1    3    3    0    0 -0.87881995644E+02 -0.10022062766E+02  0.57369398417E+02  0.10542739101E+03  0.00000000000E+00 0.  1.
         22    1    3    3    0    0  0.33934049956E+02  0.12398925731E+01  0.86090621408E+02  0.92545406015E+02  0.00000000000E+00 0.  1.
</event>
<event>
 7    1  0.6219721E-006  0.4765301E+02  0.7818608E-02  0.1471365E+00
          2   -1    0    0  502    0  0.00000000000E+00  0.00000000000E+00  0.12310058848E+03  0.12310058848E+03  0.00000000000E+00 0. -1.
          1   -1    0    0  501    0 -0.00000000000E+00 -0.00000000000E+00 -0.68923809175E+03  0.68923809175E+03  0.00000000000E+00 0. -1.
         25    2    1    2    0    0 -0.47083770006E+02  0.42590522263E+02 -0.10096152910E+03  0.17276994390E+03  0.12500155668E+03 0.  0.
          2    1    1    2  501    0  0.39567621889E+01 -0.47510125431E+02 -0.54586623932E+03  0.54794417527E+03  0.00000000000E+00 0. -1.
          1    1    1    2  502    0  0.43127007817E+02  0.49196031686E+01  0.80690265153E+02  0.91624561058E+02  0.00000000000E+00 0. -1.
         22    1    3    3    0    0 -0.64591542208E+02 -0.17604554719E+02 -0.84779355804E+02  0.10802558420E+03  0.00000000000E+00 0. -1.
         22    1    3    3    0    0  0.17507772202E+02  0.60195076982E+02 -0.16182173298E+02  0.64744359700E+02  0.00000000000E+00 0. -1.
</event>
<event>
 7    1  0.6219721E-006  0.7677855E+02  0.7818608E-02  0.1392158E+00
          2   -1    0    0  502    0  0.00000000000E+00  0.00000000000E+00  0.12353151304E+04  0.12353151304E+04  0.00000000000E+00 0. -1.
          1   -1    0    0  501    0 -0.00000000000E+00 -0.00000000000E+00 -0.48982357873E+03  0.48982357873E+03  0.00000000000E+00 0. -1.
         25    2    1    2    0    0 -0.88516885488E+02 -0.73372561575E+02  0.54096189547E+03  0.56699529227E+03  0.12500046917E+03 0.  0.
          2    1    1    2  501    0  0.40136516275E+02  0.65242428384E+02 -0.47283756777E+03  0.47900196230E+03  0.00000000000E+00 0. -1.
          1    1    1    2  502    0  0.48380369213E+02  0.81301331914E+01  0.67736722393E+03  0.67914145452E+03  0.00000000000E+00 0. -1.
         22    1    3    3    0    0 -0.42450998797E+02 -0.73479558811E+02  0.14231169375E+03  0.16569233851E+03  0.00000000000E+00 0. -1.
         22    1    3    3    0    0 -0.46065886692E+02  0.10699723564E+00  0.39865020172E+03  0.40130295376E+03  0.00000000000E+00 0. -1.
</event>
<event>
 7    1  0.6219721E-006  0.7109331E+02  0.7818608E-02  0.1385157E+00
          2   -1    0    0  502    0  0.00000000000E+00  0.00000000000E+00  0.38325769762E+03  0.38325769762E+03  0.00000000000E+00 0. -1.
          1   -1    0    0  501    0 -0.00000000000E+00 -0.00000000000E+00 -0.71916666099E+03  0.71916666099E+03  0.00000000000E+00 0. -1.
         25    2    1    2    0    0  0.80902562905E+02  0.87225422698E+01  0.91772042811E+02  0.17509706704E+03  0.12496226477E+03 0.  0.
          2    1    1    2  501    0 -0.33035177267E+02  0.45285191060E+02 -0.67109938941E+03  0.67343630874E+03  0.00000000000E+00 0. -1.
          1    1    1    2  502    0 -0.47867385638E+02 -0.54007733330E+02  0.24341838323E+03  0.25389098282E+03  0.00000000000E+00 0. -1.
         22    1    3    3    0    0  0.11329436036E+03 -0.50279679794E+01  0.63620707488E+02  0.13003263811E+03  0.00000000000E+00 0.  1.
         22    1    3    3    0    0 -0.32391797455E+02  0.13750510249E+02  0.28151335322E+02  0.45064428932E+02  0.00000000000E+00 0.  1.
</event>
<event>
 7    1  0.6219721E-006  0.1096741E+03  0.7818608E-02  0.1337653E+00
          2   -1    0    0  502    0  0.00000000000E+00  0.00000000000E+00  0.58592435502E+03  0.58592435502E+03  0.00000000000E+00 0. -1.
          1   -1    0    0  501    0 -0.00000000000E+00 -0.00000000000E+00 -0.22051473135E+03  0.22051473135E+03  0.00000000000E+00 0. -1.
         25    2    1    2    0    0 -0.14528183289E+03  0.46429398313E+02  0.10963518410E+03  0.22562709503E+03  0.12500084969E+03 0.  0.
          2    1    1    2  501    0  0.10505663039E+03 -0.10217805581E+02 -0.14335903854E+03  0.17802559668E+03  0.00000000000E+00 0. -1.
          1    1    1    2  502    0  0.40225202506E+02 -0.36211592732E+02  0.39913347812E+03  0.40278639466E+03  0.00000000000E+00 0. -1.
         22    1    3    3    0    0 -0.52820852823E+02 -0.38539634745E+02  0.65426952013E+02  0.92498821554E+02  0.00000000000E+00 0.  1.
         22    1    3    3    0    0 -0.92460980072E+02  0.84969033058E+02  0.44208232084E+02  0.13312827348E+03  0.00000000000E+00 0.  1.
</event>
<event>
 7    1  0.6219721E-006  0.5057946E+02  0.7818608E-02  0.1506910E+00
          2   -1    0    0  502    0  0.00000000000E+00  0.00000000000E+00  0.82926865709E+03  0.82926865709E+03  0.00000000000E+00 0. -1.
          1   -1    0    0  501    0 -0.00000000000E+00 -0.00000000000E+00 -0.24721548387E+03  0.24721548387E+03  0.00000000000E+00 0. -1.
         25    2    1    2    0    0 -0.79702742110E+02 -0.20573334028E+02  0.55621412270E+03  0.57600000135E+03  0.12500424830E+03 0.  0.
          2    1    1    2  501    0  0.48555158769E+02  0.13618181530E+02 -0.23365496063E+03  0.23903493246E+03  0.00000000000E+00 0. -1.
          1    1    1    2  502    0  0.31147583341E+02  0.69551524983E+01  0.25949401115E+03  0.26144920714E+03  0.00000000000E+00 0. -1.
         22    1    3    3    0    0 -0.11350967784E+03 -0.21330643580E+02  0.41277233183E+03  0.42862622556E+03  0.00000000000E+00 0.  1.
         22    1    3    3    0    0  0.33806935731E+02  0.75730955193E+00  0.14344179088E+03  0.14737377579E+03  0.00000000000E+00 0.  1.
</event>
<event>
 7    1  0.6219721E-006  0.5814080E+02  0.7818608E-02  0.1442572E+00
          2   -1    0    0  502    0  0.00000000000E+00  0.00000000000E+00  0.33767450662E+03  0.33767450662E+03  0.00000000000E+00 0. -1.
          1   -1    0    0  501    0 -0.00000000000E+00 -0.00000000000E+00 -0.92411007139E+02  0.92411007139E+02  0.00000000000E+00 0. -1.
         25    2    1    2    0    0 -0.64099537889E+01 -0.18533906462E+02  0.58724228933E+02  0.13952149888E+03  0.12503247733E+03 0.  0.
          2    1    1    2  501    0 -0.30239369235E+02 -0.31815000851E+02 -0.37685663411E+02  0.57851732538E+02  0.00000000000E+00 0. -1.
          1    1    1    2  502    0  0.36649323024E+02  0.50348907313E+02  0.22422493396E+03  0.23271228234E+03  0.00000000000E+00 0. -1.
         22    1    3    3    0    0  0.93140064448E+01 -0.41904791713E+02 -0.26034218300E+02  0.50205007788E+02  0.00000000000E+00 0.  1.
         22    1    3    3    0    0 -0.15723960234E+02  0.23370885250E+02  0.84758447233E+02  0.89316491087E+02  0.00000000000E+00 0.  1.
</event>
<event>
 7    1  0.6219721E-006  0.3204166E+03  0.7818608E-02  0.1285030E+00
          2   -1    0    0  502    0  0.00000000000E+00  0.00000000000E+00  0.34125787769E+04  0.34125787769E+04  0.00000000000E+00 0. -1.
          1   -1    0    0  501    0 -0.00000000000E+00 -0.00000000000E+00 -0.51288323637E+02  0.51288323637E+02  0.00000000000E+00 0. -1.
         25    2    1    2    0    0 -0.71604578102E+02 -0.31521975104E+03  0.13978876807E+04  0.14402107494E+04  0.12500531175E+03 0.  0.
          2    1    1    2  501    0  0.29814454997E+02 -0.12426159388E+01 -0.43719168288E+01  0.30158903792E+02  0.00000000000E+00 0. -1.
          1    1    1    2  502    0  0.41790123105E+02  0.31646236698E+03  0.19677746894E+04  0.19934974473E+04  0.00000000000E+00 0. -1.
         22    1    3    3    0    0 -0.98668393068E+02 -0.26402575994E+03  0.12501335147E+04  0.12815142833E+04  0.00000000000E+00 0. -1.
         22    1    3    3    0    0  0.27063814966E+02 -0.51193991102E+02  0.14775416600E+03  0.15869646618E+03  0.00000000000E+00 0. -1.
</event>
<event>
 7    1  0.6219721E-006  0.1651094E+03  0.7818608E-02  0.1343676E+00
          2   -1    0    0  502    0  0.00000000000E+00  0.00000000000E+00  0.45565953610E+03  0.45565953610E+03  0.00000000000E+00 0. -1.
          1   -1    0    0  501    0 -0.00000000000E+00 -0.00000000000E+00 -0.20806116151E+03  0.20806116151E+03  0.00000000000E+00 0. -1.
         25    2    1    2    0    0 -0.50771667642E+02 -0.17528697711E+03 -0.20831488641E+02  0.22217814892E+03  0.12500356937E+03 0.  0.
          2    1    1    2  501    0  0.26491650602E+02  0.15130704055E+03 -0.16576415717E+02  0.15450050365E+03  0.00000000000E+00 0. -1.
          1    1    1    2  502    0  0.24280017040E+02  0.23979936567E+02  0.28500627894E+03  0.28704204504E+03  0.00000000000E+00 0. -1.
         22    1    3    3    0    0 -0.58724629272E+02 -0.15575763927E+03 -0.60613978777E+02  0.17715269882E+03  0.00000000000E+00 0.  1.
         22    1    3    3    0    0  0.79529616303E+01 -0.19529337842E+02  0.39782490137E+02  0.45025450100E+02  0.00000000000E+00 0.  1.
</event>
<event>
 7    1  0.6219721E-006  0.2063407E+03  0.7818608E-02  0.1256258E+00
          2   -1    0    0  502    0  0.00000000000E+00  0.00000000000E+00  0.27632966092E+03  0.27632966092E+03  0.00000000000E+00 0. -1.
          1   -1    0    0  501    0 -0.00000000000E+00 -0.00000000000E+00 -0.24249293733E+03  0.24249293733E+03  0.00000000000E+00 0. -1.
         25    2    1    2    0    0  0.13789809038E+03 -0.15363286304E+03 -0.16206217752E+02  0.24188262874E+03  0.12500249860E+03 0.  0.
          2    1    1    2  501    0 -0.49140321225E+02 -0.36454883178E+02 -0.33634739027E+00  0.61186949648E+02  0.00000000000E+00 0. -1.
          1    1    1    2  502    0 -0.88757769155E+02  0.19008774621E+03  0.50379288740E+02  0.21575301986E+03  0.00000000000E+00 0. -1.
         22    1    3    3    0    0  0.72747997098E+02 -0.51465931091E+01  0.20241147685E+02  0.75686607547E+02  0.00000000000E+00 0. -1.
         22    1    3    3    0    0  0.65150093283E+02 -0.14848626993E+03 -0.36447365438E+02  0.16619602119E+03  0.00000000000E+00 0. -1.
</event>
<event>
 7    1  0.6219721E-006  0.1393445E+03  0.7818608E-02  0.1351900E+00
          2   -1    0    0  502    0  0.00000000000E+00  0.00000000000E+00  0.31616726984E+03  0.31616726984E+03  0.00000000000E+00 0. -1.
          1   -1    0    0  501    0 -0.00000000000E+00 -0.00000000000E+00 -0.83650441480E+03  0.83650441480E+03  0.00000000000E+00 0. -1.
         25    2    1    2    0    0 -0.96766600090E+02 -0.96275413962E+02 -0.15979664023E+03  0.24452246217E+03  0.12499415205E+03 0.  0.
          2    1    1    2  501    0  0.69493075559E+02  0.12228402299E+03 -0.62519702098E+03  0.64082289665E+03  0.00000000000E+00 0. -1.
          1    1    1    2  502    0  0.27273524531E+02 -0.26008609026E+02  0.26465651625E+03  0.26732632583E+03  0.00000000000E+00 0. -1.
         22    1    3    3    0    0 -0.59874574140E+02 -0.63666944336E+02 -0.17275823229E+03  0.19360746694E+03  0.00000000000E+00 0.  1.
         22    1    3    3    0    0 -0.36892025950E+02 -0.32608469626E+02  0.12961592061E+02  0.50914995226E+02  0.00000000000E+00 0.  1.
</event>
<event>
 7    1  0.6219721E-006  0.6747170E+02  0.7818608E-02  0.1451867E+00
          2   -1    0    0  502    0  0.00000000000E+00  0.00000000000E+00  0.39622345790E+03  0.39622345790E+03  0.00000000000E+00 0. -1.
          1   -1    0    0  501    0 -0.00000000000E+00 -0.00000000000E+00 -0.83266318810E+02  0.83266318810E+02  0.00000000000E+00 0. -1.
         25    2    1    2    0    0 -0.45194504754E+02 -0.93073107242E+01  0.11943047731E+03  0.17893383151E+03  0.12499803140E+03 0.  0.
          2    1    1    2  501    0 -0.13241344082E+02 -0.32733343795E+02 -0.41652890719E+02  0.54605570177E+02  0.00000000000E+00 0. -1.
          1    1    1    2  502    0  0.58435848835E+02  0.42040654520E+02  0.23517955249E+03  0.24595037502E+03  0.00000000000E+00 0. -1.
         22    1    3    3    0    0 -0.28517651919E+02  0.50491658516E+02  0.19292716341E+02  0.61113606950E+02  0.00000000000E+00 0. -1.
         22    1    3    3    0    0 -0.16676852835E+02 -0.59798969240E+02  0.10013776097E+03  0.11782022456E+03  0.00000000000E+00 0. -1.
</event>
<event>
 7    1  0.6219721E-006  0.8343018E+02  0.7818608E-02  0.1450703E+00
          2   -1    0    0  502    0  0.00000000000E+00  0.00000000000E+00  0.48579797356E+03  0.48579797356E+03  0.00000000000E+00 0. -1.
          1   -1    0    0  501    0 -0.00000000000E+00 -0.00000000000E+00 -0.32138866860E+03  0.32138866860E+03  0.00000000000E+00 0. -1.
         25    2    1    2    0    0  0.52745980004E+02  0.18162276197E+02 -0.12089681359E+03  0.18262404577E+03  0.12499398335E+03 0.  0.
          2    1    1    2  501    0  0.24591115200E+02  0.14993456093E+02 -0.16447530756E+03  0.16697800295E+03  0.00000000000E+00 0. -1.
          1    1    1    2  502    0 -0.77337095204E+02 -0.33155732290E+02  0.44978142611E+03  0.45758459344E+03  0.00000000000E+00 0. -1.
         22    1    3    3    0    0  0.39903675786E+01  0.65075040232E+02 -0.81356702844E+02  0.10425735942E+03  0.00000000000E+00 0. -1.
         22    1    3    3    0    0  0.48755612426E+02 -0.46912764035E+02 -0.39540110746E+02  0.78366686355E+02  0.00000000000E+00 0. -1.
</event>
<event>
 7    1  0.6219721E-006  0.3841990E+02  0.7818608E-02  0.1554011E+00
          2   -1    0    0  502    0  0.00000000000E+00  0.00000000000E+00  0.22919827625E+04  0.22919827625E+04  0.00000000000E+00 0. -1.
          1   -1    0    0  501    0 -0.00000000000E+00 -0.00000000000E+00 -0.15240848084E+02  0.15240848084E+02  0.00000000000E+00 0. -1.
         25    2    1    2    0    0  0.21990659516E+02  0.54178903293E+02  0.54859312496E+03  0.56568188008E+03  0.12499051978E+03 0.  0.
          2    1    1    2  501    0  0.35110061277E+01 -0.36912151524E+02  0.45874780001E+02  0.58985841812E+02  0.00000000000E+00 0. -1.
          1    1    1    2  502    0 -0.25501665644E+02 -0.17266751769E+02  0.16822740095E+04  0.16825558887E+04  0.00000000000E+00 0. -1.
         22    1    3    3    0    0  0.39187458859E+02  0.74062381143E+02  0.21043385232E+03  0.22650231662E+03  0.00000000000E+00 0. -1.
         22    1    3    3    0    0 -0.17196799343E+02 -0.19883477850E+02  0.33815927263E+03  0.33917956346E+03  0.00000000000E+00 0. -1.
</event>
<event>
 7    1  0.6219721E-006  0.1388151E+03  0.7818608E-02  0.1264154E+00
          2   -1    0    0  502    0  0.00000000000E+00  0.00000000000E+00  0.25591139819E+04  0.25591139819E+04  0.00000000000E+00 0. -1.
          1   -1    0    0  501    0 -0.00000000000E+00 -0.00000000000E+00 -0.12681118010E+04  0.12681118010E+04  0.00000000000E+00 0. -1.
         25    2    1    2    0    0 -0.15308935752E+03 -0.52103923160E+02  0.12593787588E+04  0.12758567334E+04  0.12499750332E+03 0.  0.
          2    1    1    2  501    0  0.13549287529E+03 -0.30196857496E+02 -0.12546696323E+04  0.12623256536E+04  0.00000000000E+00 0. -1.
          1    1    1    2  502    0  0.17596482221E+02  0.82300780655E+02  0.12862930544E+04  0.12890433959E+04  0.00000000000E+00 0. -1.
         22    1    3    3    0    0 -0.30383778512E+02  0.32753042017E-01  0.70565266386E+03  0.70630648949E+03  0.00000000000E+00 0. -1.
         22    1    3    3    0    0 -0.12270557900E+03 -0.52136676202E+02  0.55372609495E+03  0.56955024393E+03  0.00000000000E+00 0. -1.
</event>
<event>
 7    1  0.6219721E-006  0.1218921E+03  0.7818608E-02  0.1399823E+00
          2   -1    0    0  502    0  0.00000000000E+00  0.00000000000E+00  0.61240134439E+03  0.61240134439E+03  0.00000000000E+00 0. -1.
          1   -1    0    0  501    0 -0.00000000000E+00 -0.00000000000E+00 -0.13046050763E+04  0.13046050763E+04  0.00000000000E+00 0. -1.
         25    2    1    2    0    0 -0.24162410693E+02 -0.12172829620E+03  0.24522780613E+03  0.30191554476E+03  0.12495886955E+03 0.  0.
          2    1    1    2  501    0 -0.26931526935E+02  0.10947659817E+02 -0.12651076644E+04  0.12654416466E+04  0.00000000000E+00 0. -1.
          1    1    1    2  502    0  0.51093937628E+02  0.11078063638E+03  0.32767612631E+03  0.34964922939E+03  0.00000000000E+00 0. -1.
         22    1    3    3    0    0  0.59122226592E+01 -0.38770731405E+01  0.14259823668E+03  0.14277339800E+03  0.00000000000E+00 0.  1.
         22    1    3    3    0    0 -0.30074633352E+02 -0.11785122306E+03  0.10262956945E+03  0.15914214675E+03  0.00000000000E+00 0.  1.
</event>
<event>
 7    1  0.6219721E-006  0.6964383E+02  0.7818608E-02  0.1412674E+00
          2   -1    0    0  502    0  0.00000000000E+00  0.00000000000E+00  0.76346891888E+03  0.76346891888E+03  0.00000000000E+00 0. -1.
          1   -1    0    0  501    0 -0.00000000000E+00 -0.00000000000E+00 -0.14560063025E+04  0.14560063025E+04  0.00000000000E+00 0. -1.
         25    2    1    2    0    0  0.53546014433E+02 -0.95493304934E+02  0.22281501371E+03  0.27795101323E+03  0.12499635383E+03 0.  0.
          2    1    1    2  501    0 -0.10190016378E+02  0.44858603902E+02 -0.14259006743E+04  0.14266425144E+04  0.00000000000E+00 0. -1.
          1    1    1    2  502    0 -0.43355998055E+02  0.50634701032E+02  0.51054827696E+03  0.51488169381E+03  0.00000000000E+00 0. -1.
         22    1    3    3    0    0  0.11763480955E+01  0.24298398975E+00  0.14238286110E+03  0.14238792776E+03  0.00000000000E+00 0.  1.
         22    1    3    3    0    0  0.52369666337E+02 -0.95736288924E+02  0.80432152614E+02  0.13556308547E+03  0.00000000000E+00 0.  1.
</event>
<event>
 7    1  0.6219721E-006  0.1035930E+03  0.7818608E-02  0.1442624E+00
          2   -1    0    0  502    0  0.00000000000E+00  0.00000000000E+00  0.20467924979E+04  0.20467924979E+04  0.00000000000E+00 0. -1.
          1   -1    0    0  501    0 -0.00000000000E+00 -0.00000000000E+00 -0.35583893716E+03  0.35583893716E+03  0.00000000000E+00 0. -1.
         25    2    1    2    0    0 -0.99700270310E+02  0.60059172075E+02 -0.91717792788E+02  0.19386680652E+03  0.12499974843E+03 0.  0.
          2    1    1    2  501    0  0.25096501596E+01 -0.24496938520E+02 -0.21098835647E+03  0.21242053786E+03  0.00000000000E+00 0. -1.
          1    1    1    2  502    0  0.97190620150E+02 -0.35562233555E+02  0.19936597100E+04  0.19963440907E+04  0.00000000000E+00 0. -1.
         22    1    3    3    0    0 -0.66034761857E+02  0.47967231117E+02  0.13507189344E+02  0.82727801847E+02  0.00000000000E+00 0. -1.
         22    1    3    3    0    0 -0.33665508453E+02  0.12091940958E+02 -0.10522498213E+03  0.11113900468E+03  0.00000000000E+00 0. -1.
</event>
<event>
 7    1  0.6219721E-006  0.9024072E+02  0.7818608E-02  0.1332747E+00
          2   -1    0    0  502    0  0.00000000000E+00  0.00000000000E+00  0.18641313062E+03  0.18641313062E+03  0.00000000000E+00 0. -1.
          1   -1    0    0  501    0 -0.00000000000E+00 -0.00000000000E+00 -0.98269296371E+03  0.98269296371E+03  0.00000000000E+00 0. -1.
         25    2    1    2    0    0 -0.10956595096E+03  0.76412389187E+02 -0.38172093299E+03  0.42329586266E+03  0.12499986331E+03 0.  0.
          2    1    1    2  501    0  0.84429738457E+02 -0.12523247515E+02 -0.56975149112E+03  0.57610934214E+03  0.00000000000E+00 0. -1.
          1    1    1    2  502    0  0.25136212501E+02 -0.63889141672E+02  0.15519259102E+03  0.16970088953E+03  0.00000000000E+00 0. -1.
         22    1    3    3    0    0 -0.61399958523E+02 -0.20961147111E+02 -0.21269076727E+03  0.22236611045E+03  0.00000000000E+00 0. -1.
         22    1    3    3    0    0 -0.48165992435E+02  0.97373536298E+02 -0.16903016572E+03  0.20092975221E+03  0.00000000000E+00 0. -1.
</event>
<event>
 7    1  0.6219721E-006  0.1503992E+03  0.7818608E-02  0.1293277E+00
          2   -1    0    0  502    0  0.00000000000E+00  0.00000000000E+00  0.23095054199E+03  0.23095054199E+03  0.00000000000E+00 0. -1.
          1   -1    0    0  501    0 -0.00000000000E+00 -0.00000000000E+00 -0.15866998125E+04  0.15866998125E+04  0.00000000000E+00 0. -1.
         25    2    1    2    0    0 -0.99659174296E+02 -0.82965520993E+01 -0.30084478984E+03  0.34078294327E+03  0.12499857219E+03 0.  0.
          2    1    1    2  501    0 -0.54785128806E+02  0.21469862274E+02 -0.12366216513E+04  0.12380207890E+04  0.00000000000E+00 0. -1.
          1    1    1    2  502    0  0.15444430310E+03 -0.13173310174E+02  0.18171717066E+03  0.23884662228E+03  0.00000000000E+00 0. -1.
         22    1    3    3    0    0 -0.90094993319E+02  0.23488559460E+02 -0.29192399971E+03  0.30641220904E+03  0.00000000000E+00 0. -1.
         22    1    3    3    0    0 -0.95641809765E+01 -0.31785111559E+02 -0.89207901385E+01  0.34370734227E+02  0.00000000000E+00 0. -1.
</event>
<event>
 7    1  0.6219721E-006  0.1301419E+03  0.7818608E-02  0.1287706E+00
          2   -1    0    0  502    0  0.00000000000E+00  0.00000000000E+00  0.44556412020E+03  0.44556412020E+03  0.00000000000E+00 0. -1.
          1   -1    0    0  501    0 -0.00000000000E+00 -0.00000000000E+00 -0.34607346077E+04  0.34607346077E+04  0.00000000000E+00 0. -1.
         25    2    1    2    0    0  0.76902549836E+02 -0.32695108078E+00 -0.84080738658E+03  0.85352018580E+03  0.12500214866E+03 0.  0.
          2    1    1    2  501    0 -0.14709405827E+03 -0.14007855799E+02 -0.26085447258E+04  0.26127262521E+04  0.00000000000E+00 0. -1.
          1    1    1    2  502    0  0.70191508438E+02  0.14334806880E+02  0.43418162488E+03  0.44005228999E+03  0.00000000000E+00 0. -1.
         22    1    3    3    0    0  0.38795431569E+01 -0.41582849968E+02 -0.10582437846E+03  0.11376723317E+03  0.00000000000E+00 0. -1.
         22    1    3    3    0    0  0.73023006679E+02  0.41255898887E+02 -0.73498300812E+03  0.73975295263E+03  0.00000000000E+00 0. -1.
</event>
<event>
 7    1  0.6219721E-006  0.7546807E+02  0.7818608E-02  0.1379718E+00
          2   -1    0    0  502    0  0.00000000000E+00  0.00000000000E+00  0.72037909389E+03  0.72037909389E+03  0.00000000000E+00 0. -1.
          1   -1    0    0  501    0 -0.00000000000E+00 -0.00000000000E+00 -0.15931890889E+04  0.15931890889E+04  0.00000000000E+00 0. -1.
         25    2    1    2    0    0  0.29677760790E+02 -0.25142589747E+02 -0.12356143045E+02  0.13149314337E+03  0.12499941271E+03 0.  0.
          2    1    1    2  501    0  0.47168828354E+02  0.28655362993E+02 -0.15185226148E+04  0.15195252416E+04  0.00000000000E+00 0. -1.
          1    1    1    2  502    0 -0.76846589144E+02 -0.35127732463E+01  0.65806876288E+03  0.66254979777E+03  0.00000000000E+00 0. -1.
         22    1    3    3    0    0 -0.26986568221E+02 -0.55706164258E+02  0.11264520400E+02  0.62915348052E+02  0.00000000000E+00 0.  1.
         22    1    3    3    0    0  0.56664329011E+02  0.30563574511E+02 -0.23620663445E+02  0.68577795319E+02  0.00000000000E+00 0.  1.
</event>
<event>
 7    1  0.6219721E-006  0.7360333E+02  0.7818608E-02  0.1439155E+00
          2   -1    0    0  502    0  0.00000000000E+00  0.00000000000E+00  0.86706290405E+03  0.86706290405E+03  0.00000000000E+00 0. -1.
          1   -1    0    0  501    0 -0.00000000000E+00 -0.00000000000E+00 -0.13569056822E+03  0.13569056822E+03  0.00000000000E+00 0. -1.
         25    2    1    2    0    0 -0.55399151567E+02  0.86010783837E+02  0.27482914217E+02  0.16385086812E+03  0.12499950192E+03 0.  0.
          2    1    1    2  501    0  0.44318166927E+02 -0.52213283362E+02 -0.49608597336E+02  0.84565594711E+02  0.00000000000E+00 0. -1.
          1    1    1    2  502    0  0.11080984640E+02 -0.33797500475E+02  0.75349801894E+03  0.75433700944E+03  0.00000000000E+00 0. -1.
         22    1    3    3    0    0 -0.79833169819E+02  0.25491945584E+02 -0.16146405763E+02  0.85345654324E+02  0.00000000000E+00 0.  1.
         22    1    3    3    0    0  0.24434018252E+02  0.60518838253E+02  0.43629319980E+02  0.78505213797E+02  0.00000000000E+00 0.  1.
</event>
<event>
 7    1  0.6219721E-006  0.3923553E+02  0.7818608E-02  0.1579002E+00
          2   -1    0    0  502    0  0.00000000000E+00  0.00000000000E+00  0.69243171165E+03  0.69243171165E+03  0.00000000000E+00 0. -1.
          1   -1    0    0  501    0 -0.00000000000E+00 -0.00000000000E+00 -0.33480611471E+03  0.33480611471E+03  0.00000000000E+00 0. -1.
         25    2    1    2    0    0  0.33706694952E+02 -0.66205307880E+01 -0.11969864377E+03  0.17644348725E+03  0.12499826462E+03 0.  0.
          2    1    1    2  501    0 -0.35341760797E+02 -0.19101457741E+02 -0.18432054682E+03  0.18864773978E+03  0.00000000000E+00 0. -1.
          1    1    1    2  502    0  0.16350658450E+01  0.25721988529E+02  0.66164478754E+03  0.66214659933E+03  0.00000000000E+00 0. -1.
         22    1    3    3    0    0  0.33385915712E+02 -0.45976516566E+02 -0.12444324014E+03  0.13680124071E+03  0.00000000000E+00 0.  1.
         22    1    3    3    0    0  0.32077924016E+00  0.39355985778E+02  0.47445963651E+01  0.39642246537E+02  0.00000000000E+00 0.  1.
</event>
<event>
 7    1  0.6219721E-006  0.9680434E+02  0.7818608E-02  0.1420785E+00
          2   -1    0    0  502    0  0.00000000000E+00  0.00000000000E+00  0.18371655987E+04  0.18371655987E+04  0.00000000000E+00 0. -1.
          1   -1    0    0  501    0 -0.00000000000E+00 -0.00000000000E+00 -0.13176555607E+04  0.13176555607E+04  0.00000000000E+00 0. -1.
         25    2    1    2    0    0  0.19947698290E+02 -0.99504367541E+02  0.45489251123E+03  0.48254737321E+03  0.12500296313E+03 0.  0.
          2    1    1    2  501    0  0.10958510290E+02  0.96182759112E+02 -0.13018542700E+04  0.13054484871E+04  0.00000000000E+00 0. -1.
          1    1    1    2  502    0 -0.30906208580E+02  0.33216084289E+01  0.13664717967E+04  0.13668252990E+04  0.00000000000E+00 0. -1.
         22    1    3    3    0    0 -0.49232730681E+01 -0.36689170465E+02  0.19300660072E+02  0.41747446944E+02  0.00000000000E+00 0. -1.
         22    1    3    3    0    0  0.24870971358E+02 -0.62815197076E+02  0.43559185115E+03  0.44079992626E+03  0.00000000000E+00 0. -1.
</event>
<event>
 7    1  0.6219721E-006  0.1310240E+03  0.7818608E-02  0.1260901E+00
          2   -1    0    0  502    0  0.00000000000E+00  0.00000000000E+00  0.68773046220E+03  0.68773046220E+03  0.00000000000E+00 0. -1.
          1   -1    0    0  501    0 -0.00000000000E+00 -0.00000000000E+00 -0.35866548942E+03  0.35866548942E+03  0.00000000000E+00 0. -1.
         25    2    1    2    0    0  0.84272184467E+01  0.20241647425E+03  0.16993695809E+03  0.29248458776E+03  0.12500086916E+03 0.  0.
          2    1    1    2  501    0 -0.38028429809E+02 -0.83826825426E+02 -0.28174917067E+03  0.29640461080E+03  0.00000000000E+00 0. -1.
          1    1    1    2  502    0  0.29601211362E+02 -0.11858964883E+03  0.44087718535E+03  0.45750675305E+03  0.00000000000E+00 0. -1.
         22    1    3    3    0    0 -0.51973378555E+02  0.10134706859E+03  0.49921670322E+02  0.12435687982E+03  0.00000000000E+00 0. -1.
         22    1    3    3    0    0  0.60400597002E+02  0.10106940566E+03  0.12001528777E+03  0.16812770794E+03  0.00000000000E+00 0. -1.
</event>
<event>
 7    1  0.6219721E-006  0.1327431E+03  0.7818608E-02  0.1281123E+00
          2   -1    0    0  502    0  0.00000000000E+00  0.00000000000E+00  0.17209000124E+04  0.17209000124E+04  0.00000000000E+00 0. -1.
          1   -1    0    0  501    0 -0.00000000000E+00 -0.00000000000E+00 -0.22126551653E+03  0.22126551653E+03  0.00000000000E+00 0. -1.
         25    2    1    2    0    0 -0.11085609216E+03  0.11060665588E+03  0.11869853901E+03  0.23288979305E+03  0.12500162820E+03 0.  0.
          2    1    1    2  501    0  0.37725697117E+02 -0.12605039064E+03 -0.13673885125E+03  0.18976154153E+03  0.00000000000E+00 0. -1.
          1    1    1    2  502    0  0.73130395046E+02  0.15443734764E+02  0.15176748081E+04  0.15195141943E+04  0.00000000000E+00 0. -1.
         22    1    3    3    0    0 -0.47044335991E+02 -0.14768229212E+02  0.76062616127E+00  0.49313777944E+02  0.00000000000E+00 0.  1.
         22    1    3    3    0    0 -0.63811756172E+02  0.12537488509E+03  0.11793791285E+03  0.18357601511E+03  0.00000000000E+00 0.  1.
</event>
<event>
 7    1  0.6219721E-006  0.3911569E+02  0.7818608E-02  0.1563953E+00
          2   -1    0    0  502    0  0.00000000000E+00  0.00000000000E+00  0.17929001767E+04  0.17929001767E+04  0.00000000000E+00 0. -1.
          1   -1    0    0  501    0 -0.00000000000E+00 -0.00000000000E+00 -0.15226382133E+03  0.15226382133E+03  0.00000000000E+00 0. -1.
         25    2    1    2    0    0 -0.30471276602E+02  0.58254923274E+02  0.22943006240E+03  0.26941579557E+03  0.12499833034E+03 0.  0.
          2    1    1    2  501    0  0.23842086216E+02 -0.30639638754E+02 -0.12928849339E+03  0.13499165552E+03  0.00000000000E+00 0. -1.
          1    1    1    2  502    0  0.66291903864E+01 -0.27615284520E+02  0.15404947864E+04  0.15407565469E+04  0.00000000000E+00 0. -1.
         22    1    3    3    0    0  0.13948654861E+02  0.78628340269E+02  0.83581923846E+02  0.11559809194E+03  0.00000000000E+00 0.  1.
         22    1    3    3    0    0 -0.44419931463E+02 -0.20373416995E+02  0.14584813856E+03  0.15381770364E+03  0.00000000000E+00 0.  1.
</event>
<event>
 7    1  0.6219721E-006  0.1098174E+03  0.7818608E-02  0.1363572E+00
          2   -1    0    0  502    0  0.00000000000E+00  0.00000000000E+00  0.35829703769E+03  0.35829703769E+03  0.00000000000E+00 0. -1.
          1   -1    0    0  501    0 -0.00000000000E+00 -0.00000000000E+00 -0.67643738441E+03  0.67643738441E+03  0.00000000000E+00 0. -1.
         25    2    1    2    0    0  0.51627372609E+02 -0.92749046097E+02 -0.10416687736E+03  0.19427537264E+03  0.12499764366E+03 0.  0.
          2    1    1    2  501    0  0.35573156459E+02  0.24752815999E+02 -0.51652172331E+03  0.51833661072E+03  0.00000000000E+00 0. -1.
          1    1    1    2  502    0 -0.87200529068E+02  0.67996230098E+02  0.30254825395E+03  0.32212243875E+03  0.00000000000E+00 0. -1.
         22    1    3    3    0    0  0.55443560190E+02 -0.95211262989E+00 -0.83284295867E+02  0.10005582853E+03  0.00000000000E+00 0.  1.
         22    1    3    3    0    0 -0.38161875816E+01 -0.91796933467E+02 -0.20882581488E+02  0.94219544104E+02  0.00000000000E+00 0.  1.
</event>
<event>
 7    1  0.6219721E-006  0.4454724E+02  0.7818608E-02  0.1584805E+00
          2   -1    0    0  502    0  0.00000000000E+00  0.00000000000E+00  0.26599685785E+03  0.26599685785E+03  0.00000000000E+00 0. -1.
          1   -1    0    0  501    0 -0.00000000000E+00 -0.00000000000E+00 -0.20515934485E+03  0.20515934485E+03  0.00000000000E+00 0. -1.
         25    2    1    2    0    0 -0.18708414435E+02  0.20166451241E+02 -0.77255651590E+02  0.14950263000E+03  0.12500364055E+03 0.  0.
          2    1    1    2  501    0 -0.21883666756E+02 -0.93628059728E+00 -0.88234138202E+02  0.90912235900E+02  0.00000000000E+00 0. -1.
          1    1    1    2  502    0  0.40592081190E+02 -0.19230170643E+02  0.22632730280E+03  0.23074133680E+03  0.00000000000E+00 0. -1.
         22    1    3    3    0    0  0.10318567133E+02 -0.43532762164E+02  0.68140449328E+00  0.44744145107E+02  0.00000000000E+00 0.  1.
         22    1    3    3    0    0 -0.29026981567E+02  0.63699213404E+02 -0.77937056083E+02  0.10475848490E+03  0.00000000000E+00 0.  1.
</event>
<event>
 7    1  0.6219721E-006  0.4761246E+02  0.7818608E-02  0.1515014E+00
          2   -1    0    0  502    0  0.00000000000E+00  0.00000000000E+00  0.15972620444E+04  0.15972620444E+04  0.00000000000E+00 0. -1.
          1   -1    0    0  501    0 -0.00000000000E+00 -0.00000000000E+00 -0.99646942493E+02  0.99646942493E+02  0.00000000000E+00 0. -1.
         25    2    1    2    0    0 -0.57138770972E+02  0.11572258814E+02  0.72349344418E+03  0.73652485794E+03  0.12500938476E+03 0.  0.
          2    1    1    2  501    0  0.13159276475E+02 -0.29271865466E+02 -0.89696907111E+02  0.95265648639E+02  0.00000000000E+00 0. -1.
          1    1    1    2  502    0  0.43979494498E+02  0.17699606652E+02  0.86381856487E+03  0.86511848034E+03  0.00000000000E+00 0. -1.
         22    1    3    3    0    0 -0.23956126245E+02 -0.37041686363E+02  0.57649732479E+03  0.57818262514E+03  0.00000000000E+00 0. -1.
         22    1    3    3    0    0 -0.33182644727E+02  0.48613945177E+02  0.14699611938E+03  0.15834223281E+03  0.00000000000E+00 0. -1.
</event>
<event>
 7    1  0.6219721E-006  0.1046818E+03  0.7818608E-02  0.1279427E+00
          2   -1    0    0  502    0  0.00000000000E+00  0.00000000000E+00  0.37705397744E+03  0.37705397744E+03  0.00000000000E+00 0. -1.
          1   -1    0    0  501    0 -0.00000000000E+00 -0.00000000000E+00 -0.53318526989E+03  0.53318526989E+03  0.00000000000E+00 0. -1.
         25    2    1    2    0    0 -0.67864781873E+01 -0.10479053043E+02  0.19243772045E+03  0.22981019633E+03  0.12499833297E+03 0.  0.
          2    1    1    2  501    0  0.93195831502E+02  0.53036831080E+02 -0.49426998092E+03  0.50576791367E+03  0.00000000000E+00 0. -1.
          1    1    1    2  502    0 -0.86409353315E+02 -0.42557778037E+02  0.14570096802E+03  0.17466113733E+03  0.00000000000E+00 0. -1.
         22    1    3    3    0    0  0.41618295615E+01 -0.63171198533E+02  0.61579167624E+02  0.88317127640E+02  0.00000000000E+00 0. -1.
         22    1    3    3    0    0 -0.10948307749E+02  0.52692145490E+02  0.13085855283E+03  0.14149306869E+03  0.00000000000E+00 0. -1.
</event>
<event>
 7    1  0.6219721E-006  0.6020877E+02  0.7818608E-02  0.1411669E+00
          2   -1    0    0  502    0  0.00000000000E+00  0.00000000000E+00  0.37807253434E+03  0.37807253434E+03  0.00000000000E+00 0. -1.
          1   -1    0    0  501    0 -0.00000000000E+00 -0.00000000000E+00 -0.28926352649E+03  0.28926352649E+03  0.00000000000E+00 0. -1.
         25    2    1    2    0    0 -0.49169820310E+02 -0.99443595622E+02  0.14324870029E+02  0.16774271403E+03  0.12500286504E+03 0.  0.
          2    1    1    2  501    0  0.30077188699E+02  0.44399123292E+02 -0.20613156273E+03  0.21299328765E+03  0.00000000000E+00 0. -1.
          1    1    1    2  502    0  0.19092631611E+02  0.55044472330E+02  0.28061570055E+03  0.28660005916E+03  0.00000000000E+00 0. -1.
         22    1    3    3    0    0 -0.90307176293E+02 -0.73417252870E+02 -0.19910282388E+01  0.11640207602E+03  0.00000000000E+00 0.  1.
         22    1    3    3    0    0  0.41137355983E+02 -0.26026342752E+02  0.16315898268E+02  0.51340638004E+02  0.00000000000E+00 0.  1.
</event>
<event>
 7    1  0.6219721E-006  0.7289266E+02  0.7818608E-02  0.1377466E+00
          2   -1    0    0  502    0  0.00000000000E+00  0.00000000000E+00  0.24834890496E+03  0.24834890496E+03  0.00000000000E+00 0. -1.
          1   -1    0    0  501    0 -0.00000000000E+00 -0.00000000000E+00 -0.10739091607E+03  0.10739091607E+03  0.00000000000E+00 0. -1.
         25    2    1    2    0    0  0.21762378931E+02 -0.33288551698E+02  0.11970634189E+03  0.17758393674E+03  0.12499886995E+03 0.  0.
          2    1    1    2  501    0 -0.77029566690E+02 -0.14239094182E+02  0.57088760629E+02  0.96930039398E+02  0.00000000000E+00 0. -1.
          1    1    1    2  502    0  0.55267187758E+02  0.47527645879E+02 -0.35837113631E+02  0.81225844895E+02  0.00000000000E+00 0. -1.
         22    1    3    3    0    0  0.31996370865E+02  0.41971344604E+02  0.32682432913E+02  0.62076589287E+02  0.00000000000E+00 0. -1.
         22    1    3    3    0    0 -0.10233991934E+02 -0.75259896302E+02  0.87023908975E+02  0.11550734745E+03  0.00000000000E+00 0. -1.
</event>
<event>
 7    1  0.6219721E-006  0.4371336E+02  0.7818608E-02  0.1507726E+00
          2   -1    0    0  502    0  0.00000000000E+00  0.00000000000E+00  0.15842330930E+03  0.15842330930E+03  0.00000000000E+00 0. -1.
          1   -1    0    0  501    0 -0.00000000000E+00 -0.00000000000E+00 -0.60445748154E+03  0.60445748154E+03  0.00000000000E+00 0. -1.
         25    2    1    2    0    0 -0.71362758047E+01 -0.41794368357E+01 -0.84479345559E+02  0.15109547459E+03  0.12499875396E+03 0.  0.
          2    1    1    2  501    0  0.33874792007E+02  0.29351556914E+02 -0.48291503338E+03  0.48499066475E+03  0.00000000000E+00 0. -1.
          1    1    1    2  502    0 -0.26738516202E+02 -0.25172120079E+02  0.12136020671E+03  0.12679465150E+03  0.00000000000E+00 0. -1.
         22    1    3    3    0    0  0.28404396715E+02 -0.49207260591E+02 -0.10993147222E+02  0.57870662114E+02  0.00000000000E+00 0. -1.
         22    1    3    3    0    0 -0.35540672520E+02  0.45027823755E+02 -0.73486198337E+02  0.93224812477E+02  0.00000000000E+00 0. -1.
</event>
<event>
 7    1  0.6219721E-006  0.1014275E+03  0.7818608E-02  0.1347340E+00
          2   -1    0    0  502    0  0.00000000000E+00  0.00000000000E+00  0.25651747730E+04  0.25651747730E+04  0.00000000000E+00 0. -1.
          1   -1    0    0  501    0 -0.00000000000E+00 -0.00000000000E+00 -0.65664188812E+02  0.65664188812E+02  0.00000000000E+00 0. -1.
         25    2    1    2    0    0 -0.51781101542E+02 -0.26882237022E+02  0.22434566034E+03  0.26336384193E+03  0.12500240310E+03 0.  0.
          2    1    1    2  501    0 -0.51764870278E+02  0.14768137742E+02 -0.28869633286E+02  0.61083184375E+02  0.00000000000E+00 0. -1.
          1    1    1    2  502    0  0.10354597182E+03  0.12114099280E+02  0.23040345572E+04  0.23063919356E+04  0.00000000000E+00 0. -1.
         22    1    3    3    0    0  0.16625069608E+02 -0.79890739286E+01 -0.82329096339E+01  0.20198986181E+02  0.00000000000E+00 0.  1.
         22    1    3    3    0    0 -0.68406171150E+02 -0.18893163093E+02  0.23257856997E+03  0.24316485575E+03  0.00000000000E+00 0.  1.
</event>
<event>
 7    1  0.6219721E-006  0.8872743E+02  0.7818608E-02  0.1335986E+00
          2   -1    0    0  502    0  0.00000000000E+00  0.00000000000E+00  0.20966395581E+04  0.20966395581E+04  0.00000000000E+00 0. -1.
          1   -1    0    0  501    0 -0.00000000000E+00 -0.00000000000E+00 -0.10195667099E+03  0.10195667099E+03  0.00000000000E+00 0. -1.
         25    2    1    2    0    0  0.34152185625E+02  0.17502932611E+01  0.31821175197E+03  0.34358673503E+03  0.12499476024E+03 0.  0.
          2    1    1    2  501    0  0.49157367352E+02 -0.46808354973E+02 -0.74898637314E+02  0.10108053587E+03  0.00000000000E+00 0. -1.
          1    1    1    2  502    0 -0.83309552977E+02  0.45058061712E+02  0.17513697724E+04  0.17539289582E+04  0.00000000000E+00 0. -1.
         22    1    3    3    0    0  0.62939003132E+02  0.37887872795E+02  0.25446974504E+03  0.26486158680E+03  0.00000000000E+00 0.  1.
         22    1    3    3    0    0 -0.28786817508E+02 -0.36137579534E+02  0.63742006935E+02  0.78725148237E+02  0.00000000000E+00 0.  1.
</event>
<event>
 7    1  0.6219721E-006  0.1630140E+03  0.7818608E-02  0.1217522E+00
          2   -1    0    0  502    0  0.00000000000E+00  0.00000000000E+00  0.28028978154E+04  0.28028978154E+04  0.00000000000E+00 0. -1.
          1   -1    0    0  501    0 -0.00000000000E+00 -0.00000000000E+00 -0.22095038199E+04  0.22095038199E+04  0.00000000000E+00 0. -1.
         25    2    1    2    0    0  0.77485879794E+02  0.31632671793E+02  0.78081143664E+02  0.16948988971E+03  0.12500188088E+03 0.  0.
          2    1    1    2  501    0 -0.76803964363E+02 -0.14664811838E+03 -0.21593954668E+04  0.21657315858E+04  0.00000000000E+00 0. -1.
          1    1    1    2  502    0 -0.68191543081E+00  0.11501544658E+03  0.26747083187E+04  0.26771801598E+04  0.00000000000E+00 0. -1.
         22    1    3    3    0    0  0.70585606755E+02  0.74912488179E+02  0.36874986929E+02  0.10933422807E+03  0.00000000000E+00 0. -1.
         22    1    3    3    0    0  0.69002730390E+01 -0.43279816385E+02  0.41206156735E+02  0.60155661639E+02  0.00000000000E+00 0. -1.
</event>
<event>
 7    1  0.6219721E-006  0.9631949E+02  0.7818608E-02  0.1327685E+00
          2   -1    0    0  502    0  0.00000000000E+00  0.00000000000E+00  0.12320154459E+04  0.12320154459E+04  0.00000000000E+00 0. -1.
          1   -1    0    0  501    0 -0.00000000000E+00 -0.00000000000E+00 -0.11913291764E+03  0.11913291764E+03  0.00000000000E+00 0. -1.
         25    2    1    2    0    0 -0.12197357550E+03  0.12090038212E+00  0.71034399719E+03  0.73150206301E+03  0.12501642333E+03 0.  0.
          2    1    1    2  501    0  0.80275572508E+02 -0.52884638807E+02 -0.84498499345E+02  0.12798808130E+03  0.00000000000E+00 0. -1.
          1    1    1    2  502    0  0.41698002989E+02  0.52763738425E+02  0.48703703043E+03  0.49165821925E+03  0.00000000000E+00 0. -1.
         22    1    3    3    0    0 -0.90316908480E+02 -0.23419080899E+02  0.66451110974E+03  0.67102951670E+03  0.00000000000E+00 0.  1.
         22    1    3    3    0    0 -0.31656667017E+02  0.23539981281E+02  0.45832887448E+02  0.60472546309E+02  0.00000000000E+00 0.  1.
</event>
<event>
 7    1  0.6219721E-006  0.6897238E+02  0.7818608E-02  0.1398657E+00
          2   -1    0    0  502    0  0.00000000000E+00  0.00000000000E+00  0.38365557768E+03  0.38365557768E+03  0.00000000000E+00 0. -1.
          1   -1    0    0  501    0 -0.00000000000E+00 -0.00000000000E+00 -0.72502468802E+02  0.72502468802E+02  0.00000000000E+00 0. -1.
         25    2    1    2    0    0 -0.31066347217E+02 -0.29284033459E+01  0.14946473855E+03  0.19732969045E+03  0.12500242073E+03 0.  0.
          2    1    1    2  501    0 -0.51481473909E+02 -0.62037641751E+01 -0.22695670058E+02  0.56603200309E+02  0.00000000000E+00 0. -1.
          1    1    1    2  502    0  0.82547821126E+02  0.91321675210E+01  0.18438404038E+03  0.20222515571E+03  0.00000000000E+00 0. -1.
         22    1    3    3    0    0  0.38940276418E+02 -0.34323941245E+02  0.54892517088E+02  0.75549099944E+02  0.00000000000E+00 0.  1.
         22    1    3    3    0    0 -0.70006623635E+02  0.31395537899E+02  0.94572221463E+02  0.12178059051E+03  0.00000000000E+00 0.  1.
</event>
<event>
 7    1  0.6219721E-006  0.1625228E+03  0.7818608E-02  0.1308256E+00
          2   -1    0    0  502    0  0.00000000000E+00  0.00000000000E+00  0.41524806357E+03  0.41524806357E+03  0.00000000000E+00 0. -1.
          1   -1    0    0  501    0 -0.00000000000E+00 -0.00000000000E+00 -0.96166677311E+03  0.96166677311E+03  0.00000000000E+00 0. -1.
         25    2    1    2    0    0 -0.81733483450E+02  0.11924441519E+03 -0.20919151038E+03  0.28334834540E+03  0.12500241581E+03 0.  0.
          2    1    1    2  501    0 -0.45045189309E+02 -0.14874811166E+02 -0.69672565870E+03  0.69833872338E+03  0.00000000000E+00 0. -1.
          1    1    1    2  502    0  0.12677867276E+03 -0.10436960402E+03  0.35949845953E+03  0.39522776790E+03  0.00000000000E+00 0. -1.
         22    1    3    3    0    0 -0.41576719750E+02  0.43691777798E+01 -0.13383831199E+03  0.14021557365E+03  0.00000000000E+00 0. -1.
         22    1    3    3    0    0 -0.40156763701E+02  0.11487523741E+03 -0.75353198390E+02  0.14313277175E+03  0.00000000000E+00 0. -1.
</event>
<event>
 7    1  0.6219721E-006  0.1458490E+03  0.7818608E-02  0.1329252E+00
          2   -1    0    0  502    0  0.00000000000E+00  0.00000000000E+00  0.47266436264E+03  0.47266436264E+03  0.00000000000E+00 0. -1.
          1   -1    0    0  501    0 -0.00000000000E+00 -0.00000000000E+00 -0.75386176719E+03  0.75386176719E+03  0.00000000000E+00 0. -1.
         25    2    1    2    0    0 -0.70066083537E+01  0.12096194650E+03 -0.32660818854E+03  0.37010625704E+03  0.12499939046E+03 0.  0.
          2    1    1    2  501    0  0.77411480062E+01 -0.16475916732E+03 -0.38758106867E+03  0.42121798796E+03  0.00000000000E+00 0. -1.
          1    1    1    2  502    0 -0.73453965248E+00  0.43797220817E+02  0.43299185266E+03  0.43520188484E+03  0.00000000000E+00 0. -1.
         22    1    3    3    0    0  0.82954234419E+01  0.13243511589E+03 -0.32484226667E+03  0.35089937616E+03  0.00000000000E+00 0. -1.
         22    1    3    3    0    0 -0.15302031796E+02 -0.11473169394E+02 -0.17659218681E+01  0.19206880878E+02  0.00000000000E+00 0. -1.
</event>
<event>
 7    1  0.6219721E-006  0.7795349E+02  0.7818608E-02  0.1340001E+00
          2   -1    0    0  502    0  0.00000000000E+00  0.00000000000E+00  0.46839295081E+03  0.46839295081E+03  0.00000000000E+00 0. -1.
          1   -1    0    0  501    0 -0.00000000000E+00 -0.00000000000E+00 -0.46840197839E+03  0.46840197839E+03  0.00000000000E+00 0. -1.
         25    2    1    2    0    0 -0.62405735362E+01 -0.36562373597E+02  0.57496413347E+02  0.14247969041E+03  0.12497548844E+03 0.  0.
          2    1    1    2  501    0 -0.74056748222E+02  0.24338133676E+02 -0.41778411724E+03  0.42499448858E+03  0.00000000000E+00 0. -1.
          1    1    1    2  502    0  0.80297321758E+02  0.12224239922E+02  0.36027867632E+03  0.36932075020E+03  0.00000000000E+00 0. -1.
         22    1    3    3    0    0 -0.23631772845E+02 -0.79963349733E+02  0.32791934290E+02  0.89598599001E+02  0.00000000000E+00 0. -1.
         22    1    3    3    0    0  0.17391199309E+02  0.43400976136E+02  0.24704479057E+02  0.52881091407E+02  0.00000000000E+00 0. -1.
</event>
<event>
 7    1  0.6219721E-006  0.1017295E+03  0.7818608E-02  0.1444591E+00
          2   -1    0    0  502    0  0.00000000000E+00  0.00000000000E+00  0.66632537125E+03  0.66632537125E+03  0.00000000000E+00 0. -1.
          1   -1    0    0  501    0 -0.00000000000E+00 -0.00000000000E+00 -0.60825845458E+03  0.60825845458E+03  0.00000000000E+00 0. -1.
         25    2    1    2    0    0 -0.89153953088E+02  0.32282420621E+02 -0.46971709108E+03  0.49522890373E+03  0.12500775738E+03 0.  0.
          2    1    1    2  501    0  0.45141576711E+01  0.24296455150E+02 -0.12055970325E+03  0.12306639428E+03  0.00000000000E+00 0. -1.
          1    1    1    2  502    0  0.84639795417E+02 -0.56578875771E+02  0.64834371101E+03  0.65628852782E+03  0.00000000000E+00 0. -1.
         22    1    3    3    0    0 -0.11835324945E+03  0.40240601727E+02 -0.34684410735E+03  0.36868364825E+03  0.00000000000E+00 0.  1.
         22    1    3    3    0    0  0.29199296362E+02 -0.79581811057E+01 -0.12287298373E+03  0.12654525549E+03  0.00000000000E+00 0.  1.
</event>
<event>
 7    1  0.6219721E-006  0.9306150E+02  0.7818608E-02  0.1315967E+00
          2   -1    0    0  502    0  0.00000000000E+00  0.00000000000E+00  0.19676517577E+04  0.19676517577E+04  0.00000000000E+00 0. -1.
          1   -1    0    0  501    0 -0.00000000000E+00 -0.00000000000E+00 -0.34015562290E+03  0.34015562290E+03  0.00000000000E+00 0. -1.
         25    2    1    2    0    0 -0.21724869581E+02  0.60309913250E+02 -0.64225249685E+01  0.14061869919E+03  0.12499245634E+03 0.  0.
          2    1    1    2  501    0  0.94304576115E+02 -0.33815654364E+02 -0.25640722389E+03  0.27528442749E+03  0.00000000000E+00 0. -1.
          1    1    1    2  502    0 -0.72579706533E+02 -0.26494258886E+02  0.18903258837E+04  0.18919042539E+04  0.00000000000E+00 0. -1.
         22    1    3    3    0    0 -0.29391462056E+02 -0.41120478932E+00 -0.55078641648E+02  0.62431433565E+02  0.00000000000E+00 0.  1.
         22    1    3    3    0    0  0.76665924749E+01  0.60721118039E+02  0.48656116679E+02  0.78187265628E+02  0.00000000000E+00 0.  1.
</event>
<event>
 7    1  0.6219721E-006  0.6395298E+02  0.7818608E-02  0.1430987E+00
          2   -1    0    0  502    0  0.00000000000E+00  0.00000000000E+00  0.24694969636E+04  0.24694969636E+04  0.00000000000E+00 0. -1.
          1   -1    0    0  501    0 -0.00000000000E+00 -0.00000000000E+00 -0.10292481157E+04  0.10292481157E+04  0.00000000000E+00 0. -1.
         25    2    1    2    0    0  0.48478803049E+02  0.38656491468E+02  0.85913014215E+02  0.16386039336E+03  0.12499865528E+03 0.  0.
          2    1    1    2  501    0 -0.36127860011E+02  0.24282328149E+02 -0.98935711004E+03  0.99031426573E+03  0.00000000000E+00 0. -1.
          1    1    1    2  502    0 -0.12350943038E+02 -0.62938819617E+02  0.23436929437E+04  0.23445704202E+04  0.00000000000E+00 0. -1.
         22    1    3    3    0    0  0.36381607611E+02  0.74099037898E+02  0.94460163110E+02  0.12544724471E+03  0.00000000000E+00 0. -1.
         22    1    3    3    0    0  0.12097195439E+02 -0.35442546430E+02 -0.85471488952E+01  0.38413148649E+02  0.00000000000E+00 0. -1.
</event>
<event>
 7    1  0.6219721E-006  0.9731891E+02  0.7818608E-02  0.1343752E+00
          2   -1    0    0  502    0  0.00000000000E+00  0.00000000000E+00  0.15718190383E+03  0.15718190383E+03  0.00000000000E+00 0. -1.
          1   -1    0    0  501    0 -0.00000000000E+00 -0.00000000000E+00 -0.10321890322E+04  0.10321890322E+04  0.00000000000E+00 0. -1.
         25    2    1    2    0    0  0.27284966897E+02  0.14458543885E+03 -0.40860410502E+03  0.45192104055E+03  0.12500357478E+03 0.  0.
          2    1    1    2  501    0 -0.11967626852E+02 -0.88791034345E+02 -0.59222427315E+03  0.59896298849E+03  0.00000000000E+00 0. -1.
          1    1    1    2  502    0 -0.15317340046E+02 -0.55794404500E+02  0.12582124986E+03  0.13848690694E+03  0.00000000000E+00 0. -1.
         22    1    3    3    0    0 -0.36334671691E+01 -0.18336391210E+02 -0.12450971836E+02  0.22460009482E+02  0.00000000000E+00 0. -1.
         22    1    3    3    0    0  0.30918434066E+02  0.16292183005E+03 -0.39615313318E+03  0.42946103107E+03  0.00000000000E+00 0. -1.
</event>
<event>
 7    1  0.6219721E-006  0.7180381E+02  0.7818608E-02  0.1393141E+00
          2   -1    0    0  502    0  0.00000000000E+00  0.00000000000E+00  0.41513557435E+03  0.41513557435E+03  0.00000000000E+00 0. -1.
          1   -1    0    0  501    0 -0.00000000000E+00 -0.00000000000E+00 -0.16049336388E+04  0.16049336388E+04  0.00000000000E+00 0. -1.
         25    2    1    2    0    0 -0.11781530883E+02  0.73361645413E+02  0.10790366549E+03  0.18108755343E+03  0.12501506106E+03 0.  0.
          2    1    1    2  501    0 -0.44926649662E+02 -0.26276561929E+02 -0.15628819609E+04  0.15637483446E+04  0.00000000000E+00 0. -1.
          1    1    1    2  502    0  0.56708180545E+02 -0.47085083484E+02  0.26518023099E+03  0.27523331509E+03  0.00000000000E+00 0. -1.
         22    1    3    3    0    0 -0.96724467018E+01  0.46766979691E+02 -0.19009253286E+02  0.51400956461E+02  0.00000000000E+00 0.  1.
         22    1    3    3    0    0 -0.21090841814E+01  0.26594665722E+02  0.12691291877E+03  0.12968659697E+03  0.00000000000E+00 0.  1.
</event>
<event>
 7    1  0.6219721E-006  0.1234554E+03  0.7818608E-02  0.1314280E+00
          2   -1    0    0  502    0  0.00000000000E+00  0.00000000000E+00  0.60920916174E+03  0.60920916174E+03  0.00000000000E+00 0. -1.
          1   -1    0    0  501    0 -0.00000000000E+00 -0.00000000000E+00 -0.56407299899E+03  0.56407299899E+03  0.00000000000E+00 0. -1.
         25    2    1    2    0    0 -0.32193694627E+02  0.11975289386E+03 -0.30569017047E+03  0.35277305426E+03  0.12500063171E+03 0.  0.
          2    1    1    2  501    0 -0.26582085861E+02 -0.12624961411E+03 -0.21546489453E+03  0.25113879256E+03  0.00000000000E+00 0. -1.
          1    1    1    2  502    0  0.58775780488E+02  0.64967202499E+01  0.56629122774E+03  0.56937031391E+03  0.00000000000E+00 0. -1.
         22    1    3    3    0    0 -0.57435599558E+02  0.96759435357E+01 -0.14595380363E+03  0.15714638009E+03  0.00000000000E+00 0. -1.
         22    1    3    3    0    0  0.25241904931E+02  0.11007695032E+03 -0.15973636684E+03  0.19562667417E+03  0.00000000000E+00 0. -1.
</event>
<event>
 7    1  0.6219721E-006  0.1025831E+03  0.7818608E-02  0.1362856E+00
          2   -1    0    0  502    0  0.00000000000E+00  0.00000000000E+00  0.14505123727E+04  0.14505123727E+04  0.00000000000E+00 0. -1.
          1   -1    0    0  501    0 -0.00000000000E+00 -0.00000000000E+00 -0.61686074883E+03  0.61686074883E+03  0.00000000000E+00 0. -1.
         25    2    1    2    0    0  0.58822567224E+02 -0.11139238823E+02 -0.41609414906E+03  0.43857049999E+03  0.12500226207E+03 0.  0.
          2    1    1    2  501    0  0.43835204629E+02  0.16024568341E+02 -0.18478855348E+03  0.19059150414E+03  0.00000000000E+00 0. -1.
          1    1    1    2  502    0 -0.10265777185E+03 -0.48853295177E+01  0.14345343264E+04  0.14382111174E+04  0.00000000000E+00 0. -1.
         22    1    3    3    0    0 -0.33388448278E+02 -0.63867722717E+01 -0.46397306716E+02  0.57517731257E+02  0.00000000000E+00 0. -1.
         22    1    3    3    0    0  0.92211015502E+02 -0.47524665515E+01 -0.36969684234E+03  0.38105276873E+03  0.00000000000E+00 0. -1.
</event>
<event>
 7    1  0.6219721E-006  0.1465164E+03  0.7818608E-02  0.1230030E+00
          2   -1    0    0  502    0  0.00000000000E+00  0.00000000000E+00  0.87817200274E+03  0.87817200274E+03  0.00000000000E+00 0. -1.
          1   -1    0    0  501    0 -0.00000000000E+00 -0.00000000000E+00 -0.70741558504E+03  0.70741558504E+03  0.00000000000E+00 0. -1.
         25    2    1    2    0    0 -0.18212536956E+02  0.13172621244E+03 -0.49227497015E+02  0.18903034108E+03  0.12500252734E+03 0.  0.
          2    1    1    2  501    0  0.12319448410E+03 -0.91811251203E+02 -0.57423604487E+03  0.59443521261E+03  0.00000000000E+00 0. -1.
          1    1    1    2  502    0 -0.10498194715E+03 -0.39914961236E+02  0.79421995959E+03  0.80212203408E+03  0.00000000000E+00 0. -1.
         22    1    3    3    0    0 -0.10246610944E+02 -0.14153270967E+02  0.20676652686E+02  0.27070871453E+02  0.00000000000E+00 0. -1.
         22    1    3    3    0    0 -0.79659260124E+01  0.14587948341E+03 -0.69904149701E+02  0.16195946963E+03  0.00000000000E+00 0. -1.
</event>
<event>
 7    1  0.6219721E-006  0.1377033E+03  0.7818608E-02  0.1253825E+00
          2   -1    0    0  502    0  0.00000000000E+00  0.00000000000E+00  0.42663400937E+03  0.42663400937E+03  0.00000000000E+00 0. -1.
          1   -1    0    0  501    0 -0.00000000000E+00 -0.00000000000E+00 -0.14548967819E+03  0.14548967819E+03  0.00000000000E+00 0. -1.
         25    2    1    2    0    0  0.11571710967E+03 -0.29378236353E+02  0.26927559989E+03  0.31998045063E+03  0.12499843938E+03 0.  0.
          2    1    1    2  501    0 -0.13197476528E+03 -0.63124613507E+02 -0.29957494020E+02  0.14933019437E+03  0.00000000000E+00 0. -1.
          1    1    1    2  502    0  0.16257655609E+02  0.92502849860E+02  0.41826225318E+02  0.10281304257E+03  0.00000000000E+00 0. -1.
         22    1    3    3    0    0  0.10781174000E+03  0.30516539505E+02  0.18503218748E+03  0.21631352447E+03  0.00000000000E+00 0. -1.
         22    1    3    3    0    0  0.79053696710E+01 -0.59894775858E+02  0.84243412408E+02  0.10366692616E+03  0.00000000000E+00 0. -1.
</event>
<event>
 7    1  0.6219721E-006  0.2073243E+03  0.7818608E-02  0.1300451E+00
          2   -1    0    0  502    0  0.00000000000E+00  0.00000000000E+00  0.91771287960E+03  0.91771287960E+03  0.00000000000E+00 0. -1.
          1   -1    0    0  501    0 -0.00000000000E+00 -0.00000000000E+00 -0.37304774623E+03  0.37304774623E+03  0.00000000000E+00 0. -1.
         25    2    1    2    0    0 -0.17384787664E+03 -0.10460503416E+02  0.77804035577E+02  0.22805945621E+03  0.12500056510E+03 0.  0.
          2    1    1    2  501    0 -0.39911905235E+02  0.15304722664E+01 -0.28152000331E+03  0.28433926002E+03  0.00000000000E+00 0. -1.
          1    1    1    2  502    0  0.21375978187E+03  0.89300311500E+01  0.74838110111E+03  0.77836190959E+03  0.00000000000E+00 0. -1.
         22    1    3    3    0    0 -0.10548948464E+03  0.55603814104E+02  0.46087941765E+02  0.12784331773E+03  0.00000000000E+00 0. -1.
         22    1    3    3    0    0 -0.68358391995E+02 -0.66064317521E+02  0.31716093813E+02  0.10021613848E+03  0.00000000000E+00 0. -1.
</event>
<event>
 7    1  0.6219721E-006  0.1190430E+03  0.7818608E-02  0.1421449E+00
          2   -1    0    0  502    0  0.00000000000E+00  0.00000000000E+00  0.50437456728E+03  0.50437456728E+03  0.00000000000E+00 0. -1.
          1   -1    0    0  501    0 -0.00000000000E+00 -0.00000000000E+00 -0.60054871713E+03  0.60054871713E+03  0.00000000000E+00 0. -1.
         25    2    1    2    0    0  0.86096990003E+02 -0.50833828074E+02 -0.83034677301E+02  0.18032279878E+03  0.12499913744E+03 0.  0.
          2    1    1    2  501    0  0.82037492851E+01 -0.23773164122E+02 -0.46058928947E+03  0.46127536072E+03  0.00000000000E+00 0. -1.
          1    1    1    2  502    0 -0.94300739288E+02  0.74606992196E+02  0.44744981692E+03  0.46332512491E+03  0.00000000000E+00 0. -1.
         22    1    3    3    0    0  0.45807155717E+02 -0.73318296549E+02 -0.12962681667E+01  0.86461253951E+02  0.00000000000E+00 0.  1.
         22    1    3    3    0    0  0.40289834286E+02  0.22484468474E+02 -0.81738409134E+02  0.93861544826E+02  0.00000000000E+00 0.  1.
</event>
<event>
 7    1  0.1114647E-005  0.7970794E+02  0.7818608E-02  0.1456982E+00
          2   -1    0    0  502    0  0.00000000000E+00  0.00000000000E+00  0.19149803095E+04  0.19149803095E+04  0.00000000000E+00 0. -1.
          1   -1    0    0  501    0 -0.00000000000E+00 -0.00000000000E+00 -0.27919739271E+04  0.27919739271E+04  0.00000000000E+00 0. -1.
         25    2    1    2    0    0 -0.51839706997E+02 -0.30792279380E+02 -0.11963297317E+04  0.12043525126E+04  0.12499851221E+03 0.  0.
          2    1    1    2  501    0 -0.11548608783E+01 -0.28767675220E+02 -0.15906709909E+04  0.15909315240E+04  0.00000000000E+00 0. -1.
          1    1    1    2  502    0  0.52994567876E+02  0.59559954600E+02  0.19100071050E+04  0.19116702000E+04  0.00000000000E+00 0. -1.
         22    1    3    3    0    0 -0.37447414909E+02 -0.73886072754E+02 -0.52574843966E+03  0.53223386066E+03  0.00000000000E+00 0.  1.
         22    1    3    3    0    0 -0.14392292088E+02  0.43093793374E+02 -0.67058129200E+03  0.67211865194E+03  0.00000000000E+00 0.  1.
</event>
<event>
 7    1  0.6219721E-006  0.1006390E+03  0.7818608E-02  0.1438538E+00
          2   -1    0    0  502    0  0.00000000000E+00  0.00000000000E+00  0.26564160955E+03  0.26564160955E+03  0.00000000000E+00 0. -1.
          1   -1    0    0  501    0 -0.00000000000E+00 -0.00000000000E+00 -0.70948202020E+03  0.70948202020E+03  0.00000000000E+00 0. -1.
         25    2    1    2    0    0 -0.37830401092E+02 -0.10348568144E+03  0.26086734366E+01  0.16665219737E+03  0.12500289677E+03 0.  0.
          2    1    1    2  501    0  0.55073601570E+02  0.83848477499E+02 -0.62247975965E+03  0.63051147487E+03  0.00000000000E+00 0. -1.
          1    1    1    2  502    0 -0.17243200478E+02  0.19637203938E+02  0.17603067556E+03  0.17795995752E+03  0.00000000000E+00 0. -1.
         22    1    3    3    0    0 -0.75825946066E+02 -0.26123573271E+02 -0.32366714023E+01  0.80265130779E+02  0.00000000000E+00 0. -1.
         22    1    3    3    0    0  0.37995544974E+02 -0.77362108165E+02  0.58453448389E+01  0.86387066589E+02  0.00000000000E+00 0. -1.
</event>
<event>
 7    1  0.6219721E-006  0.2235032E+02  0.7818608E-02  0.1706685E+00
          2   -1    0    0  502    0  0.00000000000E+00  0.00000000000E+00  0.35753678946E+02  0.35753678946E+02  0.00000000000E+00 0. -1.
          1   -1    0    0  501    0 -0.00000000000E+00 -0.00000000000E+00 -0.99108296295E+03  0.99108296295E+03  0.00000000000E+00 0. -1.
         25    2    1    2    0    0 -0.33266777762E+01 -0.42325932190E+02 -0.23879821328E+03  0.27285819016E+03  0.12499781579E+03 0.  0.
          2    1    1    2  501    0 -0.40813636093E+01  0.21786609987E+02 -0.72866291533E+03  0.72899997125E+03  0.00000000000E+00 0. -1.
          1    1    1    2  502    0  0.74080413855E+01  0.20539322203E+02  0.12131844607E+02  0.24978480484E+02  0.00000000000E+00 0. -1.
         22    1    3    3    0    0 -0.28909674078E+02 -0.79688114603E+02 -0.13223656265E+03  0.15707473815E+03  0.00000000000E+00 0.  1.
         22    1    3    3    0    0  0.25582996301E+02  0.37362182413E+02 -0.10656165063E+03  0.11578345201E+03  0.00000000000E+00 0.  1.
</event>
<event>
 7    1  0.6219721E-006  0.1283019E+03  0.7818608E-02  0.1405463E+00
          2   -1    0    0  502    0  0.00000000000E+00  0.00000000000E+00  0.50876607035E+03  0.50876607035E+03  0.00000000000E+00 0. -1.
          1   -1    0    0  501    0 -0.00000000000E+00 -0.00000000000E+00 -0.21302516883E+03  0.21302516883E+03  0.00000000000E+00 0. -1.
         25    2    1    2    0    0 -0.19826932266E+02  0.10642766539E+03  0.12657667216E+03  0.20825031025E+03  0.12500633016E+03 0.  0.
          2    1    1    2  501    0  0.37717034508E+02 -0.12586556709E+03 -0.14648938512E+03  0.19678377887E+03  0.00000000000E+00 0. -1.
          1    1    1    2  502    0 -0.17890102242E+02  0.19437901702E+02  0.31565361449E+03  0.31675715007E+03  0.00000000000E+00 0. -1.
         22    1    3    3    0    0 -0.21702255995E+02 -0.24199599344E+02  0.39926838506E+02  0.51485541240E+02  0.00000000000E+00 0.  1.
         22    1    3    3    0    0  0.18753237285E+01  0.13062726473E+03  0.86649833650E+02  0.15676476901E+03  0.00000000000E+00 0.  1.
</event>
<event>
 7    1  0.6219721E-006  0.9579770E+02  0.7818608E-02  0.1418876E+00
          2   -1    0    0  502    0  0.00000000000E+00  0.00000000000E+00  0.20178841029E+03  0.20178841029E+03  0.00000000000E+00 0. -1.
          1   -1    0    0  501    0 -0.00000000000E+00 -0.00000000000E+00 -0.14445832110E+04  0.14445832110E+04  0.00000000000E+00 0. -1.
         25    2    1    2    0    0  0.78531565518E+02 -0.98214508113E+02 -0.75142482979E+02  0.19257577877E+03  0.12500296571E+03 0.  0.
          2    1    1    2  501    0 -0.53606770546E+02  0.78344889772E+02 -0.13072058641E+04  0.13106482284E+04  0.00000000000E+00 0. -1.
          1    1    1    2  502    0 -0.24924794972E+02  0.19869618341E+02  0.13955354631E+03  0.14314761411E+03  0.00000000000E+00 0. -1.
         22    1    3    3    0    0 -0.79894774854E+01  0.18577844082E+02 -0.37223085435E+02  0.42361847582E+02  0.00000000000E+00 0. -1.
         22    1    3    3    0    0  0.86521043004E+02 -0.11679235220E+03 -0.37919397544E+02  0.15021393119E+03  0.00000000000E+00 0. -1.
</event>
<event>
 7    1  0.6219721E-006  0.4088947E+02  0.7818608E-02  0.1575328E+00
          2   -1    0    0  502    0  0.00000000000E+00  0.00000000000E+00  0.20697096214E+03  0.20697096214E+03  0.00000000000E+00 0. -1.
          1   -1    0    0  501    0 -0.00000000000E+00 -0.00000000000E+00 -0.78315370855E+03  0.78315370855E+03  0.00000000000E+00 0. -1.
         25    2    1    2    0    0 -0.74895766628E+01 -0.14181788642E+02  0.12158209606E+01  0.12603017850E+03  0.12499964314E+03 0.  0.
          2    1    1    2  501    0  0.23732145796E+02  0.33580525788E+02 -0.71903812882E+03  0.72021295265E+03  0.00000000000E+00 0. -1.
          1    1    1    2  502    0 -0.16242569133E+02 -0.19398737145E+02  0.14163956145E+03  0.14388153955E+03  0.00000000000E+00 0. -1.
         22    1    3    3    0    0  0.32693125751E+02 -0.57973180408E+02 -0.83278092660E+00  0.66561427584E+02  0.00000000000E+00 0.  1.
         22    1    3    3    0    0 -0.40182702413E+02  0.43791391765E+02  0.20486018872E+01  0.59468750917E+02  0.00000000000E+00 0.  1.
</event>
<event>
 7    1  0.6219721E-006  0.4665756E+02  0.7818608E-02  0.1508299E+00
          2   -1    0    0  502    0  0.00000000000E+00  0.00000000000E+00  0.22423659821E+03  0.22423659821E+03  0.00000000000E+00 0. -1.
          1   -1    0    0  501    0 -0.00000000000E+00 -0.00000000000E+00 -0.66741959533E+03  0.66741959533E+03  0.00000000000E+00 0. -1.
         25    2    1    2    0    0 -0.54953757122E+02 -0.16228614217E+01 -0.26823320277E+03  0.30099244953E+03  0.12499941803E+03 0.  0.
          2    1    1    2  501    0  0.17483616269E+02  0.29477106061E+02 -0.37940275901E+03  0.38094754254E+03  0.00000000000E+00 0. -1.
          1    1    1    2  502    0  0.37470140853E+02 -0.27854244639E+02  0.20445296466E+03  0.20971620146E+03  0.00000000000E+00 0. -1.
         22    1    3    3    0    0 -0.86277472660E+02  0.15234092322E+02 -0.24027173550E+03  0.25574672381E+03  0.00000000000E+00 0. -1.
         22    1    3    3    0    0  0.31323715539E+02 -0.16856953743E+02 -0.27961467268E+02  0.45245725726E+02  0.00000000000E+00 0. -1.
</event>
<event>
 7    1  0.6219721E-006  0.9837062E+02  0.7818608E-02  0.1325872E+00
          2   -1    0    0  502    0  0.00000000000E+00  0.00000000000E+00  0.57542942289E+03  0.57542942289E+03  0.00000000000E+00 0. -1.
          1   -1    0    0  501    0 -0.00000000000E+00 -0.00000000000E+00 -0.19187574686E+04  0.19187574686E+04  0.00000000000E+00 0. -1.
         25    2    1    2    0    0 -0.73541138046E+02 -0.27383261183E+02 -0.56985234113E+02  0.15820953851E+03  0.12499919676E+03 0.  0.
          2    1    1    2  501    0  0.45797076796E+02  0.88273122814E+02 -0.18076550259E+04  0.18103884139E+04  0.00000000000E+00 0. -1.
          1    1    1    2  502    0  0.27744061251E+02 -0.60889861631E+02  0.52131221427E+03  0.52558893913E+03  0.00000000000E+00 0. -1.
         22    1    3    3    0    0  0.16832560526E+02 -0.40083387194E+02  0.10478446225E+02  0.44719244829E+02  0.00000000000E+00 0. -1.
         22    1    3    3    0    0 -0.90373698572E+02  0.12700126011E+02 -0.67463680338E+02  0.11349029368E+03  0.00000000000E+00 0. -1.
</event>
<event>
 7    1  0.6219721E-006  0.1217767E+03  0.7818608E-02  0.1249754E+00
          2   -1    0    0  502    0  0.00000000000E+00  0.00000000000E+00  0.22187590121E+04  0.22187590121E+04  0.00000000000E+00 0. -1.
          1   -1    0    0  501    0 -0.00000000000E+00 -0.00000000000E+00 -0.19570094391E+04  0.19570094391E+04  0.00000000000E+00 0. -1.
         25    2    1    2    0    0 -0.16840547306E+02  0.28921173965E+02  0.88146951758E+03  0.89091811464E+03  0.12500615274E+03 0.  0.
          2    1    1    2  501    0  0.12187106237E+03  0.57281497824E+01 -0.19480786370E+04  0.19518954233E+04  0.00000000000E+00 0. -1.
          1    1    1    2  502    0 -0.10503051507E+03 -0.34649323748E+02  0.13283586925E+04  0.13329549132E+04  0.00000000000E+00 0. -1.
         22    1    3    3    0    0 -0.95333187161E+01  0.24221730189E+01  0.85348404496E+00  0.98731718760E+01  0.00000000000E+00 0.  1.
         22    1    3    3    0    0 -0.73072285901E+01  0.26499000946E+02  0.88061603354E+03  0.88104494276E+03  0.00000000000E+00 0.  1.
</event>
<event>
 7    1  0.6219721E-006  0.1220923E+03  0.7818608E-02  0.1340657E+00
          2   -1    0    0  502    0  0.00000000000E+00  0.00000000000E+00  0.89618078518E+03  0.89618078518E+03  0.00000000000E+00 0. -1.
          1   -1    0    0  501    0 -0.00000000000E+00 -0.00000000000E+00 -0.30504565595E+03  0.30504565595E+03  0.00000000000E+00 0. -1.
         25    2    1    2    0    0  0.73811517841E+02 -0.10416927280E+03  0.23249810076E+03  0.29322244959E+03  0.12499864209E+03 0.  0.
          2    1    1    2  501    0 -0.28765399389E+02  0.11881716449E+03 -0.26013132013E+03  0.28742524332E+03  0.00000000000E+00 0. -1.
          1    1    1    2  502    0 -0.45046118452E+02 -0.14647891690E+02  0.61876834860E+03  0.62057874822E+03  0.00000000000E+00 0. -1.
         22    1    3    3    0    0  0.72696340188E+02 -0.55707102218E+02  0.49896754449E+02  0.10429633368E+03  0.00000000000E+00 0. -1.
         22    1    3    3    0    0  0.11151776536E+01 -0.48462170586E+02  0.18260134631E+03  0.18892611591E+03  0.00000000000E+00 0. -1.
</event>
<event>
 7    1  0.6219721E-006  0.9300419E+02  0.7818608E-02  0.1341948E+00
          2   -1    0    0  502    0  0.00000000000E+00  0.00000000000E+00  0.12028479223E+03  0.12028479223E+03  0.00000000000E+00 0. -1.
          1   -1    0    0  501    0 -0.00000000000E+00 -0.00000000000E+00 -0.35932064724E+03  0.35932064724E+03  0.00000000000E+00 0. -1.
         25    2    1    2    0    0 -0.13626774358E+02 -0.44314116566E+02 -0.91227431239E+02  0.16154554019E+03  0.12500034976E+03 0.  0.
          2    1    1    2  501    0  0.35207600898E+01 -0.61391845142E+02 -0.19307143453E+03  0.20262757274E+03  0.00000000000E+00 0. -1.
          1    1    1    2  502    0  0.10106014268E+02  0.10570596171E+03  0.45263010767E+02  0.11543232653E+03  0.00000000000E+00 0. -1.
         22    1    3    3    0    0 -0.12089903552E+02  0.38753346028E+02 -0.35397410030E+01  0.40749446164E+02  0.00000000000E+00 0.  1.
         22    1    3    3    0    0 -0.15368708059E+01 -0.83067462594E+02 -0.87687690236E+02  0.12079609403E+03  0.00000000000E+00 0.  1.
</event>
<event>
 7    1  0.6219721E-006  0.1128831E+03  0.7818608E-02  0.1443580E+00
          2   -1    0    0  502    0  0.00000000000E+00  0.00000000000E+00  0.15918966783E+04  0.15918966783E+04  0.00000000000E+00 0. -1.
          1   -1    0    0  501    0 -0.00000000000E+00 -0.00000000000E+00 -0.91202227237E+02  0.91202227237E+02  0.00000000000E+00 0. -1.
         25    2    1    2    0    0  0.10093764821E+03  0.14911797693E+02  0.40532466159E+03  0.43626372665E+03  0.12500874914E+03 0.  0.
          2    1    1    2  501    0  0.84889648831E+01  0.20770652170E+02 -0.71173930764E+02  0.74627146111E+02  0.00000000000E+00 0. -1.
          1    1    1    2  502    0 -0.10942661309E+03 -0.35682449862E+02  0.11665437202E+04  0.11722080327E+04  0.00000000000E+00 0. -1.
         22    1    3    3    0    0  0.21779772413E+02  0.53220256535E+02  0.75433101197E+02  0.94852026590E+02  0.00000000000E+00 0. -1.
         22    1    3    3    0    0  0.79157875796E+02 -0.38308458842E+02  0.32989156040E+03  0.34141170006E+03  0.00000000000E+00 0. -1.
</event>
<event>
 7    1  0.6219721E-006  0.1203140E+03  0.7818608E-02  0.1321772E+00
          2   -1    0    0  502    0  0.00000000000E+00  0.00000000000E+00  0.30541463605E+03  0.30541463605E+03  0.00000000000E+00 0. -1.
          1   -1    0    0  501    0 -0.00000000000E+00 -0.00000000000E+00 -0.40720588829E+04  0.40720588829E+04  0.00000000000E+00 0. -1.
         25    2    1    2    0    0 -0.10985788012E+03  0.13568700482E+03 -0.30201982256E+04  0.30278213685E+04  0.12500080132E+03 0.  0.
          2    1    1    2  501    0  0.24538807585E+02 -0.51156661171E+02 -0.10352847230E+04  0.10368382780E+04  0.00000000000E+00 0. -1.
          1    1    1    2  502    0  0.85319072535E+02 -0.84530343644E+02  0.28883870179E+03  0.31281387244E+03  0.00000000000E+00 0. -1.
         22    1    3    3    0    0 -0.74681232087E+02  0.27501490712E+02 -0.64356712470E+03  0.64846916843E+03  0.00000000000E+00 0.  1.
         22    1    3    3    0    0 -0.35176648033E+02  0.10818551410E+03 -0.23766311009E+04  0.23793522000E+04  0.00000000000E+00 0.  1.
</event>
<event>
 7    1  0.6219721E-006  0.9216213E+02  0.7818608E-02  0.1435400E+00
          2   -1    0    0  502    0  0.00000000000E+00  0.00000000000E+00  0.86275409710E+03  0.86275409710E+03  0.00000000000E+00 0. -1.
          1   -1    0    0  501    0 -0.00000000000E+00 -0.00000000000E+00 -0.11246255862E+04  0.11246255862E+04  0.00000000000E+00 0. -1.
         25    2    1    2    0    0  0.39451961220E+01 -0.75414810622E+02 -0.71115788568E+02  0.16244123814E+03  0.12500696873E+03 0.  0.
          2    1    1    2  501    0  0.26643254973E+02 -0.11990506886E+02 -0.10050103505E+04  0.10054349506E+04  0.00000000000E+00 0. -1.
          1    1    1    2  502    0 -0.30588451095E+02  0.87405317508E+02  0.81425464989E+03  0.81950349464E+03  0.00000000000E+00 0. -1.
         22    1    3    3    0    0  0.20269983179E+02 -0.27467315675E+02 -0.98931623031E+02  0.10465558601E+03  0.00000000000E+00 0. -1.
         22    1    3    3    0    0 -0.16324787057E+02 -0.47947494947E+02  0.27815834463E+02  0.57785652121E+02  0.00000000000E+00 0. -1.
</event>
<event>
 7    1  0.6219721E-006  0.4102571E+02  0.7818608E-02  0.1503541E+00
          2   -1    0    0  502    0  0.00000000000E+00  0.00000000000E+00  0.32999273791E+03  0.32999273791E+03  0.00000000000E+00 0. -1.
          1   -1    0    0  501    0 -0.00000000000E+00 -0.00000000000E+00 -0.10063254936E+04  0.10063254936E+04  0.00000000000E+00 0. -1.
         25    2    1    2    0    0  0.14192932600E+02 -0.20948725840E+02 -0.16188536752E+03  0.20608619383E+03  0.12499743445E+03 0.  0.
          2    1    1    2  501    0 -0.38243125878E+02 -0.12587213595E+02 -0.82046102118E+03  0.82144827098E+03  0.00000000000E+00 0. -1.
          1    1    1    2  502    0  0.24050193277E+02  0.33535939436E+02  0.30601363298E+03  0.30878376674E+03  0.00000000000E+00 0. -1.
         22    1    3    3    0    0  0.39097676960E+02  0.37012563021E+02 -0.11660101821E+03  0.12843035315E+03  0.00000000000E+00 0. -1.
         22    1    3    3    0    0 -0.24904744359E+02 -0.57961288861E+02 -0.45284349314E+02  0.77655840674E+02  0.00000000000E+00 0. -1.
</event>
<event>
 7    1  0.6219721E-006  0.1701082E+03  0.7818608E-02  0.1304955E+00
          2   -1    0    0  502    0  0.00000000000E+00  0.00000000000E+00  0.29341921514E+04  0.29341921514E+04  0.00000000000E+00 0. -1.
          1   -1    0    0  501    0 -0.00000000000E+00 -0.00000000000E+00 -0.14759755804E+04  0.14759755804E+04  0.00000000000E+00 0. -1.
         25    2    1    2    0    0 -0.14572226369E+03 -0.31597062133E+02  0.48010767858E+03  0.51803706640E+03  0.12500266661E+03 0.  0.
          2    1    1    2  501    0 -0.28392406884E+02  0.37087656496E+02 -0.14535198131E+04  0.14542700815E+04  0.00000000000E+00 0. -1.
          1    1    1    2  502    0  0.17411467058E+03 -0.54905943639E+01  0.24316287055E+04  0.24378605839E+04  0.00000000000E+00 0. -1.
         22    1    3    3    0    0 -0.13288748021E+02  0.40290050129E+02  0.13383016597E+03  0.14039370458E+03  0.00000000000E+00 0. -1.
         22    1    3    3    0    0 -0.13243351567E+03 -0.71887112262E+02  0.34627751261E+03  0.37764336182E+03  0.00000000000E+00 0. -1.
</event>
<event>
 7    1  0.6219721E-006  0.8510129E+02  0.7818608E-02  0.1379462E+00
          2   -1    0    0  502    0  0.00000000000E+00  0.00000000000E+00  0.40205354197E+04  0.40205354197E+04  0.00000000000E+00 0. -1.
          1   -1    0    0  501    0 -0.00000000000E+00 -0.00000000000E+00 -0.58933156642E+03  0.58933156642E+03  0.00000000000E+00 0. -1.
         25    2    1    2    0    0  0.88428186440E+02  0.83224791767E+02  0.42155004396E+03  0.45615431879E+03  0.12500565134E+03 0.  0.
          2    1    1    2  501    0 -0.48166847475E+02 -0.92424622942E+01 -0.57048190201E+03  0.57258629815E+03  0.00000000000E+00 0. -1.
          1    1    1    2  502    0 -0.40261338966E+02 -0.73982329473E+02  0.35801357113E+04  0.35811263691E+04  0.00000000000E+00 0. -1.
         22    1    3    3    0    0  0.10483598991E+03  0.75909388607E+02  0.23125054165E+03  0.26500874150E+03  0.00000000000E+00 0. -1.
         22    1    3    3    0    0 -0.16407803470E+02  0.73154031604E+01  0.19029950231E+03  0.19114557729E+03  0.00000000000E+00 0. -1.
</event>
<event>
 7    1  0.6219721E-006  0.6278903E+02  0.7818608E-02  0.1525119E+00
          2   -1    0    0  502    0  0.00000000000E+00  0.00000000000E+00  0.17972885414E+04  0.17972885414E+04  0.00000000000E+00 0. -1.
          1   -1    0    0  501    0 -0.00000000000E+00 -0.00000000000E+00 -0.47933710919E+02  0.47933710919E+02  0.00000000000E+00 0. -1.
         25    2    1    2    0    0 -0.44652672247E+02 -0.68147625519E+02  0.50480952981E+03  0.52639793816E+03  0.12499667156E+03 0.  0.
          2    1    1    2  501    0  0.41898239453E+02  0.45568541742E+02 -0.11170442203E+02  0.62902569461E+02  0.00000000000E+00 0. -1.
          1    1    1    2  502    0  0.27544327941E+01  0.22579083777E+02  0.12557157429E+04  0.12559217447E+04  0.00000000000E+00 0. -1.
         22    1    3    3    0    0 -0.26070083038E+02 -0.90977410559E+02  0.21264237035E+03  0.23275161896E+03  0.00000000000E+00 0.  1.
         22    1    3    3    0    0 -0.18582589209E+02  0.22829785040E+02  0.29216715946E+03  0.29364631919E+03  0.00000000000E+00 0.  1.
</event>
<event>
 7    1  0.6219721E-006  0.1318744E+03  0.7818608E-02  0.1370549E+00
          2   -1    0    0  502    0  0.00000000000E+00  0.00000000000E+00  0.11133569709E+04  0.11133569709E+04  0.00000000000E+00 0. -1.
          1   -1    0    0  501    0 -0.00000000000E+00 -0.00000000000E+00 -0.50337007917E+03  0.50337007917E+03  0.00000000000E+00 0. -1.
         25    2    1    2    0    0 -0.27234645204E+02  0.16273878842E+03 -0.10906112227E+03  0.23397753642E+03  0.12500207999E+03 0.  0.
          2    1    1    2  501    0  0.29091369515E+01 -0.33930598648E+02 -0.32687494462E+03  0.32864415105E+03  0.00000000000E+00 0. -1.
          1    1    1    2  502    0  0.24325508253E+02 -0.12880818977E+03  0.10459229586E+04  0.10541053626E+04  0.00000000000E+00 0. -1.
         22    1    3    3    0    0  0.35477250916E+02  0.50326672585E+02 -0.81827034347E+02  0.10240641023E+03  0.00000000000E+00 0.  1.
         22    1    3    3    0    0 -0.62711896120E+02  0.11241211584E+03 -0.27234087921E+02  0.13157112619E+03  0.00000000000E+00 0.  1.
</event>
<event>
 7    1  0.6219721E-006  0.1632724E+03  0.7818608E-02  0.1254591E+00
          2   -1    0    0  502    0  0.00000000000E+00  0.00000000000E+00  0.71304660328E+03  0.71304660328E+03  0.00000000000E+00 0. -1.
          1   -1    0    0  501    0 -0.00000000000E+00 -0.00000000000E+00 -0.50220543732E+03  0.50220543732E+03  0.00000000000E+00 0. -1.
         25    2    1    2    0    0  0.12551340623E+03  0.83247496522E+02  0.14488789551E+02  0.19626245006E+03  0.12500105383E+03 0.  0.
          2    1    1    2  501    0 -0.16704578546E+03 -0.16502002398E+02 -0.39146650974E+03  0.42593736484E+03  0.00000000000E+00 0. -1.
          1    1    1    2  502    0  0.41532379226E+02 -0.66745494123E+02  0.58781888615E+03  0.59305222571E+03  0.00000000000E+00 0. -1.
         22    1    3    3    0    0 -0.80427713303E+01  0.52522278688E+02 -0.16731259853E+02  0.55706471666E+02  0.00000000000E+00 0.  1.
         22    1    3    3    0    0  0.13355617756E+03  0.30725217834E+02  0.31220049404E+02  0.14055597839E+03  0.00000000000E+00 0.  1.
</event>
<event>
 7    1  0.6219721E-006  0.6312299E+02  0.7818608E-02  0.1490983E+00
          2   -1    0    0  502    0  0.00000000000E+00  0.00000000000E+00  0.26055340811E+03  0.26055340811E+03  0.00000000000E+00 0. -1.
          1   -1    0    0  501    0 -0.00000000000E+00 -0.00000000000E+00 -0.27980155790E+03  0.27980155790E+03  0.00000000000E+00 0. -1.
         25    2    1    2    0    0 -0.58976980113E+01  0.36943417208E+02 -0.42571370535E+02  0.13724908806E+03  0.12500156666E+03 0.  0.
          2    1    1    2  501    0  0.72357130154E+01  0.27602176333E+02 -0.18387852438E+03  0.18607941157E+03  0.00000000000E+00 0. -1.
          1    1    1    2  502    0 -0.13380150041E+01 -0.64545593542E+02  0.20720174512E+03  0.21702646638E+03  0.00000000000E+00 0. -1.
         22    1    3    3    0    0 -0.10320071289E+01  0.53635509322E+02  0.30791358294E+02  0.61854188577E+02  0.00000000000E+00 0.  1.
         22    1    3    3    0    0 -0.48656908824E+01 -0.16692092113E+02 -0.73362728830E+02  0.75394899484E+02  0.00000000000E+00 0.  1.
</event>
<event>
 7    1  0.6219721E-006  0.1047105E+03  0.7818608E-02  0.1282739E+00
          2   -1    0    0  502    0  0.00000000000E+00  0.00000000000E+00  0.29286788595E+03  0.29286788595E+03  0.00000000000E+00 0. -1.
          1   -1    0    0  501    0 -0.00000000000E+00 -0.00000000000E+00 -0.56542518971E+03  0.56542518971E+03  0.00000000000E+00 0. -1.
         25    2    1    2    0    0  0.34632646621E+02  0.92214649835E+01 -0.13779151845E+03  0.18945835168E+03  0.12499403521E+03 0.  0.
          2    1    1    2  501    0  0.76644377755E+01  0.92997028737E+02 -0.38451860437E+03  0.39567884461E+03  0.00000000000E+00 0. -1.
          1    1    1    2  502    0 -0.42297084396E+02 -0.10221849372E+03  0.24975281906E+03  0.27315587937E+03  0.00000000000E+00 0. -1.
         22    1    3    3    0    0  0.76422785808E+02 -0.59040100915E+01 -0.51350590096E+02  0.92261490499E+02  0.00000000000E+00 0. -1.
         22    1    3    3    0    0 -0.41790139187E+02  0.15125475075E+02 -0.86440928352E+02  0.97196861183E+02  0.00000000000E+00 0. -1.
</event>
<event>
 7    1  0.6219721E-006  0.1247576E+03  0.7818608E-02  0.1343973E+00
          2   -1    0    0  502    0  0.00000000000E+00  0.00000000000E+00  0.18376963211E+04  0.18376963211E+04  0.00000000000E+00 0. -1.
          1   -1    0    0  501    0 -0.00000000000E+00 -0.00000000000E+00 -0.11305320747E+03  0.11305320747E+03  0.00000000000E+00 0. -1.
         25    2    1    2    0    0  0.10992374069E+03  0.19254553709E+02  0.34079630741E+03  0.37976441149E+03  0.12499967394E+03 0.  0.
          2    1    1    2  501    0 -0.12497163097E+03  0.23205639022E+02 -0.49884537949E+02  0.13654624622E+03  0.00000000000E+00 0. -1.
          1    1    1    2  502    0  0.15047890288E+02 -0.42460192732E+02  0.14337313442E+04  0.14344388709E+04  0.00000000000E+00 0. -1.
         22    1    3    3    0    0  0.13519477194E+03  0.75972708933E+00  0.25867820576E+03  0.29187774441E+03  0.00000000000E+00 0.  1.
         22    1    3    3    0    0 -0.25271031252E+02  0.18494826620E+02  0.82118101648E+02  0.87886667081E+02  0.00000000000E+00 0.  1.
</event>
<event>
 7    1  0.6219721E-006  0.7658081E+02  0.7818608E-02  0.1411209E+00
          2   -1    0    0  502    0  0.00000000000E+00  0.00000000000E+00  0.40604300672E+03  0.40604300672E+03  0.00000000000E+00 0. -1.
          1   -1    0    0  501    0 -0.00000000000E+00 -0.00000000000E+00 -0.10013254754E+04  0.10013254754E+04  0.00000000000E+00 0. -1.
         25    2    1    2    0    0  0.34097972795E+02 -0.10409369371E+03  0.11127171537E+02  0.16657296481E+03  0.12499827934E+03 0.  0.
          2    1    1    2  501    0 -0.30560343557E+02  0.29266702242E+02 -0.91868594327E+03  0.91965990280E+03  0.00000000000E+00 0. -1.
          1    1    1    2  502    0 -0.35376292386E+01  0.74826991472E+02  0.31227630304E+03  0.32113561452E+03  0.00000000000E+00 0. -1.
         22    1    3    3    0    0  0.26940457954E+01 -0.95919344772E+02  0.56071142648E+02  0.11113843450E+03  0.00000000000E+00 0. -1.
         22    1    3    3    0    0  0.31403927000E+02 -0.81743489424E+01 -0.44943971111E+02  0.55434530311E+02  0.00000000000E+00 0. -1.
</event>
<event>
 7    1  0.6219721E-006  0.8050703E+02  0.7818608E-02  0.1471229E+00
          2   -1    0    0  502    0  0.00000000000E+00  0.00000000000E+00  0.68368034498E+03  0.68368034498E+03  0.00000000000E+00 0. -1.
          1   -1    0    0  501    0 -0.00000000000E+00 -0.00000000000E+00 -0.37085980180E+03  0.37085980180E+03  0.00000000000E+00 0. -1.
         25    2    1    2    0    0  0.68252345281E+02  0.75668120098E+02  0.20140913726E+02  0.16252229246E+03  0.12499516833E+03 0.  0.
          2    1    1    2  501    0 -0.60686214657E+02 -0.51088251149E+02 -0.29413271326E+03  0.30464221484E+03  0.00000000000E+00 0. -1.
          1    1    1    2  502    0 -0.75661306243E+01 -0.24579868949E+02  0.58681234271E+03  0.58737563947E+03  0.00000000000E+00 0. -1.
         22    1    3    3    0    0  0.85101786571E+02  0.65070798973E+01 -0.85425706754E+01  0.85776638312E+02  0.00000000000E+00 0. -1.
         22    1    3    3    0    0 -0.16849441290E+02  0.69161040200E+02  0.28683484401E+02  0.76745654149E+02  0.00000000000E+00 0. -1.
</event>
<event>
 7    1  0.6219721E-006  0.1946983E+03  0.7818608E-02  0.1338024E+00
          2   -1    0    0  502    0  0.00000000000E+00  0.00000000000E+00  0.79400442729E+03  0.79400442729E+03  0.00000000000E+00 0. -1.
          1   -1    0    0  501    0 -0.00000000000E+00 -0.00000000000E+00 -0.17586464998E+03  0.17586464998E+03  0.00000000000E+00 0. -1.
         25    2    1    2    0    0 -0.16973423069E+03 -0.16895377647E+02  0.96900116700E+02  0.23261505632E+03  0.12499987583E+03 0.  0.
          2    1    1    2  501    0 -0.30212819611E+02  0.32726445595E+01 -0.89475981164E+02  0.94495904020E+02  0.00000000000E+00 0. -1.
          1    1    1    2  502    0  0.19994705030E+03  0.13622733087E+02  0.61071564178E+03  0.64275811694E+03  0.00000000000E+00 0. -1.
         22    1    3    3    0    0 -0.45699370270E+02 -0.64097396171E+02  0.38217850194E+02  0.87507215202E+02  0.00000000000E+00 0.  1.
         22    1    3    3    0    0 -0.12403486042E+03  0.47202018525E+02  0.58682266507E+02  0.14510784112E+03  0.00000000000E+00 0.  1.
</event>
<event>
 7    1  0.6219721E-006  0.6890074E+02  0.7818608E-02  0.1476109E+00
          2   -1    0    0  502    0  0.00000000000E+00  0.00000000000E+00  0.33252244276E+03  0.33252244276E+03  0.00000000000E+00 0. -1.
          1   -1    0    0  501    0 -0.00000000000E+00 -0.00000000000E+00 -0.11519878640E+03  0.11519878640E+03  0.00000000000E+00 0. -1.
         25    2    1    2    0    0  0.54274881717E+02  0.73767195180E+02  0.13287807473E+02  0.15553032178E+03  0.12500301314E+03 0.  0.
          2    1    1    2  501    0 -0.34768515267E+02 -0.52276742956E+02 -0.20301641680E+02  0.65983817431E+02  0.00000000000E+00 0. -1.
          1    1    1    2  502    0 -0.19506366449E+02 -0.21490452224E+02  0.22433749057E+03  0.22620708995E+03  0.00000000000E+00 0. -1.
         22    1    3    3    0    0 -0.35173743028E+02 -0.61497817805E+00  0.17138695644E+02  0.39131896007E+02  0.00000000000E+00 0. -1.
         22    1    3    3    0    0  0.89448624744E+02  0.74382173358E+02 -0.38508881713E+01  0.11639842577E+03  0.00000000000E+00 0. -1.
</event>
<event>
 7    1  0.6219721E-006  0.5630685E+02  0.7818608E-02  0.1442008E+00
          2   -1    0    0  502    0  0.00000000000E+00  0.00000000000E+00  0.15547200586E+04  0.15547200586E+04  0.00000000000E+00 0. -1.
          1   -1    0    0  501    0 -0.00000000000E+00 -0.00000000000E+00 -0.25557485518E+03  0.25557485518E+03  0.00000000000E+00 0. -1.
         25    2    1    2    0    0  0.36777359713E+02  0.26579938742E+02  0.68969782354E+03  0.70240066515E+03  0.12499815711E+03 0.  0.
          2    1    1    2  501    0 -0.54285688076E+02  0.15431365098E+02 -0.24541529958E+03  0.25182083358E+03  0.00000000000E+00 0. -1.
          1    1    1    2  502    0  0.17508328363E+02 -0.42011303839E+02  0.85486267949E+03  0.85607341508E+03  0.00000000000E+00 0. -1.
         22    1    3    3    0    0  0.70893828210E+02 -0.21282259853E+02  0.40264097136E+03  0.40938810594E+03  0.00000000000E+00 0.  1.
         22    1    3    3    0    0 -0.34116468498E+02  0.47862198594E+02  0.28705685217E+03  0.29301255921E+03  0.00000000000E+00 0.  1.
</event>
<event>
 7    1  0.6219721E-006  0.2697989E+03  0.7818608E-02  0.1219860E+00
          2   -1    0    0  502    0  0.00000000000E+00  0.00000000000E+00  0.68623193264E+03  0.68623193264E+03  0.00000000000E+00 0. -1.
          1   -1    0    0  501    0 -0.00000000000E+00 -0.00000000000E+00 -0.24587165833E+03  0.24587165833E+03  0.00000000000E+00 0. -1.
         25    2    1    2    0    0 -0.22622926506E+03 -0.71752102480E+02  0.24323824554E+03  0.36210038849E+03  0.12499521059E+03 0.  0.
          2    1    1    2  501    0 -0.57887708076E+02 -0.35308242800E+02 -0.11567478283E+03  0.13408323586E+03  0.00000000000E+00 0. -1.
          1    1    1    2  502    0  0.28411697314E+03  0.10706034528E+03  0.31279681160E+03  0.43591996663E+03  0.00000000000E+00 0. -1.
         22    1    3    3    0    0 -0.16793500668E+03 -0.12805840078E+02  0.97979201148E+02  0.19484886416E+03  0.00000000000E+00 0.  1.
         22    1    3    3    0    0 -0.58294258384E+02 -0.58946262402E+02  0.14525904439E+03  0.16725152433E+03  0.00000000000E+00 0.  1.
</event>
<event>
 7    1  0.6219721E-006  0.5096537E+02  0.7818608E-02  0.1546157E+00
          2   -1    0    0  502    0  0.00000000000E+00  0.00000000000E+00  0.11038568085E+03  0.11038568085E+03  0.00000000000E+00 0. -1.
          1   -1    0    0  501    0 -0.00000000000E+00 -0.00000000000E+00 -0.12090432903E+04  0.12090432903E+04  0.00000000000E+00 0. -1.
         25    2    1    2    0    0 -0.29036507815E+02 -0.81469766425E+01 -0.71638435549E+02  0.14719479442E+03  0.12499900017E+03 0.  0.
          2    1    1    2  501    0 -0.17379707443E+02 -0.17151160610E+02 -0.10898499662E+04  0.10901234633E+04  0.00000000000E+00 0. -1.
          1    1    1    2  502    0  0.46416215258E+02  0.25298137252E+02  0.62830792300E+02  0.82110713359E+02  0.00000000000E+00 0. -1.
         22    1    3    3    0    0 -0.24632611509E+02  0.45593289271E+02 -0.77208499773E+02  0.92987450839E+02  0.00000000000E+00 0.  1.
         22    1    3    3    0    0 -0.44038963053E+01 -0.53740265913E+02  0.55700642242E+01  0.54207343585E+02  0.00000000000E+00 0.  1.
</event>
<event>
 7    1  0.6219721E-006  0.9001170E+02  0.7818608E-02  0.1331484E+00
          2   -1    0    0  502    0  0.00000000000E+00  0.00000000000E+00  0.12531220755E+03  0.12531220755E+03  0.00000000000E+00 0. -1.
          1   -1    0    0  501    0 -0.00000000000E+00 -0.00000000000E+00 -0.13907827862E+04  0.13907827862E+04  0.00000000000E+00 0. -1.
         25    2    1    2    0    0 -0.52515294437E+01  0.31649562491E+02 -0.27062301016E+03  0.29981945203E+03  0.12500246725E+03 0.  0.
          2    1    1    2  501    0 -0.57847030701E+02  0.38697345309E+02 -0.10840755364E+04  0.10863072918E+04  0.00000000000E+00 0. -1.
          1    1    1    2  502    0  0.63098560145E+02 -0.70346907800E+02  0.89227967935E+02  0.12996824993E+03  0.00000000000E+00 0. -1.
         22    1    3    3    0    0  0.52461051500E+02  0.22117414190E+02 -0.66805597639E+02  0.87774311794E+02  0.00000000000E+00 0.  1.
         22    1    3    3    0    0 -0.57712580944E+02  0.95321483005E+01 -0.20381741252E+03  0.21204514023E+03  0.00000000000E+00 0.  1.
</event>
<event>
 7    1  0.6219721E-006  0.1863059E+03  0.7818608E-02  0.1379309E+00
          2   -1    0    0  502    0  0.00000000000E+00  0.00000000000E+00  0.49483770501E+03  0.49483770501E+03  0.00000000000E+00 0. -1.
          1   -1    0    0  501    0 -0.00000000000E+00 -0.00000000000E+00 -0.92151530013E+03  0.92151530013E+03  0.00000000000E+00 0. -1.
         25    2    1    2    0    0  0.16053408538E+03  0.12097381756E+03 -0.99751522745E+02  0.25686849356E+03  0.12500079837E+03 0.  0.
          2    1    1    2  501    0 -0.13812339037E+03 -0.12193200254E+03 -0.73147120523E+03  0.75431797559E+03  0.00000000000E+00 0. -1.
          1    1    1    2  502    0 -0.22410695001E+02  0.95818498373E+00  0.40454513286E+03  0.40516653599E+03  0.00000000000E+00 0. -1.
         22    1    3    3    0    0  0.17727488152E+03  0.12561495355E+03 -0.82553374434E+02  0.23242323422E+03  0.00000000000E+00 0. -1.
         22    1    3    3    0    0 -0.16740796149E+02 -0.46411359893E+01 -0.17198148311E+02  0.24445259342E+02  0.00000000000E+00 0. -1.
</event>
<event>
 7    1  0.6219721E-006  0.5445492E+02  0.7818608E-02  0.1517538E+00
          2   -1    0    0  502    0  0.00000000000E+00  0.00000000000E+00  0.24992577834E+03  0.24992577834E+03  0.00000000000E+00 0. -1.
          1   -1    0    0  501    0 -0.00000000000E+00 -0.00000000000E+00 -0.61297751805E+03  0.61297751805E+03  0.00000000000E+00 0. -1.
         25    2    1    2    0    0  0.32586430001E+02  0.48615205380E+02 -0.11010010650E+03  0.17655724384E+03  0.12500045315E+03 0.  0.
          2    1    1    2  501    0 -0.27011267906E+02  0.56162190939E+01 -0.46580531947E+03  0.46662163062E+03  0.00000000000E+00 0. -1.
          1    1    1    2  502    0 -0.55751620947E+01 -0.54231424474E+02  0.21285368627E+03  0.21972442193E+03  0.00000000000E+00 0. -1.
         22    1    3    3    0    0  0.13926138381E+02 -0.42146481176E+02 -0.26117181156E+02  0.51501168504E+02  0.00000000000E+00 0.  1.
         22    1    3    3    0    0  0.18660291620E+02  0.90761686556E+02 -0.83982925347E+02  0.12505607534E+03  0.00000000000E+00 0.  1.
</event>
<event>
 7    1  0.6219721E-006  0.9260778E+02  0.7818608E-02  0.1321121E+00
          2   -1    0    0  502    0  0.00000000000E+00  0.00000000000E+00  0.25952988356E+04  0.25952988356E+04  0.00000000000E+00 0. -1.
          1   -1    0    0  501    0 -0.00000000000E+00 -0.00000000000E+00 -0.53455767077E+02  0.53455767077E+02  0.00000000000E+00 0. -1.
         25    2    1    2    0    0 -0.21965319491E+02  0.52814169516E+01  0.88881830908E+03  0.89784938858E+03  0.12500067763E+03 0.  0.
          2    1    1    2  501    0  0.96042681979E+02 -0.83681428976E+01  0.18833605755E+00  0.96406732378E+02  0.00000000000E+00 0. -1.
          1    1    1    2  502    0 -0.74077362489E+02  0.30867259460E+01  0.16528364234E+04  0.16544984817E+04  0.00000000000E+00 0. -1.
         22    1    3    3    0    0 -0.62117607398E+02 -0.28352736173E+02  0.35803954623E+03  0.36449251221E+03  0.00000000000E+00 0. -1.
         22    1    3    3    0    0  0.40152287907E+02  0.33634153124E+02  0.53077876285E+03  0.53335687637E+03  0.00000000000E+00 0. -1.
</event>
<event>
 7    1  0.6219721E-006  0.7806487E+02  0.7818608E-02  0.1470767E+00
          2   -1    0    0  502    0  0.00000000000E+00  0.00000000000E+00  0.99238199988E+03  0.99238199988E+03  0.00000000000E+00 0. -1.
          1   -1    0    0  501    0 -0.00000000000E+00 -0.00000000000E+00 -0.13219782806E+03  0.13219782806E+03  0.00000000000E+00 0. -1.
         25    2    1    2    0    0  0.66945639643E+02  0.54242481665E+01  0.50156855723E+02  0.15050613279E+03  0.12500097878E+03 0.  0.
          2    1    1    2  501    0  0.91442987420E+01 -0.24989866502E+02 -0.78084160090E+02  0.82493925135E+02  0.00000000000E+00 0. -1.
          1    1    1    2  502    0 -0.76089938385E+02  0.19565618335E+02  0.88811147619E+03  0.89157977000E+03  0.00000000000E+00 0. -1.
         22    1    3    3    0    0  0.98631290273E+02  0.88595608846E+01  0.61621534145E+02  0.11663548650E+03  0.00000000000E+00 0. -1.
         22    1    3    3    0    0 -0.31685650630E+02 -0.34353127181E+01 -0.11464678422E+02  0.33870646298E+02  0.00000000000E+00 0. -1.
</event>
<event>
 7    1  0.6219721E-006  0.5533082E+02  0.7818608E-02  0.1457718E+00
          2   -1    0    0  502    0  0.00000000000E+00  0.00000000000E+00  0.13495172979E+04  0.13495172979E+04  0.00000000000E+00 0. -1.
          1   -1    0    0  501    0 -0.00000000000E+00 -0.00000000000E+00 -0.23440277363E+02  0.23440277363E+02  0.00000000000E+00 0. -1.
         25    2    1    2    0    0  0.25664208901E+02 -0.10731555112E+02  0.41845907608E+03  0.43761771560E+03  0.12500979465E+03 0.  0.
          2    1    1    2  501    0 -0.58968392791E+02 -0.13613264483E+02  0.55163355843E+02  0.81887655639E+02  0.00000000000E+00 0. -1.
          1    1    1    2  502    0  0.33304183890E+02  0.24344819595E+02  0.85245458858E+03  0.85345220399E+03  0.00000000000E+00 0. -1.
         22    1    3    3    0    0 -0.50327147699E+02  0.44015117115E+01  0.15840294713E+03  0.16626391298E+03  0.00000000000E+00 0. -1.
         22    1    3    3    0    0  0.75991356600E+02 -0.15133066823E+02  0.26005612895E+03  0.27135380261E+03  0.00000000000E+00 0. -1.
</event>
<event>
 7    1  0.6219721E-006  0.4546056E+02  0.7818608E-02  0.1481060E+00
          2   -1    0    0  502    0  0.00000000000E+00  0.00000000000E+00  0.75358780502E+02  0.75358780502E+02  0.00000000000E+00 0. -1.
          1   -1    0    0  501    0 -0.00000000000E+00 -0.00000000000E+00 -0.76733441576E+03  0.76733441576E+03  0.00000000000E+00 0. -1.
         25    2    1    2    0    0 -0.19855957858E+02 -0.91510422620E+00 -0.46087231226E+03  0.47794018173E+03  0.12501372974E+03 0.  0.
          2    1    1    2  501    0  0.41371292518E+02 -0.35705273551E+02 -0.28834330221E+03  0.29347625174E+03  0.00000000000E+00 0. -1.
          1    1    1    2  502    0 -0.21515334659E+02  0.36620377777E+02  0.57239979216E+02  0.71276762796E+02  0.00000000000E+00 0. -1.
         22    1    3    3    0    0 -0.63590912176E+02  0.22812226600E+02 -0.17160453195E+03  0.18442428576E+03  0.00000000000E+00 0. -1.
         22    1    3    3    0    0  0.43734954317E+02 -0.23727330826E+02 -0.28926778031E+03  0.29351589597E+03  0.00000000000E+00 0. -1.
</event>
<event>
 7    1  0.6219721E-006  0.9324673E+02  0.7818608E-02  0.1321562E+00
          2   -1    0    0  502    0  0.00000000000E+00  0.00000000000E+00  0.73926790594E+03  0.73926790594E+03  0.00000000000E+00 0. -1.
          1   -1    0    0  501    0 -0.00000000000E+00 -0.00000000000E+00 -0.30419843077E+04  0.30419843077E+04  0.00000000000E+00 0. -1.
         25    2    1    2    0    0  0.15628596981E+02  0.53474777921E+02  0.56334712834E+03  0.57973143174E+03  0.12499896408E+03 0.  0.
          2    1    1    2  501    0 -0.18064844048E+02  0.91480128399E+02 -0.30016051445E+04  0.30030531790E+04  0.00000000000E+00 0. -1.
          1    1    1    2  502    0  0.24362470661E+01 -0.14495490632E+03  0.13554161439E+03  0.19846760289E+03  0.00000000000E+00 0. -1.
         22    1    3    3    0    0 -0.21221369508E+02  0.73511077682E+02  0.48370425294E+03  0.48971831636E+03  0.00000000000E+00 0.  1.
         22    1    3    3    0    0  0.36849966489E+02 -0.20036299761E+02  0.79642875400E+02  0.90013115380E+02  0.00000000000E+00 0.  1.
</event>
<event>
 7    1  0.6219721E-006  0.5711484E+02  0.7818608E-02  0.1509605E+00
          2   -1    0    0  502    0  0.00000000000E+00  0.00000000000E+00  0.57633861919E+03  0.57633861919E+03  0.00000000000E+00 0. -1.
          1   -1    0    0  501    0 -0.00000000000E+00 -0.00000000000E+00 -0.98178572318E+02  0.98178572318E+02  0.00000000000E+00 0. -1.
         25    2    1    2    0    0 -0.53984813673E+02 -0.18682801283E+02  0.87378984020E+02  0.16285443297E+03  0.12499228904E+03 0.  0.
          2    1    1    2  501    0  0.14912253434E+02 -0.23402679809E+02 -0.55315041168E+02  0.61885495103E+02  0.00000000000E+00 0. -1.
          1    1    1    2  502    0  0.39072560239E+02  0.42085481092E+02  0.44609610402E+03  0.44977726344E+03  0.00000000000E+00 0. -1.
         22    1    3    3    0    0  0.93202658646E+01 -0.43873505602E+02 -0.80802242305E+01  0.45574574855E+02  0.00000000000E+00 0. -1.
         22    1    3    3    0    0 -0.63305079537E+02  0.25190704319E+02  0.95459208251E+02  0.11727985811E+03  0.00000000000E+00 0. -1.
</event>
<event>
 7    1  0.6219721E-006  0.6795196E+02  0.7818608E-02  0.1383487E+00
          2   -1    0    0  502    0  0.00000000000E+00  0.00000000000E+00  0.24518740399E+04  0.24518740399E+04  0.00000000000E+00 0. -1.
          1   -1    0    0  501    0 -0.00000000000E+00 -0.00000000000E+00 -0.11694349431E+02  0.11694349431E+02  0.00000000000E+00 0. -1.
         25    2    1    2    0    0  0.22610798651E+02 -0.31114688447E+01  0.41881378651E+03  0.43766275470E+03  0.12499107816E+03 0.  0.
          2    1    1    2  501    0  0.22567157227E+02 -0.54994357113E+02  0.71440596660E+03  0.71687484334E+03  0.00000000000E+00 0. -1.
          1    1    1    2  502    0 -0.45177955878E+02  0.58105825958E+02  0.13069599373E+04  0.13090307913E+04  0.00000000000E+00 0. -1.
         22    1    3    3    0    0  0.99802217075E+01 -0.42543318225E+02  0.37440262367E+03  0.37694411172E+03  0.00000000000E+00 0. -1.
         22    1    3    3    0    0  0.12630576944E+02  0.39431849380E+02  0.44411162843E+02  0.60718642973E+02  0.00000000000E+00 0. -1.
</event>
<event>
 7    1  0.6219721E-006  0.9588171E+02  0.7818608E-02  0.1336828E+00
          2   -1    0    0  502    0  0.00000000000E+00  0.00000000000E+00  0.20709616628E+04  0.20709616628E+04  0.00000000000E+00 0. -1.
          1   -1    0    0  501    0 -0.00000000000E+00 -0.00000000000E+00 -0.23190746313E+03  0.23190746313E+03  0.00000000000E+00 0. -1.
         25    2    1    2    0    0 -0.56982145983E+02  0.43302556500E+02  0.69058859645E+03  0.70544964421E+03  0.12499805842E+03 0.  0.
          2    1    1    2  501    0 -0.48507012404E+02 -0.39181031719E+02 -0.21807127786E+03  0.22681085893E+03  0.00000000000E+00 0. -1.
          1    1    1    2  502    0  0.10548915839E+03 -0.41215247810E+01  0.13665368811E+04  0.13706086228E+04  0.00000000000E+00 0. -1.
         22    1    3    3    0    0 -0.48784551123E+02 -0.80998211992E+01  0.59111811304E+03  0.59318307722E+03  0.00000000000E+00 0. -1.
         22    1    3    3    0    0 -0.81975948601E+01  0.51402377700E+02  0.99470483407E+02  0.11226656699E+03  0.00000000000E+00 0. -1.
</event>
<event>
 7    1  0.6219721E-006  0.6924933E+02  0.7818608E-02  0.1378262E+00
          2   -1    0    0  502    0  0.00000000000E+00  0.00000000000E+00  0.73588350879E+03  0.73588350879E+03  0.00000000000E+00 0. -1.
          1   -1    0    0  501    0 -0.00000000000E+00 -0.00000000000E+00 -0.14726523323E+03  0.14726523323E+03  0.00000000000E+00 0. -1.
         25    2    1    2    0    0  0.10319516285E+02 -0.42073966821E+02 -0.81279804521E+01  0.13254551039E+03  0.12500214861E+03 0.  0.
          2    1    1    2  501    0  0.57033795827E+02  0.21257136341E+02 -0.62708906819E+02  0.87390655715E+02  0.00000000000E+00 0. -1.
          1    1    1    2  502    0 -0.67353312112E+02  0.20816830480E+02  0.65945516283E+03  0.66321257593E+03  0.00000000000E+00 0. -1.
         22    1    3    3    0    0  0.32412107176E+02 -0.72170919460E+02  0.24647137198E+02  0.82865358742E+02  0.00000000000E+00 0. -1.
         22    1    3    3    0    0 -0.22092590891E+02  0.30096952640E+02 -0.32775117650E+02  0.49680151644E+02  0.00000000000E+00 0. -1.
</event>
<event>
 7    1  0.6219721E-006  0.4206282E+02  0.7818608E-02  0.1546344E+00
          2   -1    0    0  502    0  0.00000000000E+00  0.00000000000E+00  0.52604610106E+03  0.52604610106E+03  0.00000000000E+00 0. -1.
          1   -1    0    0  501    0 -0.00000000000E+00 -0.00000000000E+00 -0.13304887789E+04  0.13304887789E+04  0.00000000000E+00 0. -1.
         25    2    1    2    0    0 -0.53263436872E+02 -0.45809144478E+02 -0.79152873268E+02  0.16378310622E+03  0.12499702841E+03 0.  0.
          2    1    1    2  501    0  0.17782483766E+02  0.23600273075E+02 -0.12079342280E+04  0.12082956132E+04  0.00000000000E+00 0. -1.
          1    1    1    2  502    0  0.35480953106E+02  0.22208871402E+02  0.48264442346E+03  0.48445616055E+03  0.00000000000E+00 0. -1.
         22    1    3    3    0    0  0.30685346144E+02 -0.16400656510E+02  0.11630014224E+02  0.36685545284E+02  0.00000000000E+00 0. -1.
         22    1    3    3    0    0 -0.83948783016E+02 -0.29408487967E+02 -0.90782887492E+02  0.12709756094E+03  0.00000000000E+00 0. -1.
</event>
<event>
 7    1  0.6219721E-006  0.2871400E+03  0.7818608E-02  0.1193037E+00
          2   -1    0    0  502    0  0.00000000000E+00  0.00000000000E+00  0.35011539912E+03  0.35011539912E+03  0.00000000000E+00 0. -1.
          1   -1    0    0  501    0 -0.00000000000E+00 -0.00000000000E+00 -0.46408460220E+03  0.46408460220E+03  0.00000000000E+00 0. -1.
         25    2    1    2    0    0  0.28428265328E+03 -0.19971295722E+03 -0.29887227139E+02  0.37043587039E+03  0.12501038152E+03 0.  0.
          2    1    1    2  501    0 -0.21302023384E+03  0.15340422173E+03 -0.17795022167E+03  0.31713838724E+03  0.00000000000E+00 0. -1.
          1    1    1    2  502    0 -0.71262419434E+02  0.46308735493E+02  0.93868245734E+02  0.12662574369E+03  0.00000000000E+00 0. -1.
         22    1    3    3    0    0  0.15149769374E+03 -0.13269954866E+03  0.41225978524E+02  0.20557310799E+03  0.00000000000E+00 0.  1.
         22    1    3    3    0    0  0.13278495953E+03 -0.67013408561E+02 -0.71113205662E+02  0.16486276240E+03  0.00000000000E+00 0.  1.
</event>
<event>
 7    1  0.6219721E-006  0.9569819E+02  0.7818608E-02  0.1297451E+00
          2   -1    0    0  502    0  0.00000000000E+00  0.00000000000E+00  0.42782134790E+02  0.42782134790E+02  0.00000000000E+00 0. -1.
          1   -1    0    0  501    0 -0.00000000000E+00 -0.00000000000E+00 -0.12963572207E+04  0.12963572207E+04  0.00000000000E+00 0. -1.
         25    2    1    2    0    0 -0.30936310972E+02  0.77192453788E+02 -0.38350654628E+03  0.41185526492E+03  0.12502702887E+03 0.  0.
          2    1    1    2  501    0 -0.72993066293E+02 -0.50852285656E+02 -0.78605579074E+03  0.79107373161E+03  0.00000000000E+00 0. -1.
          1    1    1    2  502    0  0.10392937726E+03 -0.26340168132E+02 -0.84012748931E+02  0.13621035900E+03  0.00000000000E+00 0. -1.
         22    1    3    3    0    0 -0.28823542183E+02 -0.27822868728E+02 -0.15936537663E+03  0.16432355850E+03  0.00000000000E+00 0. -1.
         22    1    3    3    0    0 -0.21127687889E+01  0.10501532252E+03 -0.22414116964E+03  0.24753170642E+03  0.00000000000E+00 0. -1.
</event>
<event>
 7    1  0.6219721E-006  0.4582267E+02  0.7818608E-02  0.1527802E+00
          2   -1    0    0  502    0  0.00000000000E+00  0.00000000000E+00  0.14471080676E+04  0.14471080676E+04  0.00000000000E+00 0. -1.
          1   -1    0    0  501    0 -0.00000000000E+00 -0.00000000000E+00 -0.22790327642E+03  0.22790327642E+03  0.00000000000E+00 0. -1.
         25    2    1    2    0    0 -0.41829875251E+02  0.62875630064E+01  0.20359721617E+03  0.24262439409E+03  0.12500199304E+03 0.  0.
          2    1    1    2  501    0  0.39086309934E+02  0.24208578470E+02 -0.20565959257E+03  0.21073600289E+03  0.00000000000E+00 0. -1.
          1    1    1    2  502    0  0.27435653167E+01 -0.30496141477E+02  0.12212671676E+04  0.12216509471E+04  0.00000000000E+00 0. -1.
         22    1    3    3    0    0  0.29608797391E+02  0.29664050525E+01  0.15085926061E+03  0.15376604617E+03  0.00000000000E+00 0. -1.
         22    1    3    3    0    0 -0.71438672641E+02  0.33211579539E+01  0.52737955562E+02  0.88858347924E+02  0.00000000000E+00 0. -1.
</event>
<event>
 7    1  0.6219721E-006  0.5322783E+02  0.7818608E-02  0.1448593E+00
          2   -1    0    0  502    0  0.00000000000E+00  0.00000000000E+00  0.57566856430E+03  0.57566856430E+03  0.00000000000E+00 0. -1.
          1   -1    0    0  501    0 -0.00000000000E+00 -0.00000000000E+00 -0.22403828446E+03  0.22403828446E+03  0.00000000000E+00 0. -1.
         25    2    1    2    0    0 -0.77145214175E+02 -0.87883880172E+01  0.49003229037E+01  0.14723444693E+03  0.12500139745E+03 0.  0.
          2    1    1    2  501    0  0.30591837511E+02  0.34154030718E+02 -0.14798467652E+03  0.15492521686E+03  0.00000000000E+00 0. -1.
          1    1    1    2  502    0  0.46553376664E+02 -0.25365642701E+02  0.49471463346E+03  0.49754718496E+03  0.00000000000E+00 0. -1.
         22    1    3    3    0    0 -0.77132910080E+02  0.29694809658E+02  0.42925751594E+02  0.93133708656E+02  0.00000000000E+00 0.  1.
         22    1    3    3    0    0 -0.12304094770E-01 -0.38483197675E+02 -0.38025428691E+02  0.54100738274E+02  0.00000000000E+00 0.  1.
</event>
<event>
 7    1  0.6219721E-006  0.1024130E+03  0.7818608E-02  0.1354915E+00
          2   -1    0    0  502    0  0.00000000000E+00  0.00000000000E+00  0.12525151708E+03  0.12525151708E+03  0.00000000000E+00 0. -1.
          1   -1    0    0  501    0 -0.00000000000E+00 -0.00000000000E+00 -0.55722336907E+03  0.55722336907E+03  0.00000000000E+00 0. -1.
         25    2    1    2    0    0 -0.32141155020E+02  0.90561804083E+02  0.15428554299E+02  0.15841822718E+03  0.12499520074E+03 0.  0.
          2    1    1    2  501    0  0.77233463542E+02 -0.69001910310E+02 -0.46081202764E+03  0.47230709960E+03  0.00000000000E+00 0. -1.
          1    1    1    2  502    0 -0.45092308522E+02 -0.21559893773E+02  0.13411621348E+02  0.51749559366E+02  0.00000000000E+00 0. -1.
         22    1    3    3    0    0 -0.98973848004E+01  0.59895575191E+02  0.69573509162E+02  0.92335861562E+02  0.00000000000E+00 0.  1.
         22    1    3    3    0    0 -0.22243770219E+02  0.30666228892E+02 -0.54144954863E+02  0.66082365614E+02  0.00000000000E+00 0.  1.
</event>
<event>
 7    1  0.6219721E-006  0.8455599E+02  0.7818608E-02  0.1410398E+00
          2   -1    0    0  502    0  0.00000000000E+00  0.00000000000E+00  0.54741116599E+03  0.54741116599E+03  0.00000000000E+00 0. -1.
          1   -1    0    0  501    0 -0.00000000000E+00 -0.00000000000E+00 -0.85497201507E+03  0.85497201507E+03  0.00000000000E+00 0. -1.
         25    2    1    2    0    0 -0.19236571959E+02  0.11283662697E+03  0.10035031363E+03  0.19697064594E+03  0.12500039931E+03 0.  0.
          2    1    1    2  501    0 -0.11711532784E+02 -0.36744884496E+02 -0.80196298677E+03  0.80288976745E+03  0.00000000000E+00 0. -1.
          1    1    1    2  502    0  0.30948104742E+02 -0.76091742469E+02  0.39405182405E+03  0.40252276767E+03  0.00000000000E+00 0. -1.
         22    1    3    3    0    0  0.41262569174E+02  0.12342042367E+02  0.72822205737E+00  0.43075003563E+02  0.00000000000E+00 0.  1.
         22    1    3    3    0    0 -0.60499141133E+02  0.10049458460E+03  0.99622091577E+02  0.15389564237E+03  0.00000000000E+00 0.  1.
</event>
<event>
 7    1  0.6219721E-006  0.5370718E+02  0.7818608E-02  0.1468701E+00
          2   -1    0    0  502    0  0.00000000000E+00  0.00000000000E+00  0.61234294030E+03  0.61234294030E+03  0.00000000000E+00 0. -1.
          1   -1    0    0  501    0 -0.00000000000E+00 -0.00000000000E+00 -0.70562297547E+02  0.70562297547E+02  0.00000000000E+00 0. -1.
         25    2    1    2    0    0 -0.50317693784E+02 -0.70776746923E+02  0.11490293768E+03  0.19070857983E+03  0.12500343644E+03 0.  0.
          2    1    1    2  501    0  0.33030116348E+02  0.21213460795E+02 -0.18739077292E+02  0.43498879556E+02  0.00000000000E+00 0. -1.
          1    1    1    2  502    0  0.17287577435E+02  0.49563286128E+02  0.44561678237E+03  0.44869777846E+03  0.00000000000E+00 0. -1.
         22    1    3    3    0    0 -0.33012853720E+01 -0.69795012843E+02  0.12444901831E+03  0.14272280988E+03  0.00000000000E+00 0.  1.
         22    1    3    3    0    0 -0.47016408412E+02 -0.98173407952E+00 -0.95460806355E+01  0.47985769945E+02  0.00000000000E+00 0.  1.
</event>
<event>
 7    1  0.6219721E-006  0.2948391E+03  0.7818608E-02  0.1297381E+00
          2   -1    0    0  502    0  0.00000000000E+00  0.00000000000E+00  0.12522055429E+04  0.12522055429E+04  0.00000000000E+00 0. -1.
          1   -1    0    0  501    0 -0.00000000000E+00 -0.00000000000E+00 -0.57805107833E+03  0.57805107833E+03  0.00000000000E+00 0. -1.
         25    2    1    2    0    0  0.17797866507E+03  0.20492643979E+03  0.15925915832E+03  0.33861453940E+03  0.12500030337E+03 0.  0.
          2    1    1    2  501    0 -0.18969531636E+03 -0.23133729104E+03 -0.44231894942E+03  0.53399186163E+03  0.00000000000E+00 0. -1.
          1    1    1    2  502    0  0.11716651293E+02  0.26410851244E+02  0.95721425565E+03  0.95765022017E+03  0.00000000000E+00 0. -1.
         22    1    3    3    0    0  0.14275606443E+03  0.78288112390E+02  0.58540639933E+02  0.17301829093E+03  0.00000000000E+00 0.  1.
         22    1    3    3    0    0  0.35222600640E+02  0.12663832740E+03  0.10071851839E+03  0.16559624847E+03  0.00000000000E+00 0.  1.
</event>
<event>
 7    1  0.6219721E-006  0.6464853E+02  0.7818608E-02  0.1422343E+00
          2   -1    0    0  502    0  0.00000000000E+00  0.00000000000E+00  0.89848353810E+02  0.89848353810E+02  0.00000000000E+00 0. -1.
          1   -1    0    0  501    0 -0.00000000000E+00 -0.00000000000E+00 -0.47194003204E+03  0.47194003204E+03  0.00000000000E+00 0. -1.
         25    2    1    2    0    0  0.34116532540E+02 -0.65528868769E+02 -0.14707195502E+02  0.14594920067E+03  0.12500758833E+03 0.  0.
          2    1    1    2  501    0  0.11843785855E+02  0.63811302500E+02 -0.36397997711E+03  0.36972095062E+03  0.00000000000E+00 0. -1.
          1    1    1    2  502    0 -0.45960318395E+02  0.17175662694E+01 -0.34045056204E+01  0.46118234565E+02  0.00000000000E+00 0. -1.
         22    1    3    3    0    0  0.68254525105E+02 -0.80895797886E+02 -0.21220504766E+02  0.10794961851E+03  0.00000000000E+00 0.  1.
         22    1    3    3    0    0 -0.34137992566E+02  0.15366929117E+02  0.65133092639E+01  0.37999582162E+02  0.00000000000E+00 0.  1.
</event>
<event>
 7    1  0.6219721E-006  0.1712374E+03  0.7818608E-02  0.1293730E+00
          2   -1    0    0  502    0  0.00000000000E+00  0.00000000000E+00  0.19850922430E+03  0.19850922430E+03  0.00000000000E+00 0. -1.
          1   -1    0    0  501    0 -0.00000000000E+00 -0.00000000000E+00 -0.16087891062E+04  0.16087891062E+04  0.00000000000E+00 0. -1.
         25    2    1    2    0    0  0.11311280938E+03  0.81430046551E+02 -0.55371368074E+03  0.58450784132E+03  0.12500086478E+03 0.  0.
          2    1    1    2  501    0 -0.10236085361E+01  0.51453614327E+02 -0.99760338440E+03  0.99892994487E+03  0.00000000000E+00 0. -1.
          1    1    1    2  502    0 -0.11208920085E+03 -0.13288366088E+03  0.14103718320E+03  0.22386054436E+03  0.00000000000E+00 0. -1.
         22    1    3    3    0    0 -0.24331465286E+02  0.18815604838E+02 -0.15767235996E+03  0.16064439077E+03  0.00000000000E+00 0.  1.
         22    1    3    3    0    0  0.13744427467E+03  0.62614441713E+02 -0.39604132078E+03  0.42386345055E+03  0.00000000000E+00 0.  1.
</event>
<event>
 7    1  0.6219721E-006  0.1144740E+03  0.7818608E-02  0.1325575E+00
          2   -1    0    0  502    0  0.00000000000E+00  0.00000000000E+00  0.46661720384E+03  0.46661720384E+03  0.00000000000E+00 0. -1.
          1   -1    0    0  501    0 -0.00000000000E+00 -0.00000000000E+00 -0.14995307427E+04  0.14995307427E+04  0.00000000000E+00 0. -1.
         25    2    1    2    0    0  0.10674913805E+03  0.12144704528E+03 -0.65385546732E+03  0.68505242312E+03  0.12500034801E+03 0.  0.
          2    1    1    2  501    0 -0.13327928051E+02 -0.56089731810E+02 -0.82184541342E+03  0.82386502246E+03  0.00000000000E+00 0. -1.
          1    1    1    2  502    0 -0.93421209995E+02 -0.65357313471E+02  0.44278734186E+03  0.45723050097E+03  0.00000000000E+00 0. -1.
         22    1    3    3    0    0  0.10979424205E+02 -0.21982958586E+02 -0.16163848398E+03  0.16349555874E+03  0.00000000000E+00 0.  1.
         22    1    3    3    0    0  0.95769713842E+02  0.14343000387E+03 -0.49221698334E+03  0.52155686438E+03  0.00000000000E+00 0.  1.
</event>
<event>
 7    1  0.6219721E-006  0.3123868E+03  0.7818608E-02  0.1231134E+00
          2   -1    0    0  502    0  0.00000000000E+00  0.00000000000E+00  0.74367359855E+03  0.74367359855E+03  0.00000000000E+00 0. -1.
          1   -1    0    0  501    0 -0.00000000000E+00 -0.00000000000E+00 -0.83381439844E+03  0.83381439844E+03  0.00000000000E+00 0. -1.
         25    2    1    2    0    0  0.11973983159E+03  0.27496475526E+03 -0.18763076157E+03  0.37519738099E+03  0.12499811242E+03 0.  0.
          2    1    1    2  501    0  0.50958704594E+02 -0.10754585758E+02 -0.51294213104E+03  0.51557936390E+03  0.00000000000E+00 0. -1.
          1    1    1    2  502    0 -0.17069853618E+03 -0.26421016950E+03  0.61043209272E+03  0.68671125209E+03  0.00000000000E+00 0. -1.
         22    1    3    3    0    0  0.77095657111E+02  0.52045782836E+02 -0.26061149909E+02  0.96600659371E+02  0.00000000000E+00 0.  1.
         22    1    3    3    0    0  0.42644174479E+02  0.22291897242E+03 -0.16156961166E+03  0.27859672162E+03  0.00000000000E+00 0.  1.
</event>
<event>
 7    1  0.6219721E-006  0.3303352E+02  0.7818608E-02  0.1589231E+00
          2   -1    0    0  502    0  0.00000000000E+00  0.00000000000E+00  0.91463758706E+03  0.91463758706E+03  0.00000000000E+00 0. -1.
          1   -1    0    0  501    0 -0.00000000000E+00 -0.00000000000E+00 -0.10680616646E+04  0.10680616646E+04  0.00000000000E+00 0. -1.
         25    2    1    2    0    0  0.48742651342E+02  0.17996146524E+02  0.20444731116E+02  0.13690165853E+03  0.12499747889E+03 0.  0.
          2    1    1    2  501    0 -0.16272861393E+02 -0.23700068675E+02 -0.10093034222E+04  0.10097127796E+04  0.00000000000E+00 0. -1.
          1    1    1    2  502    0 -0.32469789950E+02  0.57039221513E+01  0.83543461351E+03  0.83608481354E+03  0.00000000000E+00 0. -1.
         22    1    3    3    0    0  0.20850194220E+02  0.16315167110E+02 -0.52494692141E+02  0.58792924573E+02  0.00000000000E+00 0. -1.
         22    1    3    3    0    0  0.27892457122E+02  0.16809794137E+01  0.72939423256E+02  0.78108733961E+02  0.00000000000E+00 0. -1.
</event>
<event>
 7    1  0.6219721E-006  0.1061342E+03  0.7818608E-02  0.1424537E+00
          2   -1    0    0  502    0  0.00000000000E+00  0.00000000000E+00  0.93641664033E+03  0.93641664033E+03  0.00000000000E+00 0. -1.
          1   -1    0    0  501    0 -0.00000000000E+00 -0.00000000000E+00 -0.18133938180E+04  0.18133938180E+04  0.00000000000E+00 0. -1.
         25    2    1    2    0    0  0.43598669991E+02 -0.82991907445E+02  0.47966085803E+03  0.50446919834E+03  0.12500453042E+03 0.  0.
          2    1    1    2  501    0 -0.95263299585E+01 -0.25848776703E+02 -0.17935640400E+04  0.17937755924E+04  0.00000000000E+00 0. -1.
          1    1    1    2  502    0 -0.34072340032E+02  0.10884068415E+03  0.43692600434E+03  0.45156566759E+03  0.00000000000E+00 0. -1.
         22    1    3    3    0    0  0.63052289824E+02 -0.10766451638E+03  0.38882639953E+03  0.40835426815E+03  0.00000000000E+00 0.  1.
         22    1    3    3    0    0 -0.19453619833E+02  0.24672608936E+02  0.90834458490E+02  0.96114930191E+02  0.00000000000E+00 0.  1.
</event>
<event>
 7    1  0.6219721E-006  0.7970439E+02  0.7818608E-02  0.1372183E+00
          2   -1    0    0  502    0  0.00000000000E+00  0.00000000000E+00  0.15070472629E+04  0.15070472629E+04  0.00000000000E+00 0. -1.
          1   -1    0    0  501    0 -0.00000000000E+00 -0.00000000000E+00 -0.27310987235E+04  0.27310987235E+04  0.00000000000E+00 0. -1.
         25    2    1    2    0    0 -0.53870777639E+02  0.66185256788E+02  0.11012130514E+03  0.18717169496E+03  0.12499597053E+03 0.  0.
          2    1    1    2  501    0 -0.37074556499E-01 -0.79757920978E+02 -0.26914137861E+04  0.26925953085E+04  0.00000000000E+00 0. -1.
          1    1    1    2  502    0  0.53907852195E+02  0.13572664190E+02  0.13572410204E+04  0.13583789829E+04  0.00000000000E+00 0. -1.
         22    1    3    3    0    0  0.10916734602E+02  0.54579459319E+02 -0.35998543985E+01  0.55776800066E+02  0.00000000000E+00 0. -1.
         22    1    3    3    0    0 -0.64787512241E+02  0.11605797469E+02  0.11372115954E+03  0.13139489489E+03  0.00000000000E+00 0. -1.
</event>
<event>
 7    1  0.6219721E-006  0.4460918E+02  0.7818608E-02  0.1551800E+00
          2   -1    0    0  502    0  0.00000000000E+00  0.00000000000E+00  0.71532555939E+02  0.71532555939E+02  0.00000000000E+00 0. -1.
          1   -1    0    0  501    0 -0.00000000000E+00 -0.00000000000E+00 -0.14076050894E+04  0.14076050894E+04  0.00000000000E+00 0. -1.
         25    2    1    2    0    0  0.58284639864E+02 -0.39806776261E+02 -0.18287135590E+03  0.23248429539E+03  0.12500134446E+03 0.  0.
          2    1    1    2  501    0 -0.38649812551E+02  0.21416466824E+02 -0.11956128322E+04  0.11964290692E+04  0.00000000000E+00 0. -1.
          1    1    1    2  502    0 -0.19634827313E+02  0.18390309438E+02  0.42411654661E+02  0.50224280740E+02  0.00000000000E+00 0. -1.
         22    1    3    3    0    0  0.10656074599E+02 -0.58645321927E+02 -0.21802531488E+02  0.63467913855E+02  0.00000000000E+00 0.  1.
         22    1    3    3    0    0  0.47628565265E+02  0.18838545666E+02 -0.16106882441E+03  0.16901638154E+03  0.00000000000E+00 0.  1.
</event>
<event>
 7    1  0.6219721E-006  0.8379986E+02  0.7818608E-02  0.1356256E+00
          2   -1    0    0  502    0  0.00000000000E+00  0.00000000000E+00  0.74387178179E+03  0.74387178179E+03  0.00000000000E+00 0. -1.
          1   -1    0    0  501    0 -0.00000000000E+00 -0.00000000000E+00 -0.82462791505E+02  0.82462791505E+02  0.00000000000E+00 0. -1.
         25    2    1    2    0    0 -0.53004738930E+01 -0.31673500490E+02  0.96639099893E+02  0.16123085273E+03  0.12499986635E+03 0.  0.
          2    1    1    2  501    0 -0.39589350672E+02 -0.45608788473E+02 -0.27334501879E+02  0.66292181029E+02  0.00000000000E+00 0. -1.
          1    1    1    2  502    0  0.44889824565E+02  0.77282288963E+02  0.59210439227E+03  0.59881153954E+03  0.00000000000E+00 0. -1.
         22    1    3    3    0    0  0.52043971401E+02 -0.46200944001E+02  0.57790415487E+02  0.90459020047E+02  0.00000000000E+00 0.  1.
         22    1    3    3    0    0 -0.57344445294E+02  0.14527443511E+02  0.38848684406E+02  0.70771832681E+02  0.00000000000E+00 0.  1.
</event>
<event>
 7    1  0.6219721E-006  0.8734832E+02  0.7818608E-02  0.1327064E+00
          2   -1    0    0  502    0  0.00000000000E+00  0.00000000000E+00  0.75298569869E+02  0.75298569869E+02  0.00000000000E+00 0. -1.
          1   -1    0    0  501    0 -0.00000000000E+00 -0.00000000000E+00 -0.92082693306E+03  0.92082693306E+03  0.00000000000E+00 0. -1.
         25    2    1    2    0    0 -0.65059905090E+02  0.47424337783E+02 -0.41522426884E+03  0.44104262525E+03  0.12500217913E+03 0.  0.
          2    1    1    2  501    0  0.10132800734E+02 -0.97853741538E+02 -0.46323702381E+03  0.47356791341E+03  0.00000000000E+00 0. -1.
          1    1    1    2  502    0  0.54927104356E+02  0.50429403755E+02  0.32932929465E+02  0.81514964266E+02  0.00000000000E+00 0. -1.
         22    1    3    3    0    0 -0.58059895237E+02  0.45898681796E+02 -0.93539821283E+02  0.11927840790E+03  0.00000000000E+00 0. -1.
         22    1    3    3    0    0 -0.70000098532E+01  0.15256559863E+01 -0.32168444756E+03  0.32176421735E+03  0.00000000000E+00 0. -1.
</event>
<event>
 7    1  0.6219721E-006  0.2247926E+03  0.7818608E-02  0.1257888E+00
          2   -1    0    0  502    0  0.00000000000E+00  0.00000000000E+00  0.20932066934E+04  0.20932066934E+04  0.00000000000E+00 0. -1.
          1   -1    0    0  501    0 -0.00000000000E+00 -0.00000000000E+00 -0.79521146652E+03  0.79521146652E+03  0.00000000000E+00 0. -1.
         25    2    1    2    0    0  0.85232690083E+02 -0.19416901001E+03  0.13970076260E+03  0.28303463727E+03  0.12500434759E+03 0.  0.
          2    1    1    2  501    0 -0.38150646461E+02  0.22311160389E+03 -0.70542234882E+03  0.74084745382E+03  0.00000000000E+00 0. -1.
          1    1    1    2  502    0 -0.47082043622E+02 -0.28942593880E+02  0.18637168131E+04  0.18645360688E+04  0.00000000000E+00 0. -1.
         22    1    3    3    0    0  0.18463066123E+01 -0.14105516069E+03  0.11267310800E+03  0.18054139822E+03  0.00000000000E+00 0. -1.
         22    1    3    3    0    0  0.83386383471E+02 -0.53113849323E+02  0.27027654607E+02  0.10249323905E+03  0.00000000000E+00 0. -1.
</event>
<event>
 7    1  0.6219721E-006  0.9474883E+02  0.7818608E-02  0.1367032E+00
          2   -1    0    0  502    0  0.00000000000E+00  0.00000000000E+00  0.25960762865E+04  0.25960762865E+04  0.00000000000E+00 0. -1.
          1   -1    0    0  501    0 -0.00000000000E+00 -0.00000000000E+00 -0.10352287575E+03  0.10352287575E+03  0.00000000000E+00 0. -1.
         25    2    1    2    0    0  0.11534057930E+03 -0.72881675980E+02  0.51316788644E+03  0.54551040225E+03  0.12500052542E+03 0.  0.
          2    1    1    2  501    0 -0.29666850144E+02  0.38748847764E+02 -0.79421746054E+02  0.93216999237E+02  0.00000000000E+00 0. -1.
          1    1    1    2  502    0 -0.85673729158E+02  0.34132828216E+02  0.20588072704E+04  0.20608717608E+04  0.00000000000E+00 0. -1.
         22    1    3    3    0    0  0.79814737747E+02  0.10859491268E+02  0.14099431984E+03  0.16238140022E+03  0.00000000000E+00 0.  1.
         22    1    3    3    0    0  0.35525841555E+02 -0.83741167247E+02  0.37217356661E+03  0.38312900202E+03  0.00000000000E+00 0.  1.
</event>
<event>
 7    1  0.6219721E-006  0.2183199E+03  0.7818608E-02  0.1278508E+00
          2   -1    0    0  502    0  0.00000000000E+00  0.00000000000E+00  0.11586197704E+04  0.11586197704E+04  0.00000000000E+00 0. -1.
          1   -1    0    0  501    0 -0.00000000000E+00 -0.00000000000E+00 -0.25519587265E+03  0.25519587265E+03  0.00000000000E+00 0. -1.
         25    2    1    2    0    0 -0.22834370478E+03  0.11525220156E+03  0.29947577703E+03  0.41320004428E+03  0.12499847236E+03 0.  0.
          2    1    1    2  501    0  0.40220280852E+02 -0.23516745172E+02 -0.18169394585E+03  0.18757238137E+03  0.00000000000E+00 0. -1.
          1    1    1    2  502    0  0.18812342392E+03 -0.91735456393E+02  0.78564206653E+03  0.81304321736E+03  0.00000000000E+00 0. -1.
         22    1    3    3    0    0 -0.24069824809E+03  0.10360295279E+03  0.25520829397E+03  0.36578749537E+03  0.00000000000E+00 0.  1.
         22    1    3    3    0    0  0.12354543316E+02  0.11649248777E+02  0.44267483061E+02  0.47412548910E+02  0.00000000000E+00 0.  1.
</event>
<event>
 7    1  0.6219721E-006  0.5796627E+02  0.7818608E-02  0.1466726E+00
          2   -1    0    0  502    0  0.00000000000E+00  0.00000000000E+00  0.32467205054E+03  0.32467205054E+03  0.00000000000E+00 0. -1.
          1   -1    0    0  501    0 -0.00000000000E+00 -0.00000000000E+00 -0.99065509578E+02  0.99065509578E+02  0.00000000000E+00 0. -1.
         25    2    1    2    0    0  0.45603493533E+02  0.97690187733E+00  0.15534112698E+03  0.20453994878E+03  0.12500036783E+03 0.  0.
          2    1    1    2  501    0 -0.47411435083E+02  0.35869808659E+02 -0.59607051197E+02  0.84187219353E+02  0.00000000000E+00 0. -1.
          1    1    1    2  502    0  0.18079415504E+01 -0.36846710537E+02  0.12987246518E+03  0.13501039198E+03  0.00000000000E+00 0. -1.
         22    1    3    3    0    0 -0.25921324810E+02 -0.14780369257E+02  0.11918135759E+03  0.12285996253E+03  0.00000000000E+00 0.  1.
         22    1    3    3    0    0  0.71524818343E+02  0.15757271134E+02  0.36159769383E+02  0.81679986254E+02  0.00000000000E+00 0.  1.
</event>
<event>
 7    1  0.6219721E-006  0.1109481E+03  0.7818608E-02  0.1270100E+00
          2   -1    0    0  502    0  0.00000000000E+00  0.00000000000E+00  0.11995407301E+04  0.11995407301E+04  0.00000000000E+00 0. -1.
          1   -1    0    0  501    0 -0.00000000000E+00 -0.00000000000E+00 -0.17274503368E+04  0.17274503368E+04  0.00000000000E+00 0. -1.
         25    2    1    2    0    0  0.13016176487E+02  0.42647317274E+02 -0.10991979976E+03  0.17232436994E+03  0.12500044630E+03 0.  0.
          2    1    1    2  501    0 -0.11198235266E+03 -0.33480346783E+02 -0.15820547842E+04  0.15863663893E+04  0.00000000000E+00 0. -1.
          1    1    1    2  502    0  0.98966176171E+02 -0.91669704902E+01  0.11640649773E+04  0.11683003076E+04  0.00000000000E+00 0. -1.
         22    1    3    3    0    0  0.13781968704E+02  0.74019503629E+02 -0.21201993691E+02  0.78219908689E+02  0.00000000000E+00 0. -1.
         22    1    3    3    0    0 -0.76579221659E+00 -0.31372186355E+02 -0.88717806067E+02  0.94104461254E+02  0.00000000000E+00 0. -1.
</event>
<event>
 7    1  0.1265465E-005  0.6351278E+02  0.7818608E-02  0.1395471E+00
          2   -1    0    0  502    0  0.00000000000E+00  0.00000000000E+00  0.26760613830E+04  0.26760613830E+04  0.00000000000E+00 0. -1.
          1   -1    0    0  501    0 -0.00000000000E+00 -0.00000000000E+00 -0.11413649865E+04  0.11413649865E+04  0.00000000000E+00 0. -1.
         25    2    1    2    0    0 -0.45351582479E+01 -0.52882038167E+02 -0.31600197583E+03  0.34394570324E+03  0.12499728170E+03 0.  0.
          2    1    1    2  501    0  0.55718158911E+02  0.15207054756E+02 -0.80998340970E+03  0.81203995699E+03  0.00000000000E+00 0. -1.
          1    1    1    2  502    0 -0.51183000663E+02  0.37674983411E+02  0.26606817821E+04  0.26614407093E+04  0.00000000000E+00 0. -1.
         22    1    3    3    0    0  0.44723267089E+02 -0.17848425924E+02 -0.43736023467E+02  0.65050570142E+02  0.00000000000E+00 0. -1.
         22    1    3    3    0    0 -0.49258425336E+02 -0.35033612243E+02 -0.27226595236E+03  0.27889513310E+03  0.00000000000E+00 0. -1.
</event>
<event>
 7    1  0.6219721E-006  0.7177047E+02  0.7818608E-02  0.1368976E+00
          2   -1    0    0  502    0  0.00000000000E+00  0.00000000000E+00  0.60609008919E+03  0.60609008919E+03  0.00000000000E+00 0. -1.
          1   -1    0    0  501    0 -0.00000000000E+00 -0.00000000000E+00 -0.59445403399E+03  0.59445403399E+03  0.00000000000E+00 0. -1.
         25    2    1    2    0    0 -0.11863088105E+03  0.48020627246E+02  0.11360453695E+03  0.21192257567E+03  0.12500368268E+03 0.  0.
          2    1    1    2  501    0  0.70748576342E+02 -0.64734821482E+01 -0.54069303625E+03  0.54534046840E+03  0.00000000000E+00 0. -1.
          1    1    1    2  502    0  0.47882304711E+02 -0.41547145098E+02  0.43872455450E+03  0.44328107910E+03  0.00000000000E+00 0. -1.
         22    1    3    3    0    0 -0.10244313397E+03  0.43773348884E+02  0.14107372501E+03  0.17975677361E+03  0.00000000000E+00 0. -1.
         22    1    3    3    0    0 -0.16187747084E+02  0.42472783628E+01 -0.27469188068E+02  0.32165802062E+02  0.00000000000E+00 0. -1.
</event>
<event>
 7    1  0.6219721E-006  0.1139810E+03  0.7818608E-02  0.1283961E+00
          2   -1    0    0  502    0  0.00000000000E+00  0.00000000000E+00  0.14336609632E+04  0.14336609632E+04  0.00000000000E+00 0. -1.
          1   -1    0    0  501    0 -0.00000000000E+00 -0.00000000000E+00 -0.34041645501E+03  0.34041645501E+03  0.00000000000E+00 0. -1.
         25    2    1    2    0    0 -0.14549074090E+03 -0.47109434407E+02  0.57405075791E+03  0.60708110318E+03  0.12500535462E+03 0.  0.
          2    1    1    2  501    0  0.75933755598E+02 -0.37608126615E+02 -0.31471050014E+03  0.32591870969E+03  0.00000000000E+00 0. -1.
          1    1    1    2  502    0  0.69556985300E+02  0.84717561022E+02  0.83390425045E+03  0.84107760538E+03  0.00000000000E+00 0. -1.
         22    1    3    3    0    0 -0.12546495324E+03  0.19418411109E+02  0.40045783538E+03  0.42010118673E+03  0.00000000000E+00 0. -1.
         22    1    3    3    0    0 -0.20025787659E+02 -0.66527845516E+02  0.17359292254E+03  0.18697991645E+03  0.00000000000E+00 0. -1.
</event>
<event>
 7    1  0.6219721E-006  0.5668215E+02  0.7818608E-02  0.1510046E+00
          2   -1    0    0  502    0  0.00000000000E+00  0.00000000000E+00  0.30394088489E+03  0.30394088489E+03  0.00000000000E+00 0. -1.
          1   -1    0    0  501    0 -0.00000000000E+00 -0.00000000000E+00 -0.17619655879E+03  0.17619655879E+03  0.00000000000E+00 0. -1.
         25    2    1    2    0    0 -0.41722744798E+02 -0.57022971006E+02  0.13752507154E+03  0.19882334810E+03  0.12500068715E+03 0.  0.
          2    1    1    2  501    0  0.47849443983E+02  0.29826223399E+02 -0.13853840354E+03  0.14957293253E+03  0.00000000000E+00 0. -1.
          1    1    1    2  502    0 -0.61266991853E+01  0.27196747607E+02  0.12875765809E+03  0.13174116305E+03  0.00000000000E+00 0. -1.
         22    1    3    3    0    0  0.24038289432E+02 -0.44764504478E+02  0.11902790472E+03  0.12941925020E+03  0.00000000000E+00 0. -1.
         22    1    3    3    0    0 -0.65761034230E+02 -0.12258466528E+02  0.18497166827E+02  0.69404097899E+02  0.00000000000E+00 0. -1.
</event>
<event>
 7    1  0.6219721E-006  0.2646650E+03  0.7818608E-02  0.1198720E+00
          2   -1    0    0  502    0  0.00000000000E+00  0.00000000000E+00  0.10108795576E+04  0.10108795576E+04  0.00000000000E+00 0. -1.
          1   -1    0    0  501    0 -0.00000000000E+00 -0.00000000000E+00 -0.64001734171E+03  0.64001734171E+03  0.00000000000E+00 0. -1.
         25    2    1    2    0    0  0.21094086627E+03  0.47675644811E+02 -0.15289829500E+03  0.29286857561E+03  0.12500039118E+03 0.  0.
          2    1    1    2  501    0 -0.29495768079E+03 -0.68865210572E+02 -0.35974996322E+03  0.47027915829E+03  0.00000000000E+00 0. -1.
          1    1    1    2  502    0  0.84016814520E+02  0.21189565761E+02  0.88351047407E+03  0.88774916537E+03  0.00000000000E+00 0. -1.
         22    1    3    3    0    0  0.88017746628E+02  0.23920698019E+02  0.50135385834E+01  0.91348010840E+02  0.00000000000E+00 0. -1.
         22    1    3    3    0    0  0.12292311964E+03  0.23754946792E+02 -0.15791183358E+03  0.20152056477E+03  0.00000000000E+00 0. -1.
</event>
<event>
 7    1  0.6219721E-006  0.5348737E+02  0.7818608E-02  0.1475605E+00
          2   -1    0    0  502    0  0.00000000000E+00  0.00000000000E+00  0.69798736892E+03  0.69798736892E+03  0.00000000000E+00 0. -1.
          1   -1    0    0  501    0 -0.00000000000E+00 -0.00000000000E+00 -0.50697119649E+03  0.50697119649E+03  0.00000000000E+00 0. -1.
         25    2    1    2    0    0 -0.51265148078E+02  0.72958784886E+02  0.10810692699E+03  0.18778529928E+03  0.12500044506E+03 0.  0.
          2    1    1    2  501    0  0.23613820896E+02 -0.47597090872E+02 -0.46497743502E+03  0.46800332336E+03  0.00000000000E+00 0. -1.
          1    1    1    2  502    0  0.27651327182E+02 -0.25361694014E+02  0.54788668046E+03  0.54916994277E+03  0.00000000000E+00 0. -1.
         22    1    3    3    0    0  0.19291659168E+02  0.62566298745E+02  0.94838533167E+02  0.11524346934E+03  0.00000000000E+00 0.  1.
         22    1    3    3    0    0 -0.70556807246E+02  0.10392486141E+02  0.13268393820E+02  0.72541829944E+02  0.00000000000E+00 0.  1.
</event>
<event>
 7    1  0.6219721E-006  0.7266349E+02  0.7818608E-02  0.1414806E+00
          2   -1    0    0  502    0  0.00000000000E+00  0.00000000000E+00  0.23819691060E+04  0.23819691060E+04  0.00000000000E+00 0. -1.
          1   -1    0    0  501    0 -0.00000000000E+00 -0.00000000000E+00 -0.22154581104E+04  0.22154581104E+04  0.00000000000E+00 0. -1.
         25    2    1    2    0    0 -0.74457357600E+01 -0.29188542976E+02  0.96877172922E+02  0.16099760803E+03  0.12501053210E+03 0.  0.
          2    1    1    2  501    0 -0.82158363961E+01 -0.42580892769E+02 -0.21825836793E+04  0.21830144639E+04  0.00000000000E+00 0. -1.
          1    1    1    2  502    0  0.15661572156E+02  0.71769435745E+02  0.22522175020E+04  0.22534151444E+04  0.00000000000E+00 0. -1.
         22    1    3    3    0    0 -0.42262200144E+02  0.25361336407E+02  0.80257721074E+02  0.94183824181E+02  0.00000000000E+00 0. -1.
         22    1    3    3    0    0  0.34816464384E+02 -0.54549879383E+02  0.16619451848E+02  0.66813783852E+02  0.00000000000E+00 0. -1.
</event>
<event>
 7    1  0.6219721E-006  0.5796693E+02  0.7818608E-02  0.1550168E+00
          2   -1    0    0  502    0  0.00000000000E+00  0.00000000000E+00  0.14540528634E+04  0.14540528634E+04  0.00000000000E+00 0. -1.
          1   -1    0    0  501    0 -0.00000000000E+00 -0.00000000000E+00 -0.13148875398E+04  0.13148875398E+04  0.00000000000E+00 0. -1.
         25    2    1    2    0    0  0.44033089496E+02  0.64229870904E+02 -0.70694484530E+02  0.16336350673E+03  0.12500214358E+03 0.  0.
          2    1    1    2  501    0 -0.28646226265E+02 -0.50054991946E+02 -0.11970865536E+04  0.11984749999E+04  0.00000000000E+00 0. -1.
          1    1    1    2  502    0 -0.15386863231E+02 -0.14174878958E+02  0.14069463617E+04  0.14071018966E+04  0.00000000000E+00 0. -1.
         22    1    3    3    0    0  0.48592417625E+02  0.57512828143E+02  0.15430016667E+02  0.76857230408E+02  0.00000000000E+00 0.  1.
         22    1    3    3    0    0 -0.45593281291E+01  0.67170427613E+01 -0.86124501197E+02  0.86506276320E+02  0.00000000000E+00 0.  1.
</event>
<event>
 7    1  0.6219721E-006  0.3182308E+02  0.7818608E-02  0.1646430E+00
          2   -1    0    0  502    0  0.00000000000E+00  0.00000000000E+00  0.94239784683E+03  0.94239784683E+03  0.00000000000E+00 0. -1.
          1   -1    0    0  501    0 -0.00000000000E+00 -0.00000000000E+00 -0.64532156419E+03  0.64532156419E+03  0.00000000000E+00 0. -1.
         25    2    1    2    0    0 -0.37438959666E+02 -0.37115190642E+02  0.56265769681E+02  0.14686762346E+03  0.12500019562E+03 0.  0.
          2    1    1    2  501    0  0.24499249565E+02  0.20175838364E+02 -0.59946569286E+03  0.60030525118E+03  0.00000000000E+00 0. -1.
          1    1    1    2  502    0  0.12939710100E+02  0.16939352278E+02  0.84027620582E+03  0.84054653638E+03  0.00000000000E+00 0. -1.
         22    1    3    3    0    0 -0.57115503457E+02 -0.33056237073E+02  0.87581968431E+02  0.10966082591E+03  0.00000000000E+00 0. -1.
         22    1    3    3    0    0  0.19676543792E+02 -0.40589535686E+01 -0.31316198750E+02  0.37206797549E+02  0.00000000000E+00 0. -1.
</event>
<event>
 7    1  0.6219721E-006  0.7082251E+02  0.7818608E-02  0.1494752E+00
          2   -1    0    0  502    0  0.00000000000E+00  0.00000000000E+00  0.21925038459E+04  0.21925038459E+04  0.00000000000E+00 0. -1.
          1   -1    0    0  501    0 -0.00000000000E+00 -0.00000000000E+00 -0.73722452051E+02  0.73722452051E+02  0.00000000000E+00 0. -1.
         25    2    1    2    0    0  0.26814416439E+02 -0.56694888543E+02  0.66305184415E+03  0.67763954951E+03  0.12499715086E+03 0.  0.
          2    1    1    2  501    0 -0.64888814427E+01  0.70862807159E+02 -0.47240450732E+02  0.85412547124E+02  0.00000000000E+00 0. -1.
          1    1    1    2  502    0 -0.20325534997E+02 -0.14167918616E+02  0.15029700004E+04  0.15031742013E+04  0.00000000000E+00 0. -1.
         22    1    3    3    0    0  0.63698028428E+02 -0.59338394791E+02  0.58295033826E+03  0.58941460857E+03  0.00000000000E+00 0.  1.
         22    1    3    3    0    0 -0.36883611989E+02  0.26435062481E+01  0.80101505887E+02  0.88224940941E+02  0.00000000000E+00 0.  1.
</event>
<event>
 7    1  0.6219721E-006  0.3928367E+02  0.7818608E-02  0.1524976E+00
          2   -1    0    0  502    0  0.00000000000E+00  0.00000000000E+00  0.18116512160E+04  0.18116512160E+04  0.00000000000E+00 0. -1.
          1   -1    0    0  501    0 -0.00000000000E+00 -0.00000000000E+00 -0.31538794332E+03  0.31538794332E+03  0.00000000000E+00 0. -1.
         25    2    1    2    0    0 -0.48506474102E+02 -0.96289172657E+01  0.17141812245E+03  0.21784106168E+03  0.12499984549E+03 0.  0.
          2    1    1    2  501    0  0.16467345834E+02  0.32452445307E+02 -0.29080297409E+03  0.29307115932E+03  0.00000000000E+00 0. -1.
          1    1    1    2  502    0  0.32039128268E+02 -0.22823528041E+02  0.16156481243E+04  0.16161269384E+04  0.00000000000E+00 0. -1.
         22    1    3    3    0    0 -0.19238045358E+02 -0.60218862226E+02  0.13475619203E+03  0.14884772436E+03  0.00000000000E+00 0. -1.
         22    1    3    3    0    0 -0.29268428744E+02  0.50589944960E+02  0.36661930422E+02  0.68993337320E+02  0.00000000000E+00 0. -1.
</event>
<event>
 7    1  0.6219721E-006  0.4868963E+02  0.7818608E-02  0.1494946E+00
          2   -1    0    0  502    0  0.00000000000E+00  0.00000000000E+00  0.25491123576E+04  0.25491123576E+04  0.00000000000E+00 0. -1.
          1   -1    0    0  501    0 -0.00000000000E+00 -0.00000000000E+00 -0.14437104717E+03  0.14437104717E+03  0.00000000000E+00 0. -1.
         25    2    1    2    0    0  0.24044711117E+02  0.29549011787E+02  0.68750789485E+02  0.14766011326E+03  0.12500218303E+03 0.  0.
          2    1    1    2  501    0  0.24670461833E+02 -0.26204222779E+02 -0.10157816847E+03  0.10776556634E+03  0.00000000000E+00 0. -1.
          1    1    1    2  502    0 -0.48715172950E+02 -0.33447890086E+01  0.24375686894E+04  0.24380577252E+04  0.00000000000E+00 0. -1.
         22    1    3    3    0    0 -0.47046969862E+00  0.41530680585E+01  0.10025837847E+03  0.10034546213E+03  0.00000000000E+00 0. -1.
         22    1    3    3    0    0  0.24515180816E+02  0.25395943729E+02 -0.31507588983E+02  0.47314651133E+02  0.00000000000E+00 0. -1.
</event>
<event>
 7    1  0.6219721E-006  0.9807315E+02  0.7818608E-02  0.1291772E+00
          2   -1    0    0  502    0  0.00000000000E+00  0.00000000000E+00  0.17284819135E+04  0.17284819135E+04  0.00000000000E+00 0. -1.
          1   -1    0    0  501    0 -0.00000000000E+00 -0.00000000000E+00 -0.25893945343E+02  0.25893945343E+02  0.00000000000E+00 0. -1.
         25    2    1    2    0    0  0.72721002253E+02  0.66220434897E+00  0.32962270312E+03  0.35995166356E+03  0.12500116401E+03 0.  0.
          2    1    1    2  501    0 -0.13626868751E+02 -0.90492329720E+02  0.24823651950E+03  0.26456742601E+03  0.00000000000E+00 0. -1.
          1    1    1    2  502    0 -0.59094133502E+02  0.89830125371E+02  0.11247287455E+04  0.11298567693E+04  0.00000000000E+00 0. -1.
         22    1    3    3    0    0  0.57231621160E+02  0.13911441163E+02  0.43790005187E+02  0.73393127813E+02  0.00000000000E+00 0. -1.
         22    1    3    3    0    0  0.15489381093E+02 -0.13249236814E+02  0.28583269793E+03  0.28655853575E+03  0.00000000000E+00 0. -1.
</event>
<event>
 7    1  0.6219721E-006  0.7847002E+02  0.7818608E-02  0.1425731E+00
          2   -1    0    0  502    0  0.00000000000E+00  0.00000000000E+00  0.36323880363E+03  0.36323880363E+03  0.00000000000E+00 0. -1.
          1   -1    0    0  501    0 -0.00000000000E+00 -0.00000000000E+00 -0.91974710999E+03  0.91974710999E+03  0.00000000000E+00 0. -1.
         25    2    1    2    0    0 -0.91398198918E+02 -0.32426569816E+02 -0.33152987427E+03  0.36734514180E+03  0.12500112990E+03 0.  0.
          2    1    1    2  501    0  0.31932503304E+02 -0.18535878982E+02 -0.56525936163E+03  0.56646395250E+03  0.00000000000E+00 0. -1.
          1    1    1    2  502    0  0.59465695615E+02  0.50962448797E+02  0.34028092954E+03  0.34917681932E+03  0.00000000000E+00 0. -1.
         22    1    3    3    0    0  0.76640226449E+01 -0.45272210899E+02 -0.46635878057E+02  0.65446279076E+02  0.00000000000E+00 0. -1.
         22    1    3    3    0    0 -0.99062221563E+02  0.12845641083E+02 -0.28489399621E+03  0.30189886272E+03  0.00000000000E+00 0. -1.
</event>
<event>
 7    1  0.6219721E-006  0.1029772E+03  0.7818608E-02  0.1324683E+00
          2   -1    0    0  502    0  0.00000000000E+00  0.00000000000E+00  0.15669875727E+04  0.15669875727E+04  0.00000000000E+00 0. -1.
          1   -1    0    0  501    0 -0.00000000000E+00 -0.00000000000E+00 -0.41952615734E+02  0.41952615734E+02  0.00000000000E+00 0. -1.
         25    2    1    2    0    0  0.66936099520E+02  0.12901400374E+03  0.75144160337E+03  0.77550909466E+03  0.12499927222E+03 0.  0.
          2    1    1    2  501    0 -0.74987421089E+02 -0.64921072639E+02  0.57941506279E+02  0.11486982695E+03  0.00000000000E+00 0. -1.
          1    1    1    2  502    0  0.80513215693E+01 -0.64092931105E+02  0.71565184735E+03  0.71856126685E+03  0.00000000000E+00 0. -1.
         22    1    3    3    0    0 -0.17280943833E+02  0.99746422245E+02  0.35401715060E+03  0.36820663043E+03  0.00000000000E+00 0.  1.
         22    1    3    3    0    0  0.84217043353E+02  0.29267581499E+02  0.39742445277E+03  0.40730246424E+03  0.00000000000E+00 0.  1.
</event>
<event>
 7    1  0.6219721E-006  0.1146596E+03  0.7818608E-02  0.1324418E+00
          2   -1    0    0  502    0  0.00000000000E+00  0.00000000000E+00  0.10170143626E+04  0.10170143626E+04  0.00000000000E+00 0. -1.
          1   -1    0    0  501    0 -0.00000000000E+00 -0.00000000000E+00 -0.37452855405E+03  0.37452855405E+03  0.00000000000E+00 0. -1.
         25    2    1    2    0    0  0.14451008308E+03  0.51776357191E+02 -0.16160204915E+03  0.25554440775E+03  0.12499506697E+03 0.  0.
          2    1    1    2  501    0 -0.10160628035E+03 -0.12522456180E+02 -0.14919621735E+03  0.18094242009E+03  0.00000000000E+00 0. -1.
          1    1    1    2  502    0 -0.42903802726E+02 -0.39253901011E+02  0.95328407507E+03  0.95505608883E+03  0.00000000000E+00 0. -1.
         22    1    3    3    0    0  0.29859760913E+02  0.66094558100E+02 -0.10305221855E+03  0.12601529939E+03  0.00000000000E+00 0.  1.
         22    1    3    3    0    0  0.11465032216E+03 -0.14318200909E+02 -0.58549830600E+02  0.12952910836E+03  0.00000000000E+00 0.  1.
</event>
<event>
 7    1  0.6219721E-006  0.5114862E+02  0.7818608E-02  0.1494687E+00
          2   -1    0    0  502    0  0.00000000000E+00  0.00000000000E+00  0.53591463089E+03  0.53591463089E+03  0.00000000000E+00 0. -1.
          1   -1    0    0  501    0 -0.00000000000E+00 -0.00000000000E+00 -0.11632762724E+04  0.11632762724E+04  0.00000000000E+00 0. -1.
         25    2    1    2    0    0 -0.74362329140E+02  0.32582986198E+00  0.27925472404E+02  0.14810639775E+03  0.12500324350E+03 0.  0.
          2    1    1    2  501    0  0.27706360757E+02 -0.20256178065E+02 -0.11014809518E+04  0.11020155363E+04  0.00000000000E+00 0. -1.
          1    1    1    2  502    0  0.46655968383E+02  0.19930348203E+02  0.44619383786E+03  0.44906896921E+03  0.00000000000E+00 0. -1.
         22    1    3    3    0    0 -0.46441298646E+02  0.61364402073E+02  0.25019953905E+02  0.80922074585E+02  0.00000000000E+00 0.  1.
         22    1    3    3    0    0 -0.27921030495E+02 -0.61038572211E+02  0.29055184996E+01  0.67184323165E+02  0.00000000000E+00 0.  1.
</event>
<event>
 7    1  0.6219721E-006  0.6242865E+02  0.7818608E-02  0.1394886E+00
          2   -1    0    0  502    0  0.00000000000E+00  0.00000000000E+00  0.40957421015E+03  0.40957421015E+03  0.00000000000E+00 0. -1.
          1   -1    0    0  501    0 -0.00000000000E+00 -0.00000000000E+00 -0.57065247714E+02  0.57065247714E+02  0.00000000000E+00 0. -1.
         25    2    1    2    0    0  0.16007456873E+02  0.34546863920E+01  0.20364861216E+03  0.23951153342E+03  0.12499937548E+03 0.  0.
          2    1    1    2  501    0 -0.44406857640E+02 -0.55208536803E+02  0.43041675458E+01  0.70982232986E+02  0.00000000000E+00 0. -1.
          1    1    1    2  502    0  0.28399400767E+02  0.51753850411E+02  0.14455618273E+03  0.15614569146E+03  0.00000000000E+00 0. -1.
         22    1    3    3    0    0 -0.54552931386E+02 -0.37123995117E+01  0.98942364977E+02  0.11304598985E+03  0.00000000000E+00 0.  1.
         22    1    3    3    0    0  0.70560388259E+02  0.71670859037E+01  0.10470624718E+03  0.12646554357E+03  0.00000000000E+00 0.  1.
</event>
<event>
 7    1  0.6219721E-006  0.7497982E+02  0.7818608E-02  0.1434075E+00
          2   -1    0    0  502    0  0.00000000000E+00  0.00000000000E+00  0.73381757639E+02  0.73381757639E+02  0.00000000000E+00 0. -1.
          1   -1    0    0  501    0 -0.00000000000E+00 -0.00000000000E+00 -0.50785187333E+03  0.50785187333E+03  0.00000000000E+00 0. -1.
         25    2    1    2    0    0 -0.26290227382E+02 -0.57143272022E+02 -0.13892660321E+03  0.19718659938E+03  0.12500169720E+03 0.  0.
          2    1    1    2  501    0  0.61368663120E+02  0.47913329792E+02 -0.32693456613E+03  0.33607738769E+03  0.00000000000E+00 0. -1.
          1    1    1    2  502    0 -0.35078435738E+02  0.92299422296E+01  0.31391053642E+02  0.47969643903E+02  0.00000000000E+00 0. -1.
         22    1    3    3    0    0 -0.82677005165E+01 -0.59898925866E+02 -0.15897602349E+03  0.17008707252E+03  0.00000000000E+00 0. -1.
         22    1    3    3    0    0 -0.18022526866E+02  0.27556538440E+01  0.20049420283E+02  0.27099526867E+02  0.00000000000E+00 0. -1.
</event>
<event>
 7    1  0.6219721E-006  0.2680166E+03  0.7818608E-02  0.1158282E+00
          2   -1    0    0  502    0  0.00000000000E+00  0.00000000000E+00  0.53556307061E+03  0.53556307061E+03  0.00000000000E+00 0. -1.
          1   -1    0    0  501    0 -0.00000000000E+00 -0.00000000000E+00 -0.19497457310E+04  0.19497457310E+04  0.00000000000E+00 0. -1.
         25    2    1    2    0    0  0.25958976004E+03  0.14671009893E+03 -0.12494177671E+04  0.12905732898E+04  0.12499585172E+03 0.  0.
          2    1    1    2  501    0 -0.13892648796E+03 -0.20719722019E+03 -0.64728512747E+03  0.69369250634E+03  0.00000000000E+00 0. -1.
          1    1    1    2  502    0 -0.12066327208E+03  0.60487121266E+02  0.48252023411E+03  0.50104300553E+03  0.00000000000E+00 0. -1.
         22    1    3    3    0    0  0.30382621283E+02  0.21224721933E+02 -0.40390723071E+03  0.40560404771E+03  0.00000000000E+00 0.  1.
         22    1    3    3    0    0  0.22920713875E+03  0.12548537699E+03 -0.84551053635E+03  0.88496924205E+03  0.00000000000E+00 0.  1.
</event>
<event>
 7    1  0.6219721E-006  0.1657285E+03  0.7818608E-02  0.1382721E+00
          2   -1    0    0  502    0  0.00000000000E+00  0.00000000000E+00  0.17125854082E+04  0.17125854082E+04  0.00000000000E+00 0. -1.
          1   -1    0    0  501    0 -0.00000000000E+00 -0.00000000000E+00 -0.11885486904E+04  0.11885486904E+04  0.00000000000E+00 0. -1.
         25    2    1    2    0    0  0.87209132042E+02  0.11126091835E+03 -0.87997642386E+03  0.89998147892E+03  0.12499492466E+03 0.  0.
          2    1    1    2  501    0  0.13724475617E+02  0.20325626417E+02 -0.29401960921E+03  0.29504071400E+03  0.00000000000E+00 0. -1.
          1    1    1    2  502    0 -0.10093360766E+03 -0.13158654477E+03  0.16980327508E+04  0.17061119057E+04  0.00000000000E+00 0. -1.
         22    1    3    3    0    0  0.85486917725E+02  0.52227915149E+02 -0.28524832014E+03  0.30232825267E+03  0.00000000000E+00 0. -1.
         22    1    3    3    0    0  0.17222143172E+01  0.59033003200E+02 -0.59472810372E+03  0.59765322625E+03  0.00000000000E+00 0. -1.
</event>
<event>
 7    1  0.6219721E-006  0.1489510E+03  0.7818608E-02  0.1211727E+00
          2   -1    0    0  502    0  0.00000000000E+00  0.00000000000E+00  0.27067344317E+04  0.27067344317E+04  0.00000000000E+00 0. -1.
          1   -1    0    0  501    0 -0.00000000000E+00 -0.00000000000E+00 -0.34461676630E+03  0.34461676630E+03  0.00000000000E+00 0. -1.
         25    2    1    2    0    0  0.56324617902E+02 -0.10148863257E+02  0.93396771638E+02  0.16620157958E+03  0.12499818437E+03 0.  0.
          2    1    1    2  501    0  0.51920863381E+02  0.12336711052E+03 -0.29117525288E+03  0.32046567351E+03  0.00000000000E+00 0. -1.
          1    1    1    2  502    0 -0.10824548128E+03 -0.11321824726E+03  0.25598961466E+04  0.25646839449E+04  0.00000000000E+00 0. -1.
         22    1    3    3    0    0 -0.10609839161E+02 -0.18494865366E+01  0.98007199328E+02  0.98597162270E+02  0.00000000000E+00 0. -1.
         22    1    3    3    0    0  0.66934457063E+02 -0.82993767199E+01 -0.46104276901E+01  0.67604417309E+02  0.00000000000E+00 0. -1.
</event>
<event>
 7    1  0.6219721E-006  0.1048503E+03  0.7818608E-02  0.1438611E+00
          2   -1    0    0  502    0  0.00000000000E+00  0.00000000000E+00  0.11787898807E+03  0.11787898807E+03  0.00000000000E+00 0. -1.
          1   -1    0    0  501    0 -0.00000000000E+00 -0.00000000000E+00 -0.12391555507E+04  0.12391555507E+04  0.00000000000E+00 0. -1.
         25    2    1    2    0    0 -0.78082721052E+02  0.83708081618E+02 -0.51461950304E+03  0.54181292334E+03  0.12499622686E+03 0.  0.
          2    1    1    2  501    0  0.83864409104E+02 -0.59314093944E+02 -0.70565836370E+03  0.71309545442E+03  0.00000000000E+00 0. -1.
          1    1    1    2  502    0 -0.57816880515E+01 -0.24393987674E+02  0.99001304101E+02  0.10212616102E+03  0.00000000000E+00 0. -1.
         22    1    3    3    0    0 -0.36455747983E+01 -0.62760945866E+01  0.52693667773E+01  0.89691585505E+01  0.00000000000E+00 0.  1.
         22    1    3    3    0    0 -0.74437146254E+02  0.89984176205E+02 -0.51988886982E+03  0.53284376479E+03  0.00000000000E+00 0.  1.
</event>
<event>
 7    1  0.6219721E-006  0.5225079E+02  0.7818608E-02  0.1510963E+00
          2   -1    0    0  502    0  0.00000000000E+00  0.00000000000E+00  0.50947240889E+03  0.50947240889E+03  0.00000000000E+00 0. -1.
          1   -1    0    0  501    0 -0.00000000000E+00 -0.00000000000E+00 -0.96285973662E+02  0.96285973662E+02  0.00000000000E+00 0. -1.
         25    2    1    2    0    0  0.61469047661E+02  0.14247700414E+02  0.40535098156E+03  0.42884991765E+03  0.12498557048E+03 0.  0.
          2    1    1    2  501    0 -0.50356420561E+02  0.13677936550E+02 -0.73533166308E+02  0.90166410526E+02  0.00000000000E+00 0. -1.
          1    1    1    2  502    0 -0.11112627100E+02 -0.27925636965E+02  0.81368619980E+02  0.86742054382E+02  0.00000000000E+00 0. -1.
         22    1    3    3    0    0 -0.28820275490E+02  0.36133542386E+02  0.11280957976E+03  0.12191079710E+03  0.00000000000E+00 0.  1.
         22    1    3    3    0    0  0.90289323151E+02 -0.21885841971E+02  0.29254140180E+03  0.30693912054E+03  0.00000000000E+00 0.  1.
</event>
<event>
 7    1  0.6219721E-006  0.1757030E+03  0.7818608E-02  0.1263718E+00
          2   -1    0    0  502    0  0.00000000000E+00  0.00000000000E+00  0.23675707417E+03  0.23675707417E+03  0.00000000000E+00 0. -1.
          1   -1    0    0  501    0 -0.00000000000E+00 -0.00000000000E+00 -0.55196101938E+03  0.55196101938E+03  0.00000000000E+00 0. -1.
         25    2    1    2    0    0  0.16277256563E+02  0.12259101100E+03  0.17833397088E+02  0.17673878808E+03  0.12500025641E+03 0.  0.
          2    1    1    2  501    0  0.50150961608E+01 -0.18588083414E+03 -0.44462260975E+03  0.48193993484E+03  0.00000000000E+00 0. -1.
          1    1    1    2  502    0 -0.21292352724E+02  0.63289823144E+02  0.11158526746E+03  0.13003937063E+03  0.00000000000E+00 0. -1.
         22    1    3    3    0    0  0.63588625217E+02  0.29556723022E+02 -0.34933804428E+01  0.70209093711E+02  0.00000000000E+00 0. -1.
         22    1    3    3    0    0 -0.47311368655E+02  0.93034287974E+02  0.21326777530E+02  0.10652969437E+03  0.00000000000E+00 0. -1.
</event>
<event>
 7    1  0.6219721E-006  0.1000225E+03  0.7818608E-02  0.1332891E+00
          2   -1    0    0  502    0  0.00000000000E+00  0.00000000000E+00  0.19121589521E+04  0.19121589521E+04  0.00000000000E+00 0. -1.
          1   -1    0    0  501    0 -0.00000000000E+00 -0.00000000000E+00 -0.19723690227E+02  0.19723690227E+02  0.00000000000E+00 0. -1.
         25    2    1    2    0    0  0.32871111264E+02 -0.38995125936E+02  0.10455962408E+04  0.10542754378E+04  0.12499628103E+03 0.  0.
          2    1    1    2  501    0 -0.88277051721E+02  0.66514277064E+02  0.20591858801E+03  0.23370804822E+03  0.00000000000E+00 0. -1.
          1    1    1    2  502    0  0.55405940456E+02 -0.27519151128E+02  0.64092043311E+03  0.64389915631E+03  0.00000000000E+00 0. -1.
         22    1    3    3    0    0 -0.10578244582E+02  0.34832787639E+02  0.14068907909E+03  0.14532253552E+03  0.00000000000E+00 0. -1.
         22    1    3    3    0    0  0.43449355846E+02 -0.73827913576E+02  0.90490716167E+03  0.90895290230E+03  0.00000000000E+00 0. -1.
</event>
<event>
 7    1  0.6219721E-006  0.9576762E+02  0.7818608E-02  0.1481299E+00
          2   -1    0    0  502    0  0.00000000000E+00  0.00000000000E+00  0.91612415585E+02  0.91612415585E+02  0.00000000000E+00 0. -1.
          1   -1    0    0  501    0 -0.00000000000E+00 -0.00000000000E+00 -0.79615636562E+03  0.79615636562E+03  0.00000000000E+00 0. -1.
         25    2    1    2    0    0 -0.14060854274E+02 -0.95284461699E+02 -0.66811430966E+02  0.17136459906E+03  0.12500088895E+03 0.  0.
          2    1    1    2  501    0 -0.19465505009E+02  0.51209595559E+01 -0.61784770106E+03  0.61817547009E+03  0.00000000000E+00 0. -1.
          1    1    1    2  502    0  0.33526359282E+02  0.90163502143E+02 -0.19884818009E+02  0.98228712059E+02  0.00000000000E+00 0. -1.
         22    1    3    3    0    0 -0.20610742006E+02 -0.11370354546E+03 -0.15669911650E+02  0.11661408606E+03  0.00000000000E+00 0. -1.
         22    1    3    3    0    0  0.65498877323E+01  0.18419083762E+02 -0.51141519316E+02  0.54750513001E+02  0.00000000000E+00 0. -1.
</event>
<event>
 7    1  0.6219721E-006  0.6332570E+02  0.7818608E-02  0.1466382E+00
          2   -1    0    0  502    0  0.00000000000E+00  0.00000000000E+00  0.27116436989E+04  0.27116436989E+04  0.00000000000E+00 0. -1.
          1   -1    0    0  501    0 -0.00000000000E+00 -0.00000000000E+00 -0.14006430781E+03  0.14006430781E+03  0.00000000000E+00 0. -1.
         25    2    1    2    0    0  0.36592613656E+02  0.82029929988E+02  0.64075768009E+03  0.65898582833E+03  0.12499595415E+03 0.  0.
          2    1    1    2  501    0 -0.90063081928E+01 -0.62408574234E+02 -0.12321210564E+03  0.13840941696E+03  0.00000000000E+00 0. -1.
          1    1    1    2  502    0 -0.27586305463E+02 -0.19621355755E+02  0.20540338166E+04  0.20543127614E+04  0.00000000000E+00 0. -1.
         22    1    3    3    0    0  0.68727770549E+02  0.88636216240E+01  0.37967473039E+03  0.38594685013E+03  0.00000000000E+00 0.  1.
         22    1    3    3    0    0 -0.32135156893E+02  0.73166308364E+02  0.26108294971E+03  0.27303897820E+03  0.00000000000E+00 0.  1.
</event>
<event>
 7    1  0.6219721E-006  0.1156373E+03  0.7818608E-02  0.1443589E+00
          2   -1    0    0  502    0  0.00000000000E+00  0.00000000000E+00  0.10494870786E+04  0.10494870786E+04  0.00000000000E+00 0. -1.
          1   -1    0    0  501    0 -0.00000000000E+00 -0.00000000000E+00 -0.15403034140E+03  0.15403034140E+03  0.00000000000E+00 0. -1.
         25    2    1    2    0    0  0.88900949405E+02  0.44756968157E+02  0.17534508301E+03  0.23722953578E+03  0.12500155803E+03 0.  0.
          2    1    1    2  501    0  0.21583099926E+02 -0.37269584250E+01 -0.11795677534E+03  0.11997300225E+03  0.00000000000E+00 0. -1.
          1    1    1    2  502    0 -0.11048404933E+03 -0.41030009732E+02  0.83806842956E+03  0.84631488199E+03  0.00000000000E+00 0. -1.
         22    1    3    3    0    0  0.27861533560E+01  0.35433596345E+02 -0.61999283287E+01  0.36079655095E+02  0.00000000000E+00 0. -1.
         22    1    3    3    0    0  0.86114796049E+02  0.93233718119E+01  0.18154501133E+03  0.20114988069E+03  0.00000000000E+00 0. -1.
</event>
<event>
 7    1  0.6219721E-006  0.1410975E+03  0.7818608E-02  0.1410507E+00
          2   -1    0    0  502    0  0.00000000000E+00  0.00000000000E+00  0.12893722421E+04  0.12893722421E+04  0.00000000000E+00 0. -1.
          1   -1    0    0  501    0 -0.00000000000E+00 -0.00000000000E+00 -0.30191204751E+03  0.30191204751E+03  0.00000000000E+00 0. -1.
         25    2    1    2    0    0  0.13740456345E+03 -0.30676588194E+02  0.52793048661E+03  0.56050060645E+03  0.12501705490E+03 0.  0.
          2    1    1    2  501    0 -0.13090578101E+03  0.52835265193E+02 -0.26799036825E+03  0.30289722056E+03  0.00000000000E+00 0. -1.
          1    1    1    2  502    0 -0.64987824413E+01 -0.22158676999E+02  0.72752007624E+03  0.72788646262E+03  0.00000000000E+00 0. -1.
         22    1    3    3    0    0  0.53395822340E+01 -0.47975056431E+02  0.82517957075E+02  0.95599845282E+02  0.00000000000E+00 0.  1.
         22    1    3    3    0    0  0.13206498121E+03  0.17298468238E+02  0.44541252953E+03  0.46490076117E+03  0.00000000000E+00 0.  1.
</event>
<event>
 7    1  0.6219721E-006  0.1147700E+03  0.7818608E-02  0.1392647E+00
          2   -1    0    0  502    0  0.00000000000E+00  0.00000000000E+00  0.14998448287E+04  0.14998448287E+04  0.00000000000E+00 0. -1.
          1   -1    0    0  501    0 -0.00000000000E+00 -0.00000000000E+00 -0.40330016435E+03  0.40330016435E+03  0.00000000000E+00 0. -1.
         25    2    1    2    0    0  0.91604452409E+02  0.72635081179E+00  0.70158676164E+02  0.17011539806E+03  0.12500042212E+03 0.  0.
          2    1    1    2  501    0  0.21995331345E+02 -0.24184683065E+02 -0.35012097109E+03  0.35164383671E+03  0.00000000000E+00 0. -1.
          1    1    1    2  502    0 -0.11359978375E+03  0.23458332253E+02  0.13765069592E+04  0.13813857582E+04  0.00000000000E+00 0. -1.
         22    1    3    3    0    0  0.34660253989E+02 -0.10026634767E+02 -0.34858860481E+02  0.50169779404E+02  0.00000000000E+00 0. -1.
         22    1    3    3    0    0  0.56944198419E+02  0.10752985579E+02  0.10501753665E+03  0.11994561866E+03  0.00000000000E+00 0. -1.
</event>
<event>
 7    1  0.6219721E-006  0.1178161E+03  0.7818608E-02  0.1288520E+00
          2   -1    0    0  502    0  0.00000000000E+00  0.00000000000E+00  0.16475370513E+04  0.16475370513E+04  0.00000000000E+00 0. -1.
          1   -1    0    0  501    0 -0.00000000000E+00 -0.00000000000E+00 -0.69876246634E+03  0.69876246634E+03  0.00000000000E+00 0. -1.
         25    2    1    2    0    0  0.39582043263E+02 -0.80456595045E+02 -0.96132037184E+02  0.18140271404E+03  0.12500229699E+03 0.  0.
          2    1    1    2  501    0  0.26763790343E+02  0.12247426839E+03 -0.55200182113E+03  0.56605852826E+03  0.00000000000E+00 0. -1.
          1    1    1    2  502    0 -0.66345833606E+02 -0.42017673350E+02  0.15969084432E+04  0.15988382753E+04  0.00000000000E+00 0. -1.
         22    1    3    3    0    0 -0.30525067103E+02 -0.74572784671E+02 -0.33698244655E+02  0.87341007712E+02  0.00000000000E+00 0. -1.
         22    1    3    3    0    0  0.70107110366E+02 -0.58838103739E+01 -0.62433792529E+02  0.94061706331E+02  0.00000000000E+00 0. -1.
</event>
<event>
 7    1  0.6219721E-006  0.5475139E+02  0.7818608E-02  0.1458961E+00
          2   -1    0    0  502    0  0.00000000000E+00  0.00000000000E+00  0.11304994915E+03  0.11304994915E+03  0.00000000000E+00 0. -1.
          1   -1    0    0  501    0 -0.00000000000E+00 -0.00000000000E+00 -0.96829498639E+03  0.96829498639E+03  0.00000000000E+00 0. -1.
         25    2    1    2    0    0  0.85974086017E+01  0.27325976103E+02 -0.58491681670E+02  0.14094975849E+03  0.12499973276E+03 0.  0.
          2    1    1    2  501    0  0.26820006968E+02 -0.48597766580E+02 -0.86166500895E+03  0.86345100807E+03  0.00000000000E+00 0. -1.
          1    1    1    2  502    0 -0.35417415569E+02  0.21271790477E+02  0.64911653373E+02  0.76944168975E+02  0.00000000000E+00 0. -1.
         22    1    3    3    0    0  0.13102224483E+02 -0.45299340386E+02 -0.48251559621E+02  0.67467855544E+02  0.00000000000E+00 0.  1.
         22    1    3    3    0    0 -0.45048158811E+01  0.72625316489E+02 -0.10240122049E+02  0.73481902948E+02  0.00000000000E+00 0.  1.
</event>
<event>
 7    1  0.6219721E-006  0.1465594E+03  0.7818608E-02  0.1360038E+00
          2   -1    0    0  502    0  0.00000000000E+00  0.00000000000E+00  0.10208732248E+04  0.10208732248E+04  0.00000000000E+00 0. -1.
          1   -1    0    0  501    0 -0.00000000000E+00 -0.00000000000E+00 -0.16288730482E+04  0.16288730482E+04  0.00000000000E+00 0. -1.
         25    2    1    2    0    0  0.11573031328E+03  0.24521978846E+02 -0.44124282662E+03  0.47361755645E+03  0.12499409934E+03 0.  0.
          2    1    1    2  501    0  0.22742063411E+02  0.24528423402E+02 -0.11658317270E+04  0.11663114767E+04  0.00000000000E+00 0. -1.
          1    1    1    2  502    0 -0.13847237669E+03 -0.49050402248E+02  0.99907473025E+03  0.10098172398E+04  0.00000000000E+00 0. -1.
         22    1    3    3    0    0  0.11021493780E+01 -0.19404666975E+02 -0.21787694949E+03  0.21874213346E+03  0.00000000000E+00 0. -1.
         22    1    3    3    0    0  0.11462816390E+03  0.43926645822E+02 -0.22336587714E+03  0.25487542298E+03  0.00000000000E+00 0. -1.
</event>
<event>
 7    1  0.6219721E-006  0.1244988E+03  0.7818608E-02  0.1315441E+00
          2   -1    0    0  502    0  0.00000000000E+00  0.00000000000E+00  0.62549338376E+03  0.62549338376E+03  0.00000000000E+00 0. -1.
          1   -1    0    0  501    0 -0.00000000000E+00 -0.00000000000E+00 -0.37423896502E+03  0.37423896502E+03  0.00000000000E+00 0. -1.
         25    2    1    2    0    0 -0.64230424166E+02  0.25804976606E+02 -0.16903997837E+03  0.22133555965E+03  0.12499388573E+03 0.  0.
          2    1    1    2  501    0 -0.47498084092E+02  0.33334676989E+02 -0.16744560063E+03  0.17721539959E+03  0.00000000000E+00 0. -1.
          1    1    1    2  502    0  0.11172850826E+03 -0.59139653595E+02  0.58773999774E+03  0.60118138954E+03  0.00000000000E+00 0. -1.
         22    1    3    3    0    0 -0.44895541606E+02  0.31483273772E+02 -0.18667211640E+03  0.19455920751E+03  0.00000000000E+00 0.  1.
         22    1    3    3    0    0 -0.19334882560E+02 -0.56782971664E+01  0.17632138032E+02  0.26776352140E+02  0.00000000000E+00 0.  1.
</event>
<event>
 7    1  0.6219721E-006  0.5656579E+02  0.7818608E-02  0.1496118E+00
          2   -1    0    0  502    0  0.00000000000E+00  0.00000000000E+00  0.12624779539E+03  0.12624779539E+03  0.00000000000E+00 0. -1.
          1   -1    0    0  501    0 -0.00000000000E+00 -0.00000000000E+00 -0.13027011685E+04  0.13027011685E+04  0.00000000000E+00 0. -1.
         25    2    1    2    0    0 -0.34243373891E+02 -0.35507201133E+02 -0.12126424263E+04  0.12200654466E+04  0.12499867964E+03 0.  0.
          2    1    1    2  501    0  0.23270566994E+02 -0.20068813180E+02 -0.76673395437E+02  0.82601974059E+02  0.00000000000E+00 0. -1.
          1    1    1    2  502    0  0.10972806898E+02  0.55576014312E+02  0.11286244862E+03  0.12628154325E+03  0.00000000000E+00 0. -1.
         22    1    3    3    0    0 -0.74887110217E+02 -0.21844970979E+01 -0.89235262538E+03  0.89549207664E+03  0.00000000000E+00 0.  1.
         22    1    3    3    0    0  0.40643736326E+02 -0.33322704035E+02 -0.32028980093E+03  0.32457336996E+03  0.00000000000E+00 0.  1.
</event>
<event>
 7    1  0.6219721E-006  0.1635524E+03  0.7818608E-02  0.1222365E+00
          2   -1    0    0  502    0  0.00000000000E+00  0.00000000000E+00  0.28953265419E+04  0.28953265419E+04  0.00000000000E+00 0. -1.
          1   -1    0    0  501    0 -0.00000000000E+00 -0.00000000000E+00 -0.34117306859E+03  0.34117306859E+03  0.00000000000E+00 0. -1.
         25    2    1    2    0    0  0.20801898425E+03  0.40896245306E+02  0.84624859702E+03  0.88130912264E+03  0.12499872404E+03 0.  0.
          2    1    1    2  501    0 -0.57564060736E+02 -0.92507754617E+02 -0.31125555464E+03  0.32977465950E+03  0.00000000000E+00 0. -1.
          1    1    1    2  502    0 -0.15045492351E+03  0.51611509311E+02  0.20191604309E+04  0.20254158284E+04  0.00000000000E+00 0. -1.
         22    1    3    3    0    0  0.83194622086E+02 -0.43985691397E+02  0.28623989975E+03  0.30131273853E+03  0.00000000000E+00 0.  1.
         22    1    3    3    0    0  0.12482436216E+03  0.84881936703E+02  0.56000869727E+03  0.57999638412E+03  0.00000000000E+00 0.  1.
</event>
<event>
 7    1  0.6219721E-006  0.1035081E+03  0.7818608E-02  0.1390039E+00
          2   -1    0    0  502    0  0.00000000000E+00  0.00000000000E+00  0.35458520232E+04  0.35458520232E+04  0.00000000000E+00 0. -1.
          1   -1    0    0  501    0 -0.00000000000E+00 -0.00000000000E+00 -0.10813027792E+03  0.10813027792E+03  0.00000000000E+00 0. -1.
         25    2    1    2    0    0  0.82108251350E+02 -0.61794120160E+02  0.10557503493E+04  0.10680803216E+04  0.12500598033E+03 0.  0.
          2    1    1    2  501    0 -0.25884767893E+02 -0.26457534726E+02 -0.97465966449E+02  0.10425755113E+03  0.00000000000E+00 0. -1.
          1    1    1    2  502    0 -0.56223483457E+02  0.88251654886E+02  0.24794373624E+04  0.24816444283E+04  0.00000000000E+00 0. -1.
         22    1    3    3    0    0  0.46300151198E+02 -0.62832189542E+02  0.25850177369E+03  0.27002732277E+03  0.00000000000E+00 0. -1.
         22    1    3    3    0    0  0.35808100152E+02  0.10380693817E+01  0.79724857563E+03  0.79805299885E+03  0.00000000000E+00 0. -1.
</event>
<event>
 7    1  0.6219721E-006  0.4508745E+03  0.7818608E-02  0.1183269E+00
          2   -1    0    0  502    0  0.00000000000E+00  0.00000000000E+00  0.16016299976E+04  0.16016299976E+04  0.00000000000E+00 0. -1.
          1   -1    0    0  501    0 -0.00000000000E+00 -0.00000000000E+00 -0.16982962181E+04  0.16982962181E+04  0.00000000000E+00 0. -1.
         25    2    1    2    0    0 -0.68015396552E+02 -0.47267694189E+03  0.76332791768E+03  0.90903824255E+03  0.12502572118E+03 0.  0.
          2    1    1    2  501    0 -0.27112906489E+02  0.53874478840E+02 -0.15645733531E+04  0.15657354011E+04  0.00000000000E+00 0. -1.
          1    1    1    2  502    0  0.95128303042E+02  0.41880246305E+03  0.70457921485E+03  0.82515257201E+03  0.00000000000E+00 0. -1.
         22    1    3    3    0    0 -0.78704147167E+02 -0.35975360622E+03  0.65905718328E+03  0.75496580771E+03  0.00000000000E+00 0. -1.
         22    1    3    3    0    0  0.10688750614E+02 -0.11292333567E+03  0.10427073440E+03  0.15407243485E+03  0.00000000000E+00 0. -1.
</event>
<event>
 7    1  0.6219721E-006  0.1707798E+03  0.7818608E-02  0.1268617E+00
          2   -1    0    0  502    0  0.00000000000E+00  0.00000000000E+00  0.19286317130E+03  0.19286317130E+03  0.00000000000E+00 0. -1.
          1   -1    0    0  501    0 -0.00000000000E+00 -0.00000000000E+00 -0.12046946047E+04  0.12046946047E+04  0.00000000000E+00 0. -1.
         25    2    1    2    0    0 -0.14732554491E+03  0.12369485057E+03 -0.49286218033E+03  0.54363906436E+03  0.12500028502E+03 0.  0.
          2    1    1    2  501    0  0.84423676396E+02 -0.14196845802E+03 -0.66959517359E+03  0.68966665622E+03  0.00000000000E+00 0. -1.
          1    1    1    2  502    0  0.62901868514E+02  0.18273607452E+02  0.15062592050E+03  0.16425205545E+03  0.00000000000E+00 0. -1.
         22    1    3    3    0    0  0.17239667460E+02 -0.76072700281E+01 -0.37718376209E+02  0.42163403506E+02  0.00000000000E+00 0. -1.
         22    1    3    3    0    0 -0.16456521237E+03  0.13130212060E+03 -0.45514380412E+03  0.50147566085E+03  0.00000000000E+00 0. -1.
</event>
<event>
 7    1  0.6219721E-006  0.1370545E+03  0.7818608E-02  0.1307854E+00
          2   -1    0    0  502    0  0.00000000000E+00  0.00000000000E+00  0.21895155689E+04  0.21895155689E+04  0.00000000000E+00 0. -1.
          1   -1    0    0  501    0 -0.00000000000E+00 -0.00000000000E+00 -0.19292132095E+03  0.19292132095E+03  0.00000000000E+00 0. -1.
         25    2    1    2    0    0  0.30334711575E+02  0.13426732378E+03  0.56092781287E+03  0.59094336251E+03  0.12500454982E+03 0.  0.
          2    1    1    2  501    0 -0.81636262431E+02 -0.11069267692E+03 -0.15075391531E+03  0.20406883899E+03  0.00000000000E+00 0. -1.
          1    1    1    2  502    0  0.51301550856E+02 -0.23574646866E+02  0.15864203503E+04  0.15874246883E+04  0.00000000000E+00 0. -1.
         22    1    3    3    0    0  0.28093861588E+02  0.13708635905E+03  0.31148445765E+03  0.34147401402E+03  0.00000000000E+00 0. -1.
         22    1    3    3    0    0  0.22408499867E+01 -0.28190352648E+01  0.24944335523E+03  0.24946934849E+03  0.00000000000E+00 0. -1.
</event>
<event>
 7    1  0.6219721E-006  0.6446929E+02  0.7818608E-02  0.1472497E+00
          2   -1    0    0  502    0  0.00000000000E+00  0.00000000000E+00  0.22073387624E+04  0.22073387624E+04  0.00000000000E+00 0. -1.
          1   -1    0    0  501    0 -0.00000000000E+00 -0.00000000000E+00 -0.63511575553E+02  0.63511575553E+02  0.00000000000E+00 0. -1.
         25    2    1    2    0    0  0.52818551272E+02 -0.71782030247E+02  0.26871915587E+03  0.30948081829E+03  0.12500373167E+03 0.  0.
          2    1    1    2  501    0 -0.30732996454E+01  0.31677304097E+02 -0.36652310635E+02  0.48541617613E+02  0.00000000000E+00 0. -1.
          1    1    1    2  502    0 -0.49745251627E+02  0.40104726150E+02  0.19117603416E+04  0.19128279020E+04  0.00000000000E+00 0. -1.
         22    1    3    3    0    0  0.78311691963E+02 -0.63152304820E+01  0.10347496967E+03  0.12992179410E+03  0.00000000000E+00 0. -1.
         22    1    3    3    0    0 -0.25493140691E+02 -0.65466799765E+02  0.16524418620E+03  0.17955902419E+03  0.00000000000E+00 0. -1.
</event>
<event>
 7    1  0.6219721E-006  0.9987882E+02  0.7818608E-02  0.1330444E+00
          2   -1    0    0  502    0  0.00000000000E+00  0.00000000000E+00  0.41621271500E+02  0.41621271500E+02  0.00000000000E+00 0. -1.
          1   -1    0    0  501    0 -0.00000000000E+00 -0.00000000000E+00 -0.26179462276E+04  0.26179462276E+04  0.00000000000E+00 0. -1.
         25    2    1    2    0    0 -0.55802456912E+02  0.89337905020E+02 -0.86925921847E+03  0.88449573222E+03  0.12500374377E+03 0.  0.
          2    1    1    2  501    0 -0.37596580534E+02 -0.50921645480E+02 -0.16641288978E+04  0.16653322507E+04  0.00000000000E+00 0. -1.
          1    1    1    2  502    0  0.93399037446E+02 -0.38416259540E+02 -0.42936839866E+02  0.10973951618E+03  0.00000000000E+00 0. -1.
         22    1    3    3    0    0 -0.10902943655E+02  0.31313745902E+02 -0.69010066174E+03  0.69089677102E+03  0.00000000000E+00 0. -1.
         22    1    3    3    0    0 -0.44899513257E+02  0.58024159118E+02 -0.17915855672E+03  0.19359896120E+03  0.00000000000E+00 0. -1.
</event>
<event>
 7    1  0.6219721E-006  0.8117907E+02  0.7818608E-02  0.1354463E+00
          2   -1    0    0  502    0  0.00000000000E+00  0.00000000000E+00  0.40101123426E+04  0.40101123426E+04  0.00000000000E+00 0. -1.
          1   -1    0    0  501    0 -0.00000000000E+00 -0.00000000000E+00 -0.38395578628E+02  0.38395578628E+02  0.00000000000E+00 0. -1.
         25    2    1    2    0    0  0.75568625312E+01 -0.23136688716E+02  0.43999114394E+03  0.45804987394E+03  0.12500027093E+03 0.  0.
          2    1    1    2  501    0  0.50262828950E+02 -0.38472945403E+02  0.58462672702E+01  0.63566487578E+02  0.00000000000E+00 0. -1.
          1    1    1    2  502    0 -0.57819691481E+02  0.61609634118E+02  0.35258793528E+04  0.35268915598E+04  0.00000000000E+00 0. -1.
         22    1    3    3    0    0  0.31027788086E+02  0.28483816266E+02  0.56945749087E+02  0.70829864899E+02  0.00000000000E+00 0.  1.
         22    1    3    3    0    0 -0.23470925554E+02 -0.51620504982E+02  0.38304539486E+03  0.38722000904E+03  0.00000000000E+00 0.  1.
</event>
<event>
 7    1  0.6219721E-006  0.9259638E+02  0.7818608E-02  0.1365436E+00
          2   -1    0    0  502    0  0.00000000000E+00  0.00000000000E+00  0.24111546014E+03  0.24111546014E+03  0.00000000000E+00 0. -1.
          1   -1    0    0  501    0 -0.00000000000E+00 -0.00000000000E+00 -0.49018346510E+03  0.49018346510E+03  0.00000000000E+00 0. -1.
         25    2    1    2    0    0 -0.48047067584E+02  0.48691237364E+02  0.10171977027E+02  0.14286046021E+03  0.12500513859E+03 0.  0.
          2    1    1    2  501    0  0.91976175347E+02 -0.23571680432E+02 -0.41445017504E+03  0.42518723939E+03  0.00000000000E+00 0. -1.
          1    1    1    2  502    0 -0.43929107763E+02 -0.25119556932E+02  0.15521019305E+03  0.16325122565E+03  0.00000000000E+00 0. -1.
         22    1    3    3    0    0 -0.38515951295E+02 -0.29399137646E+02  0.35663395915E+02  0.60163656859E+02  0.00000000000E+00 0.  1.
         22    1    3    3    0    0 -0.95311162890E+01  0.78090375010E+02 -0.25491418888E+02  0.82696803347E+02  0.00000000000E+00 0.  1.
</event>
<event>
 7    1  0.6219721E-006  0.1440236E+03  0.7818608E-02  0.1316393E+00
          2   -1    0    0  502    0  0.00000000000E+00  0.00000000000E+00  0.25143106507E+04  0.25143106507E+04  0.00000000000E+00 0. -1.
          1   -1    0    0  501    0 -0.00000000000E+00 -0.00000000000E+00 -0.69219878966E+03  0.69219878966E+03  0.00000000000E+00 0. -1.
         25    2    1    2    0    0  0.15920845217E+03 -0.10764214948E+03  0.11542044755E+03  0.25667465118E+03  0.12500333298E+03 0.  0.
          2    1    1    2  501    0 -0.39721109628E+02  0.29928638144E+02 -0.61839087303E+03  0.62038758996E+03  0.00000000000E+00 0. -1.
          1    1    1    2  502    0 -0.11948734254E+03  0.77713511334E+02  0.23250822865E+04  0.23294471992E+04  0.00000000000E+00 0. -1.
         22    1    3    3    0    0  0.99568252553E+02 -0.36426086489E+02 -0.31274393235E+01  0.10606826844E+03  0.00000000000E+00 0.  1.
         22    1    3    3    0    0  0.59640199615E+02 -0.71216062989E+02  0.11854788688E+03  0.15060638274E+03  0.00000000000E+00 0.  1.
</event>
<event>
 7    1  0.6219721E-006  0.1494730E+03  0.7818608E-02  0.1269163E+00
          2   -1    0    0  502    0  0.00000000000E+00  0.00000000000E+00  0.54102284170E+03  0.54102284170E+03  0.00000000000E+00 0. -1.
          1   -1    0    0  501    0 -0.00000000000E+00 -0.00000000000E+00 -0.99340658997E+02  0.99340658997E+02  0.00000000000E+00 0. -1.
         25    2    1    2    0    0  0.34813762258E+02  0.10816991513E+03  0.13221016586E+03  0.21451536443E+03  0.12499834014E+03 0.  0.
          2    1    1    2  501    0 -0.83004588271E+02 -0.16491224496E+03  0.11474459352E+03  0.21737555510E+03  0.00000000000E+00 0. -1.
          1    1    1    2  502    0  0.48190826013E+02  0.56742329837E+02  0.19472742332E+03  0.20847258117E+03  0.00000000000E+00 0. -1.
         22    1    3    3    0    0 -0.42629186282E+02  0.66186554090E+02  0.45604481001E+02  0.90981735270E+02  0.00000000000E+00 0. -1.
         22    1    3    3    0    0  0.77442948539E+02  0.41983361036E+02  0.86605684862E+02  0.12353362916E+03  0.00000000000E+00 0. -1.
</event>
<event>
 7    1  0.6219721E-006  0.1196231E+03  0.7818608E-02  0.1376995E+00
          2   -1    0    0  502    0  0.00000000000E+00  0.00000000000E+00  0.31616555086E+03  0.31616555086E+03  0.00000000000E+00 0. -1.
          1   -1    0    0  501    0 -0.00000000000E+00 -0.00000000000E+00 -0.80689139913E+03  0.80689139913E+03  0.00000000000E+00 0. -1.
         25    2    1    2    0    0 -0.69282934252E+02 -0.52339292105E+02  0.53578790484E+02  0.16136225769E+03  0.12501025935E+03 0.  0.
          2    1    1    2  501    0  0.10302154283E+03  0.63708793613E+02 -0.74656351830E+03  0.75632620973E+03  0.00000000000E+00 0. -1.
          1    1    1    2  502    0 -0.33738608580E+02 -0.11369501508E+02  0.20225887955E+03  0.20536848256E+03  0.00000000000E+00 0. -1.
         22    1    3    3    0    0 -0.56552677864E+02  0.33193007671E+02  0.26762977856E+02  0.70825405863E+02  0.00000000000E+00 0. -1.
         22    1    3    3    0    0 -0.12730256387E+02 -0.85532299776E+02  0.26815812627E+02  0.90536851832E+02  0.00000000000E+00 0. -1.
</event>
<event>
 7    1  0.6219721E-006  0.2319635E+02  0.7818608E-02  0.1701804E+00
          2   -1    0    0  502    0  0.00000000000E+00  0.00000000000E+00  0.85487674292E+03  0.85487674292E+03  0.00000000000E+00 0. -1.
          1   -1    0    0  501    0 -0.00000000000E+00 -0.00000000000E+00 -0.16714300396E+03  0.16714300396E+03  0.00000000000E+00 0. -1.
         25    2    1    2    0    0  0.28321924937E+01 -0.42263409808E+01  0.39128824387E+02  0.13108388547E+03  0.12500414737E+03 0.  0.
          2    1    1    2  501    0  0.11201125970E+02  0.20630285792E+02 -0.11987544609E+03  0.12215234951E+03  0.00000000000E+00 0. -1.
          1    1    1    2  502    0 -0.14033318464E+02 -0.16403944811E+02  0.76848036067E+03  0.76878351190E+03  0.00000000000E+00 0. -1.
         22    1    3    3    0    0  0.36039565352E+01 -0.41423480993E+02  0.70877548613E+02  0.82173719507E+02  0.00000000000E+00 0.  1.
         22    1    3    3    0    0 -0.77176404153E+00  0.37197140012E+02 -0.31748724226E+02  0.48910165966E+02  0.00000000000E+00 0.  1.
</event>
<event>
 7    1  0.6219721E-006  0.6145578E+02  0.7818608E-02  0.1463758E+00
          2   -1    0    0  502    0  0.00000000000E+00  0.00000000000E+00  0.35348088661E+04  0.35348088661E+04  0.00000000000E+00 0. -1.
          1   -1    0    0  501    0 -0.00000000000E+00 -0.00000000000E+00 -0.13803298493E+03  0.13803298493E+03  0.00000000000E+00 0. -1.
         25    2    1    2    0    0  0.27107611989E+02  0.28240958548E+02  0.65396302955E+03  0.66695178446E+03  0.12499865764E+03 0.  0.
          2    1    1    2  501    0  0.33588972406E+02 -0.11641258320E+02 -0.12878577699E+03  0.13360207452E+03  0.00000000000E+00 0. -1.
          1    1    1    2  502    0 -0.60696584396E+02 -0.16599700228E+02  0.28715986287E+04  0.28722879921E+04  0.00000000000E+00 0. -1.
         22    1    3    3    0    0  0.48687009691E+02 -0.35261844679E+02  0.23048949748E+03  0.23819998122E+03  0.00000000000E+00 0.  1.
         22    1    3    3    0    0 -0.21579397701E+02  0.63502803227E+02  0.42347353207E+03  0.42875180324E+03  0.00000000000E+00 0.  1.
</event>
<event>
 7    1  0.6219721E-006  0.5295246E+02  0.7818608E-02  0.1451810E+00
          2   -1    0    0  502    0  0.00000000000E+00  0.00000000000E+00  0.11380811145E+04  0.11380811145E+04  0.00000000000E+00 0. -1.
          1   -1    0    0  501    0 -0.00000000000E+00 -0.00000000000E+00 -0.11868768852E+03  0.11868768852E+03  0.00000000000E+00 0. -1.
         25    2    1    2    0    0 -0.81912301774E+01 -0.21397304098E+02  0.17564476789E+03  0.21679814236E+03  0.12500163668E+03 0.  0.
          2    1    1    2  501    0  0.52612279370E+02  0.14135817935E+02 -0.89964309134E+02  0.10517342919E+03  0.00000000000E+00 0. -1.
          1    1    1    2  502    0 -0.44421049193E+02  0.72614861632E+01  0.93371296719E+03  0.93479723143E+03  0.00000000000E+00 0. -1.
         22    1    3    3    0    0 -0.77002863686E+01  0.41798765478E+02  0.16549899671E+02  0.45610638943E+02  0.00000000000E+00 0.  1.
         22    1    3    3    0    0 -0.49094380883E+00 -0.63196069576E+02  0.15909486821E+03  0.17118750342E+03  0.00000000000E+00 0.  1.
</event>
<event>
 7    1  0.6219721E-006  0.1675028E+03  0.7818608E-02  0.1288776E+00
          2   -1    0    0  502    0  0.00000000000E+00  0.00000000000E+00  0.19607274652E+04  0.19607274652E+04  0.00000000000E+00 0. -1.
          1   -1    0    0  501    0 -0.00000000000E+00 -0.00000000000E+00 -0.98539352563E+03  0.98539352563E+03  0.00000000000E+00 0. -1.
         25    2    1    2    0    0 -0.17252864302E+03 -0.11547004578E+03  0.78277851157E+03  0.81943054735E+03  0.12499903847E+03 0.  0.
          2    1    1    2  501    0  0.33861150327E+02  0.43473535114E+02 -0.96101168741E+03  0.96259024985E+03  0.00000000000E+00 0. -1.
          1    1    1    2  502    0  0.13866749269E+03  0.71996510669E+02  0.11535671155E+04  0.11641001937E+04  0.00000000000E+00 0. -1.
         22    1    3    3    0    0 -0.86955402630E+02  0.46517915625E+01  0.39659429026E+03  0.40604176174E+03  0.00000000000E+00 0. -1.
         22    1    3    3    0    0 -0.85573240387E+02 -0.12012183734E+03  0.38618422131E+03  0.41338878560E+03  0.00000000000E+00 0. -1.
</event>
<event>
 7    1  0.6219721E-006  0.7797829E+02  0.7818608E-02  0.1495825E+00
          2   -1    0    0  502    0  0.00000000000E+00  0.00000000000E+00  0.97530968492E+03  0.97530968492E+03  0.00000000000E+00 0. -1.
          1   -1    0    0  501    0 -0.00000000000E+00 -0.00000000000E+00 -0.77821207966E+02  0.77821207966E+02  0.00000000000E+00 0. -1.
         25    2    1    2    0    0  0.65370458560E+02  0.51985521122E+02  0.18613658052E+03  0.23926663522E+03  0.12500361942E+03 0.  0.
          2    1    1    2  501    0 -0.71340181485E+02 -0.30461956832E+02 -0.21638926491E+02  0.80533194696E+02  0.00000000000E+00 0. -1.
          1    1    1    2  502    0  0.59697229249E+01 -0.21523564290E+02  0.73299082293E+03  0.73333106297E+03  0.00000000000E+00 0. -1.
         22    1    3    3    0    0  0.29638463678E+02  0.10891377330E+02  0.18192786664E+03  0.18464779796E+03  0.00000000000E+00 0. -1.
         22    1    3    3    0    0  0.35731994882E+02  0.41094143792E+02  0.42087138752E+01  0.54618837270E+02  0.00000000000E+00 0. -1.
</event>
<event>
 7    1  0.6219721E-006  0.1189110E+03  0.7818608E-02  0.1340329E+00
          2   -1    0    0  502    0  0.00000000000E+00  0.00000000000E+00  0.24781053814E+04  0.24781053814E+04  0.00000000000E+00 0. -1.
          1   -1    0    0  501    0 -0.00000000000E+00 -0.00000000000E+00 -0.43277215577E+03  0.43277215577E+03  0.00000000000E+00 0. -1.
         25    2    1    2    0    0 -0.34706699880E+02  0.71860852847E+02  0.34508343228E+03  0.37560348737E+03  0.12500746896E+03 0.  0.
          2    1    1    2  501    0 -0.41485407013E+02  0.25647545884E+02 -0.41427259545E+03  0.41713381420E+03  0.00000000000E+00 0. -1.
          1    1    1    2  502    0  0.76192106893E+02 -0.97508398731E+02  0.21145223888E+04  0.21181402356E+04  0.00000000000E+00 0. -1.
         22    1    3    3    0    0  0.45479591831E+02  0.40804578275E+02  0.12015903098E+03  0.13480207568E+03  0.00000000000E+00 0. -1.
         22    1    3    3    0    0 -0.80186291711E+02  0.31056274572E+02  0.22492440130E+03  0.24080141169E+03  0.00000000000E+00 0. -1.
</event>
<event>
 7    1  0.6219721E-006  0.8177200E+02  0.7818608E-02  0.1400457E+00
          2   -1    0    0  502    0  0.00000000000E+00  0.00000000000E+00  0.50129189912E+03  0.50129189912E+03  0.00000000000E+00 0. -1.
          1   -1    0    0  501    0 -0.00000000000E+00 -0.00000000000E+00 -0.14306199106E+03  0.14306199106E+03  0.00000000000E+00 0. -1.
         25    2    1    2    0    0  0.65748226974E+02 -0.62065215599E+02  0.29229674138E+03  0.33051027986E+03  0.12499895892E+03 0.  0.
          2    1    1    2  501    0 -0.79094197970E+02  0.21064500057E+02 -0.10750943208E+03  0.13512173512E+03  0.00000000000E+00 0. -1.
          1    1    1    2  502    0  0.13345970996E+02  0.41000715542E+02  0.17344259876E+03  0.17872187521E+03  0.00000000000E+00 0. -1.
         22    1    3    3    0    0  0.91143353031E+02 -0.46441117934E+02  0.12961119678E+03  0.16511496167E+03  0.00000000000E+00 0. -1.
         22    1    3    3    0    0 -0.25395126057E+02 -0.15624097665E+02  0.16268554460E+03  0.16539531819E+03  0.00000000000E+00 0. -1.
</event>
<event>
 7    1  0.6219721E-006  0.7801489E+02  0.7818608E-02  0.1380051E+00
          2   -1    0    0  502    0  0.00000000000E+00  0.00000000000E+00  0.21463741930E+03  0.21463741930E+03  0.00000000000E+00 0. -1.
          1   -1    0    0  501    0 -0.00000000000E+00 -0.00000000000E+00 -0.31986337954E+03  0.31986337954E+03  0.00000000000E+00 0. -1.
         25    2    1    2    0    0  0.93258476322E+02  0.69330589115E+02 -0.55538209134E+02  0.17948256694E+03  0.12500250065E+03 0.  0.
          2    1    1    2  501    0 -0.20540747807E+02 -0.49122489663E+02 -0.18911874108E+03  0.19647096360E+03  0.00000000000E+00 0. -1.
          1    1    1    2  502    0 -0.72717728515E+02 -0.20208099452E+02  0.13943098997E+03  0.15854726831E+03  0.00000000000E+00 0. -1.
         22    1    3    3    0    0  0.61765982831E+02  0.87409754247E+02  0.69000781588E+01  0.10725256571E+03  0.00000000000E+00 0.  1.
         22    1    3    3    0    0  0.31492493491E+02 -0.18079165132E+02 -0.62438287292E+02  0.72230001233E+02  0.00000000000E+00 0.  1.
</event>
<event>
 7    1  0.6219721E-006  0.7616809E+02  0.7818608E-02  0.1403090E+00
          2   -1    0    0  502    0  0.00000000000E+00  0.00000000000E+00  0.20535183006E+04  0.20535183006E+04  0.00000000000E+00 0. -1.
          1   -1    0    0  501    0 -0.00000000000E+00 -0.00000000000E+00 -0.24947968152E+03  0.24947968152E+03  0.00000000000E+00 0. -1.
         25    2    1    2    0    0 -0.50349841256E+02  0.68094644829E+02  0.83338598583E+02  0.17245457447E+03  0.12499308411E+03 0.  0.
          2    1    1    2  501    0  0.44638680884E+02  0.79316494339E+01 -0.20164909036E+03  0.20668303882E+03  0.00000000000E+00 0. -1.
          1    1    1    2  502    0  0.57111603719E+01 -0.76026294262E+02  0.19223491108E+04  0.19238603688E+04  0.00000000000E+00 0. -1.
         22    1    3    3    0    0 -0.50101024179E+02 -0.26221526560E+02  0.27975356488E+02  0.63089631870E+02  0.00000000000E+00 0.  1.
         22    1    3    3    0    0 -0.24881707678E+00  0.94316171388E+02  0.55363242095E+02  0.10936494260E+03  0.00000000000E+00 0.  1.
</event>
<event>
 7    1  0.6219721E-006  0.1893993E+03  0.7818608E-02  0.1217613E+00
          2   -1    0    0  502    0  0.00000000000E+00  0.00000000000E+00  0.31191091537E+03  0.31191091537E+03  0.00000000000E+00 0. -1.
          1   -1    0    0  501    0 -0.00000000000E+00 -0.00000000000E+00 -0.19447085412E+04  0.19447085412E+04  0.00000000000E+00 0. -1.
         25    2    1    2    0    0  0.23023765374E+03  0.96516735302E+02 -0.28300333815E+03  0.39754201005E+03  0.12499561174E+03 0.  0.
          2    1    1    2  501    0 -0.18481399496E+03 -0.86651217492E+01 -0.15892595361E+04  0.15999928657E+04  0.00000000000E+00 0. -1.
          1    1    1    2  502    0 -0.45423658780E+02 -0.87851613552E+02  0.23946524848E+03  0.25908458080E+03  0.00000000000E+00 0. -1.
         22    1    3    3    0    0  0.80147762805E+02  0.90092805690E+02 -0.78861223587E+02  0.14408147037E+03  0.00000000000E+00 0.  1.
         22    1    3    3    0    0  0.15008989093E+03  0.64239296113E+01 -0.20414211456E+03  0.25346053967E+03  0.00000000000E+00 0.  1.
</event>
<event>
 7    1  0.6219721E-006  0.1155939E+03  0.7818608E-02  0.1389964E+00
          2   -1    0    0  502    0  0.00000000000E+00  0.00000000000E+00  0.20647325358E+04  0.20647325358E+04  0.00000000000E+00 0. -1.
          1   -1    0    0  501    0 -0.00000000000E+00 -0.00000000000E+00 -0.76364291477E+03  0.76364291477E+03  0.00000000000E+00 0. -1.
         25    2    1    2    0    0  0.17992377699E+02 -0.13958013468E+03  0.10074257084E+04  0.10248601748E+04  0.12500192127E+03 0.  0.
          2    1    1    2  501    0 -0.25220653702E+01  0.33067961079E+02 -0.75179730922E+03  0.75252843469E+03  0.00000000000E+00 0. -1.
          1    1    1    2  502    0 -0.15470312329E+02  0.10651217360E+03  0.10454612219E+04  0.10509868411E+04  0.00000000000E+00 0. -1.
         22    1    3    3    0    0  0.66191298044E+02 -0.10705545782E+03  0.78155610108E+03  0.79162623638E+03  0.00000000000E+00 0. -1.
         22    1    3    3    0    0 -0.48198920345E+02 -0.32524676856E+02  0.22586960729E+03  0.23323393840E+03  0.00000000000E+00 0. -1.
</event>
<event>
 7    1  0.6219721E-006  0.2781071E+02  0.7818608E-02  0.1629757E+00
          2   -1    0    0  502    0  0.00000000000E+00  0.00000000000E+00  0.21599269076E+04  0.21599269076E+04  0.00000000000E+00 0. -1.
          1   -1    0    0  501    0 -0.00000000000E+00 -0.00000000000E+00 -0.98715498495E+03  0.98715498495E+03  0.00000000000E+00 0. -1.
         25    2    1    2    0    0  0.24960254188E+02 -0.48162502071E+02  0.44497767536E+03  0.46537349334E+03  0.12499886336E+03 0.  0.
          2    1    1    2  501    0 -0.15598259147E+02  0.23010867450E+02 -0.97665365981E+03  0.97704921929E+03  0.00000000000E+00 0. -1.
          1    1    1    2  502    0 -0.93619950404E+01  0.25151634621E+02  0.17044479071E+04  0.17046591799E+04  0.00000000000E+00 0. -1.
         22    1    3    3    0    0  0.67221397718E+02 -0.20719995769E+02  0.14463550815E+03  0.16083365554E+03  0.00000000000E+00 0. -1.
         22    1    3    3    0    0 -0.42261143531E+02 -0.27442506302E+02  0.30034216721E+03  0.30453983780E+03  0.00000000000E+00 0. -1.
</event>
<event>
 7    1  0.6219721E-006  0.1174195E+03  0.7818608E-02  0.1332318E+00
          2   -1    0    0  502    0  0.00000000000E+00  0.00000000000E+00  0.84982106838E+02  0.84982106838E+02  0.00000000000E+00 0. -1.
          1   -1    0    0  501    0 -0.00000000000E+00 -0.00000000000E+00 -0.20217202661E+04  0.20217202661E+04  0.00000000000E+00 0. -1.
         25    2    1    2    0    0 -0.49142093162E+02 -0.99861117353E+02 -0.13312615587E+04  0.13417411606E+04  0.12499926459E+03 0.  0.
          2    1    1    2  501    0  0.57644670017E+01  0.13024948007E+03 -0.66938238273E+03  0.68196109159E+03  0.00000000000E+00 0. -1.
          1    1    1    2  502    0  0.43377626160E+02 -0.30388362718E+02  0.63905782230E+02  0.83000120738E+02  0.00000000000E+00 0. -1.
         22    1    3    3    0    0 -0.90458538336E+02 -0.82492867021E+02 -0.99697088293E+03  0.10044594375E+04  0.00000000000E+00 0. -1.
         22    1    3    3    0    0  0.41316445175E+02 -0.17368250332E+02 -0.33429067581E+03  0.33728172304E+03  0.00000000000E+00 0. -1.
</event>
<event>
 7    1  0.6219721E-006  0.2484129E+02  0.7818608E-02  0.1664803E+00
          2   -1    0    0  502    0  0.00000000000E+00  0.00000000000E+00  0.34585066794E+03  0.34585066794E+03  0.00000000000E+00 0. -1.
          1   -1    0    0  501    0 -0.00000000000E+00 -0.00000000000E+00 -0.11136069470E+03  0.11136069470E+03  0.00000000000E+00 0. -1.
         25    2    1    2    0    0 -0.99572715170E+01  0.74608282461E+00  0.13864986455E+03  0.18694322955E+03  0.12499712892E+03 0.  0.
          2    1    1    2  501    0  0.79335149926E+01  0.23804574778E+02 -0.84554679592E+02  0.88199162589E+02  0.00000000000E+00 0. -1.
          1    1    1    2  502    0  0.20237565243E+01 -0.24550657602E+02  0.18039478828E+03  0.18206897050E+03  0.00000000000E+00 0. -1.
         22    1    3    3    0    0  0.26701617679E+02 -0.41334911880E+02  0.11727454022E+03  0.12718045884E+03  0.00000000000E+00 0.  1.
         22    1    3    3    0    0 -0.36658889196E+02  0.42080994705E+02  0.21375324330E+02  0.59762770708E+02  0.00000000000E+00 0.  1.
</event>
<event>
 7    1  0.6219721E-006  0.1289428E+03  0.7818608E-02  0.1279340E+00
          2   -1    0    0  502    0  0.00000000000E+00  0.00000000000E+00  0.12661631825E+04  0.12661631825E+04  0.00000000000E+00 0. -1.
          1   -1    0    0  501    0 -0.00000000000E+00 -0.00000000000E+00 -0.59261252834E+03  0.59261252834E+03  0.00000000000E+00 0. -1.
         25    2    1    2    0    0 -0.45414609248E+02 -0.46093387905E+02  0.17165919398E+03  0.22198891894E+03  0.12500045645E+03 0.  0.
          2    1    1    2  501    0 -0.33763134843E+02 -0.70604979145E+02 -0.56006544964E+03  0.56550713544E+03  0.00000000000E+00 0. -1.
          1    1    1    2  502    0  0.79177744091E+02  0.11669836705E+03  0.10619569099E+04  0.10712796565E+04  0.00000000000E+00 0. -1.
         22    1    3    3    0    0 -0.59065224808E+02 -0.61199404476E+02  0.50049127771E+02  0.98686286183E+02  0.00000000000E+00 0. -1.
         22    1    3    3    0    0  0.13650615561E+02  0.15106016572E+02  0.12161006621E+03  0.12330263276E+03  0.00000000000E+00 0. -1.
</event>
<event>
 7    1  0.6219721E-006  0.5780366E+02  0.7818608E-02  0.1488702E+00
          2   -1    0    0  502    0  0.00000000000E+00  0.00000000000E+00  0.15718348298E+04  0.15718348298E+04  0.00000000000E+00 0. -1.
          1   -1    0    0  501    0 -0.00000000000E+00 -0.00000000000E+00 -0.12077440428E+04  0.12077440428E+04  0.00000000000E+00 0. -1.
         25    2    1    2    0    0  0.61728613959E+02 -0.64041329622E+02 -0.25186321792E+02  0.15547176102E+03  0.12500161594E+03 0.  0.
          2    1    1    2  501    0 -0.19197245934E+02  0.25175549184E+02 -0.11166397669E+04  0.11170884976E+04  0.00000000000E+00 0. -1.
          1    1    1    2  502    0 -0.42531368025E+02  0.38865780438E+02  0.15059168757E+04  0.15070186139E+04  0.00000000000E+00 0. -1.
         22    1    3    3    0    0  0.68848827710E+02  0.17901287396E+02 -0.10181070242E+02  0.71862864949E+02  0.00000000000E+00 0.  1.
         22    1    3    3    0    0 -0.71202137502E+01 -0.81942617018E+02 -0.15005251550E+02  0.83608896068E+02  0.00000000000E+00 0.  1.
</event>
<event>
 7    1  0.6219721E-006  0.5129363E+02  0.7818608E-02  0.1507312E+00
          2   -1    0    0  502    0  0.00000000000E+00  0.00000000000E+00  0.96694238341E+03  0.96694238341E+03  0.00000000000E+00 0. -1.
          1   -1    0    0  501    0 -0.00000000000E+00 -0.00000000000E+00 -0.53155719120E+02  0.53155719120E+02  0.00000000000E+00 0. -1.
         25    2    1    2    0    0 -0.77746818992E+02 -0.20077760378E+02  0.14023533363E+03  0.20430148493E+03  0.12500185447E+03 0.  0.
          2    1    1    2  501    0  0.27393112848E+02  0.15316350426E+02 -0.81783928284E+01  0.32432380905E+02  0.00000000000E+00 0. -1.
          1    1    1    2  502    0  0.50353706144E+02  0.47614099515E+01  0.78172972349E+03  0.78336423669E+03  0.00000000000E+00 0. -1.
         22    1    3    3    0    0 -0.75809568090E+02  0.34684910601E+02  0.45801097270E+02  0.95120314069E+02  0.00000000000E+00 0.  1.
         22    1    3    3    0    0 -0.19372509020E+01 -0.54762670979E+02  0.94434236362E+02  0.10918117086E+03  0.00000000000E+00 0.  1.
</event>
<event>
 7    1  0.6219721E-006  0.7428101E+02  0.7818608E-02  0.1407907E+00
          2   -1    0    0  502    0  0.00000000000E+00  0.00000000000E+00  0.56976744677E+03  0.56976744677E+03  0.00000000000E+00 0. -1.
          1   -1    0    0  501    0 -0.00000000000E+00 -0.00000000000E+00 -0.11815080019E+04  0.11815080019E+04  0.00000000000E+00 0. -1.
         25    2    1    2    0    0 -0.28708240372E+02  0.61607218476E+02  0.11872698128E+03  0.18531214736E+03  0.12499953377E+03 0.  0.
          2    1    1    2  501    0 -0.37646143619E+02 -0.24218815268E+02 -0.11443027021E+04  0.11451779150E+04  0.00000000000E+00 0. -1.
          1    1    1    2  502    0  0.66354383992E+02 -0.37388403208E+02  0.41383516565E+03  0.42078538627E+03  0.00000000000E+00 0. -1.
         22    1    3    3    0    0  0.26696189078E+02 -0.25287696911E+02  0.47354582766E+02  0.59955071806E+02  0.00000000000E+00 0.  1.
         22    1    3    3    0    0 -0.55404429450E+02  0.86894915387E+02  0.71372398514E+02  0.12535707556E+03  0.00000000000E+00 0.  1.
</event>
<event>
 7    1  0.6219721E-006  0.6570580E+02  0.7818608E-02  0.1432537E+00
          2   -1    0    0  502    0  0.00000000000E+00  0.00000000000E+00  0.27340735039E+04  0.27340735039E+04  0.00000000000E+00 0. -1.
          1   -1    0    0  501    0 -0.00000000000E+00 -0.00000000000E+00 -0.73543883524E+02  0.73543883524E+02  0.00000000000E+00 0. -1.
         25    2    1    2    0    0  0.23686082381E+02  0.97870744653E+02  0.18531003436E+03  0.24516138865E+03  0.12499833795E+03 0.  0.
          2    1    1    2  501    0 -0.26211480392E+02 -0.32657128441E+02 -0.33044555124E+02  0.53342969224E+02  0.00000000000E+00 0. -1.
          1    1    1    2  502    0  0.25253980110E+01 -0.65213616212E+02  0.25082641412E+04  0.25091130296E+04  0.00000000000E+00 0. -1.
         22    1    3    3    0    0  0.38901223758E+02  0.12403402023E+03  0.14471197067E+03  0.19452325784E+03  0.00000000000E+00 0. -1.
         22    1    3    3    0    0 -0.15215141378E+02 -0.26163275578E+02  0.40598063690E+02  0.50638130806E+02  0.00000000000E+00 0. -1.
</event>
<event>
 7    1  0.6219721E-006  0.7608267E+02  0.7818608E-02  0.1434211E+00
          2   -1    0    0  502    0  0.00000000000E+00  0.00000000000E+00  0.11782865708E+04  0.11782865708E+04  0.00000000000E+00 0. -1.
          1   -1    0    0  501    0 -0.00000000000E+00 -0.00000000000E+00 -0.91166450185E+03  0.91166450185E+03  0.00000000000E+00 0. -1.
         25    2    1    2    0    0  0.42446495730E+02  0.97212045688E+02  0.69979194830E+03  0.71873865719E+03  0.12499839843E+03 0.  0.
          2    1    1    2  501    0 -0.14842748688E+02 -0.74557331673E+02 -0.89990648290E+03  0.90311172114E+03  0.00000000000E+00 0. -1.
          1    1    1    2  502    0 -0.27603747042E+02 -0.22654714015E+02  0.46673660356E+03  0.46810069432E+03  0.00000000000E+00 0. -1.
         22    1    3    3    0    0 -0.37778156916E+02  0.16192677612E+02  0.30679668786E+03  0.30953771924E+03  0.00000000000E+00 0. -1.
         22    1    3    3    0    0  0.80224652646E+02  0.81019368076E+02  0.39299526043E+03  0.40920093795E+03  0.00000000000E+00 0. -1.
</event>
<event>
 7    1  0.6219721E-006  0.7221894E+02  0.7818608E-02  0.1483241E+00
          2   -1    0    0  502    0  0.00000000000E+00  0.00000000000E+00  0.20212982734E+03  0.20212982734E+03  0.00000000000E+00 0. -1.
          1   -1    0    0  501    0 -0.00000000000E+00 -0.00000000000E+00 -0.23781660411E+03  0.23781660411E+03  0.00000000000E+00 0. -1.
         25    2    1    2    0    0  0.94874060065E+01 -0.84418437060E+02  0.13970124452E+03  0.20581531057E+03  0.12500808357E+03 0.  0.
          2    1    1    2  501    0  0.46675379049E+01  0.25911651720E+02 -0.17182560424E+03  0.17383106132E+03  0.00000000000E+00 0. -1.
          1    1    1    2  502    0 -0.14154943911E+02  0.58506785340E+02 -0.35624170418E+01  0.60300059562E+02  0.00000000000E+00 0. -1.
         22    1    3    3    0    0 -0.27592673873E+02 -0.75094479871E+02  0.23347427476E+02  0.83340499928E+02  0.00000000000E+00 0. -1.
         22    1    3    3    0    0  0.37080079879E+02 -0.93239571896E+01  0.11635381704E+03  0.12247481064E+03  0.00000000000E+00 0. -1.
</event>
<event>
 7    1  0.6219721E-006  0.3225260E+03  0.7818608E-02  0.1153996E+00
          2   -1    0    0  502    0  0.00000000000E+00  0.00000000000E+00  0.57686110002E+03  0.57686110002E+03  0.00000000000E+00 0. -1.
          1   -1    0    0  501    0 -0.00000000000E+00 -0.00000000000E+00 -0.12395431360E+04  0.12395431360E+04  0.00000000000E+00 0. -1.
         25    2    1    2    0    0 -0.24548887521E+03  0.86446224174E+02 -0.28831037353E+03  0.40803310496E+03  0.12502162108E+03 0.  0.
          2    1    1    2  501    0  0.31428480591E+03 -0.18224391407E+03 -0.84679997783E+03  0.92144342523E+03  0.00000000000E+00 0. -1.
          1    1    1    2  502    0 -0.68795930702E+02  0.95797689896E+02  0.47242831541E+03  0.48692770580E+03  0.00000000000E+00 0. -1.
         22    1    3    3    0    0 -0.90715078706E+02 -0.29416355667E+02 -0.92327434193E+02  0.13273621431E+03  0.00000000000E+00 0. -1.
         22    1    3    3    0    0 -0.15477379650E+03  0.11586257984E+03 -0.19598293933E+03  0.27529689065E+03  0.00000000000E+00 0. -1.
</event>
<event>
 7    1  0.6219721E-006  0.8007466E+02  0.7818608E-02  0.1354025E+00
          2   -1    0    0  502    0  0.00000000000E+00  0.00000000000E+00  0.33194919606E+03  0.33194919606E+03  0.00000000000E+00 0. -1.
          1   -1    0    0  501    0 -0.00000000000E+00 -0.00000000000E+00 -0.79465756119E+03  0.79465756119E+03  0.00000000000E+00 0. -1.
         25    2    1    2    0    0 -0.13871337336E+03  0.30593088455E+02 -0.10081218031E+03  0.21439878833E+03  0.12500563079E+03 0.  0.
          2    1    1    2  501    0  0.63683227678E+02 -0.96406567498E+01 -0.62986294813E+03  0.63314755719E+03  0.00000000000E+00 0. -1.
          1    1    1    2  502    0  0.75030145683E+02 -0.20952431706E+02  0.26796676331E+03  0.27906041173E+03  0.00000000000E+00 0. -1.
         22    1    3    3    0    0 -0.41533510959E+02 -0.30785034509E+02 -0.83433483532E+02  0.98152417477E+02  0.00000000000E+00 0.  1.
         22    1    3    3    0    0 -0.97179862403E+02  0.61378122965E+02 -0.17378696779E+02  0.11624637086E+03  0.00000000000E+00 0.  1.
</event>
<event>
 7    1  0.6219721E-006  0.4724797E+02  0.7818608E-02  0.1493484E+00
          2   -1    0    0  502    0  0.00000000000E+00  0.00000000000E+00  0.56098634265E+03  0.56098634265E+03  0.00000000000E+00 0. -1.
          1   -1    0    0  501    0 -0.00000000000E+00 -0.00000000000E+00 -0.11216381558E+03  0.11216381558E+03  0.00000000000E+00 0. -1.
         25    2    1    2    0    0  0.10138590718E+02  0.45477887300E+01  0.37549530436E+03  0.39591110597E+03  0.12500162732E+03 0.  0.
          2    1    1    2  501    0 -0.34829989817E+02 -0.32726156866E+02 -0.94169573110E+02  0.10560321034E+03  0.00000000000E+00 0. -1.
          1    1    1    2  502    0  0.24691399099E+02  0.28178368136E+02  0.16749679582E+03  0.17163584192E+03  0.00000000000E+00 0. -1.
         22    1    3    3    0    0 -0.48164442326E+02 -0.26440566637E+02  0.22422774645E+03  0.23086142889E+03  0.00000000000E+00 0. -1.
         22    1    3    3    0    0  0.58303033045E+02  0.30988355367E+02  0.15126755790E+03  0.16504967708E+03  0.00000000000E+00 0. -1.
</event>
<event>
 7    1  0.6219721E-006  0.4894993E+02  0.7818608E-02  0.1526823E+00
          2   -1    0    0  502    0  0.00000000000E+00  0.00000000000E+00  0.92943041856E+03  0.92943041856E+03  0.00000000000E+00 0. -1.
          1   -1    0    0  501    0 -0.00000000000E+00 -0.00000000000E+00 -0.31332681017E+03  0.31332681017E+03  0.00000000000E+00 0. -1.
         25    2    1    2    0    0 -0.10946086239E+02  0.73507499283E+02  0.73811913275E+02  0.16308509222E+03  0.12500151802E+03 0.  0.
          2    1    1    2  501    0  0.14294726911E+02 -0.25059057450E+02 -0.26718598016E+03  0.26873898781E+03  0.00000000000E+00 0. -1.
          1    1    1    2  502    0 -0.33486406717E+01 -0.48448441833E+02  0.80947767527E+03  0.81093314871E+03  0.00000000000E+00 0. -1.
         22    1    3    3    0    0  0.49951336609E+02 -0.22697544547E-01  0.25134433195E+02  0.55918478844E+02  0.00000000000E+00 0.  1.
         22    1    3    3    0    0 -0.60897422848E+02  0.73530196828E+02  0.48677480080E+02  0.10716661337E+03  0.00000000000E+00 0.  1.
</event>
<event>
 7    1  0.6219721E-006  0.4607611E+02  0.7818608E-02  0.1513346E+00
          2   -1    0    0  502    0  0.00000000000E+00  0.00000000000E+00  0.54075527273E+03  0.54075527273E+03  0.00000000000E+00 0. -1.
          1   -1    0    0  501    0 -0.00000000000E+00 -0.00000000000E+00 -0.98645977297E+03  0.98645977297E+03  0.00000000000E+00 0. -1.
         25    2    1    2    0    0  0.25224390855E+02  0.68700644722E+02 -0.52556683285E+03  0.54516093666E+03  0.12499561027E+03 0.  0.
          2    1    1    2  501    0 -0.24716758352E+02 -0.22670083522E+02 -0.44947217271E+03  0.45072173774E+03  0.00000000000E+00 0. -1.
          1    1    1    2  502    0 -0.50763250279E+00 -0.46030561200E+02  0.52933450533E+03  0.53133237129E+03  0.00000000000E+00 0. -1.
         22    1    3    3    0    0  0.17036515879E+02  0.83559597048E+02 -0.52052163954E+03  0.52746111360E+03  0.00000000000E+00 0. -1.
         22    1    3    3    0    0  0.81878749756E+01 -0.14858952326E+02 -0.50451933145E+01  0.17699823062E+02  0.00000000000E+00 0. -1.
</event>
<event>
 7    1  0.6219721E-006  0.5913517E+02  0.7818608E-02  0.1526006E+00
          2   -1    0    0  502    0  0.00000000000E+00  0.00000000000E+00  0.90100595957E+03  0.90100595957E+03  0.00000000000E+00 0. -1.
          1   -1    0    0  501    0 -0.00000000000E+00 -0.00000000000E+00 -0.35586210307E+03  0.35586210307E+03  0.00000000000E+00 0. -1.
         25    2    1    2    0    0 -0.64014616295E+01  0.53817764864E+02  0.20306070002E+03  0.24454231486E+03  0.12501985979E+03 0.  0.
          2    1    1    2  501    0 -0.23895130546E+02 -0.23486038279E+01 -0.33337189976E+03  0.33423542116E+03  0.00000000000E+00 0. -1.
          1    1    1    2  502    0  0.30296592175E+02 -0.51469161036E+02  0.67545505625E+03  0.67809032662E+03  0.00000000000E+00 0. -1.
         22    1    3    3    0    0  0.71321081308E+01 -0.50602536876E+01 -0.15494000502E+02  0.17791491937E+02  0.00000000000E+00 0. -1.
         22    1    3    3    0    0 -0.13533569760E+02  0.58878018551E+02  0.21855470052E+03  0.22675082293E+03  0.00000000000E+00 0. -1.
</event>
<event>
 7    1  0.6219721E-006  0.6543927E+02  0.7818608E-02  0.1484261E+00
          2   -1    0    0  502    0  0.00000000000E+00  0.00000000000E+00  0.45053588827E+03  0.45053588827E+03  0.00000000000E+00 0. -1.
          1   -1    0    0  501    0 -0.00000000000E+00 -0.00000000000E+00 -0.34182443877E+03  0.34182443877E+03  0.00000000000E+00 0. -1.
         25    2    1    2    0    0  0.41842695208E+02  0.16441820150E+02 -0.17288364876E+02  0.13395929821E+03  0.12500024570E+03 0.  0.
          2    1    1    2  501    0  0.74863886265E+01  0.27860406721E+02 -0.26260285324E+03  0.26418271482E+03  0.00000000000E+00 0. -1.
          1    1    1    2  502    0 -0.49329083834E+02 -0.44302226871E+02  0.38860266762E+03  0.39421831401E+03  0.00000000000E+00 0. -1.
         22    1    3    3    0    0  0.34939209829E+02 -0.52693507702E+02 -0.52192937747E+01  0.63439697075E+02  0.00000000000E+00 0. -1.
         22    1    3    3    0    0  0.69034853786E+01  0.69135327852E+02 -0.12069071101E+02  0.70519601139E+02  0.00000000000E+00 0. -1.
</event>
<event>
 7    1  0.6219721E-006  0.2110623E+03  0.7818608E-02  0.1276065E+00
          2   -1    0    0  502    0  0.00000000000E+00  0.00000000000E+00  0.83991307591E+03  0.83991307591E+03  0.00000000000E+00 0. -1.
          1   -1    0    0  501    0 -0.00000000000E+00 -0.00000000000E+00 -0.23065960389E+03  0.23065960389E+03  0.00000000000E+00 0. -1.
         25    2    1    2    0    0 -0.16025706183E+03  0.12967187830E+03 -0.28196912198E+02  0.24272803221E+03  0.12499883951E+03 0.  0.
          2    1    1    2  501    0  0.13605944338E+03 -0.17266105126E+03  0.34070887653E+02  0.22245187376E+03  0.00000000000E+00 0. -1.
          1    1    1    2  502    0  0.24197618450E+02  0.42989172959E+02  0.60337949657E+03  0.60539277383E+03  0.00000000000E+00 0. -1.
         22    1    3    3    0    0 -0.14740648953E+03  0.84658871626E+02 -0.66209396521E+02  0.18242664796E+03  0.00000000000E+00 0.  1.
         22    1    3    3    0    0 -0.12850572300E+02  0.45013006672E+02  0.38012484322E+02  0.60301384250E+02  0.00000000000E+00 0.  1.
</event>
<event>
 7    1  0.6219721E-006  0.1235618E+03  0.7818608E-02  0.1346074E+00
          2   -1    0    0  502    0  0.00000000000E+00  0.00000000000E+00  0.27490733484E+04  0.27490733484E+04  0.00000000000E+00 0. -1.
          1   -1    0    0  501    0 -0.00000000000E+00 -0.00000000000E+00 -0.32759709587E+03  0.32759709587E+03  0.00000000000E+00 0. -1.
         25    2    1    2    0    0  0.11596289511E+03 -0.53428224989E+02  0.48486965700E+03  0.51674403089E+03  0.12499536357E+03 0.  0.
          2    1    1    2  501    0 -0.12329722979E+03  0.93648443358E+01 -0.29916312853E+03  0.32371049513E+03  0.00000000000E+00 0. -1.
          1    1    1    2  502    0  0.73343346783E+01  0.44063380654E+02  0.22357697241E+04  0.22362159183E+04  0.00000000000E+00 0. -1.
         22    1    3    3    0    0  0.28001217355E+02 -0.74172898787E+01  0.85676549897E+01  0.30207434094E+02  0.00000000000E+00 0. -1.
         22    1    3    3    0    0  0.87961677757E+02 -0.46010935111E+02  0.47630200201E+03  0.48653659680E+03  0.00000000000E+00 0. -1.
</event>
<event>
 7    1  0.6219721E-006  0.7168464E+02  0.7818608E-02  0.1456634E+00
          2   -1    0    0  502    0  0.00000000000E+00  0.00000000000E+00  0.13054147841E+03  0.13054147841E+03  0.00000000000E+00 0. -1.
          1   -1    0    0  501    0 -0.00000000000E+00 -0.00000000000E+00 -0.12151818071E+04  0.12151818071E+04  0.00000000000E+00 0. -1.
         25    2    1    2    0    0  0.52170561764E+02 -0.73305754697E+02 -0.73105023036E+03  0.74709711334E+03  0.12499662502E+03 0.  0.
          2    1    1    2  501    0 -0.52916797587E+02  0.41219612794E+02 -0.47159153225E+03  0.47633792337E+03  0.00000000000E+00 0. -1.
          1    1    1    2  502    0  0.74623582292E+00  0.32086141903E+02  0.11800143396E+03  0.12228824877E+03  0.00000000000E+00 0. -1.
         22    1    3    3    0    0  0.66039184368E+01 -0.73417127521E+01  0.16603228129E+01  0.10013448791E+02  0.00000000000E+00 0.  1.
         22    1    3    3    0    0  0.45566643327E+02 -0.65964041945E+02 -0.73271055317E+03  0.73708366454E+03  0.00000000000E+00 0.  1.
</event>
<event>
 7    1  0.6219721E-006  0.1132060E+03  0.7818608E-02  0.1287638E+00
          2   -1    0    0  502    0  0.00000000000E+00  0.00000000000E+00  0.59092633260E+03  0.59092633260E+03  0.00000000000E+00 0. -1.
          1   -1    0    0  501    0 -0.00000000000E+00 -0.00000000000E+00 -0.33316477443E+03  0.33316477443E+03  0.00000000000E+00 0. -1.
         25    2    1    2    0    0 -0.15673136055E+02  0.11161448874E+03  0.49986970730E+02  0.17556999856E+03  0.12499074311E+03 0.  0.
          2    1    1    2  501    0  0.80963035183E+02 -0.15377917702E+02 -0.25675463888E+03  0.26965614772E+03  0.00000000000E+00 0. -1.
          1    1    1    2  502    0 -0.65289899128E+02 -0.96236571038E+02  0.46452922631E+03  0.47886496075E+03  0.00000000000E+00 0. -1.
         22    1    3    3    0    0 -0.28845752439E+02  0.13645857060E+03  0.47497317831E+02  0.14733979138E+03  0.00000000000E+00 0.  1.
         22    1    3    3    0    0  0.13172616384E+02 -0.24844081860E+02  0.24896528987E+01  0.28230207179E+02  0.00000000000E+00 0.  1.
</event>
<event>
 7    1  0.6219721E-006  0.6677955E+02  0.7818608E-02  0.1387079E+00
          2   -1    0    0  502    0  0.00000000000E+00  0.00000000000E+00  0.36252752412E+04  0.36252752412E+04  0.00000000000E+00 0. -1.
          1   -1    0    0  501    0 -0.00000000000E+00 -0.00000000000E+00 -0.54119427497E+02  0.54119427497E+02  0.00000000000E+00 0. -1.
         25    2    1    2    0    0 -0.12093255629E+03 -0.26105369075E+02  0.56845609406E+03  0.59504100675E+03  0.12500118151E+03 0.  0.
          2    1    1    2  501    0  0.56341632768E+02  0.16667463591E+02 -0.19151283914E+02  0.61797698995E+02  0.00000000000E+00 0. -1.
          1    1    1    2  502    0  0.64590923520E+02  0.94379054835E+01  0.30218510036E+04  0.30225559630E+04  0.00000000000E+00 0. -1.
         22    1    3    3    0    0 -0.15676787459E+02  0.20841876012E+02  0.15793141502E+02  0.30488830402E+02  0.00000000000E+00 0. -1.
         22    1    3    3    0    0 -0.10525576883E+03 -0.46947245087E+02  0.55266295255E+03  0.56455217635E+03  0.00000000000E+00 0. -1.
</event>
<event>
 7    1  0.6219721E-006  0.6906665E+02  0.7818608E-02  0.1429076E+00
          2   -1    0    0  502    0  0.00000000000E+00  0.00000000000E+00  0.13868451552E+04  0.13868451552E+04  0.00000000000E+00 0. -1.
          1   -1    0    0  501    0 -0.00000000000E+00 -0.00000000000E+00 -0.54867273042E+03  0.54867273042E+03  0.00000000000E+00 0. -1.
         25    2    1    2    0    0 -0.26975516860E+02 -0.80655594301E+02  0.32674315821E+02  0.15467300018E+03  0.12499249045E+03 0.  0.
          2    1    1    2  501    0  0.38869335731E+02  0.12711218429E+02 -0.48589400694E+03  0.48761192183E+03  0.00000000000E+00 0. -1.
          1    1    1    2  502    0 -0.11893818872E+02  0.67944375872E+02  0.12913921159E+04  0.12932329636E+04  0.00000000000E+00 0. -1.
         22    1    3    3    0    0  0.54410515384E+01  0.28801088902E+02  0.27824126179E+02  0.40413979777E+02  0.00000000000E+00 0. -1.
         22    1    3    3    0    0 -0.32416568398E+02 -0.10945668320E+03  0.48501896422E+01  0.11425902041E+03  0.00000000000E+00 0. -1.
</event>
<event>
 7    1  0.6219721E-006  0.7797290E+02  0.7818608E-02  0.1477374E+00
          2   -1    0    0  502    0  0.00000000000E+00  0.00000000000E+00  0.19599517968E+04  0.19599517968E+04  0.00000000000E+00 0. -1.
          1   -1    0    0  501    0 -0.00000000000E+00 -0.00000000000E+00 -0.93081210403E+01  0.93081210403E+01  0.00000000000E+00 0. -1.
         25    2    1    2    0    0  0.38448192696E+02 -0.60615127459E+02  0.91288142397E+03  0.92419185575E+03  0.12500253922E+03 0.  0.
          2    1    1    2  501    0  0.23698542179E+02  0.91871942091E+01  0.80598737895E+02  0.84511431115E+02  0.00000000000E+00 0. -1.
          1    1    1    2  502    0 -0.62146734874E+02  0.51427933250E+02  0.95716351392E+03  0.96055663099E+03  0.00000000000E+00 0. -1.
         22    1    3    3    0    0 -0.44439147975E+02 -0.22424029002E+02  0.23651486111E+03  0.24169599598E+03  0.00000000000E+00 0. -1.
         22    1    3    3    0    0  0.82887340671E+02 -0.38191098458E+02  0.67636656286E+03  0.68249585977E+03  0.00000000000E+00 0. -1.
</event>
<event>
 7    1  0.6219721E-006  0.5478259E+02  0.7818608E-02  0.1512646E+00
          2   -1    0    0  502    0  0.00000000000E+00  0.00000000000E+00  0.72475809882E+02  0.72475809882E+02  0.00000000000E+00 0. -1.
          1   -1    0    0  501    0 -0.00000000000E+00 -0.00000000000E+00 -0.36485144323E+03  0.36485144323E+03  0.00000000000E+00 0. -1.
         25    2    1    2    0    0  0.47720105200E+02 -0.55543202914E+01 -0.26802320264E+03  0.29960059383E+03  0.12496407386E+03 0.  0.
          2    1    1    2  501    0 -0.59254249244E+02 -0.20334525127E+02 -0.63628448473E+02  0.89292432046E+02  0.00000000000E+00 0. -1.
          1    1    1    2  502    0  0.11534144044E+02  0.25888845418E+02  0.39276017769E+02  0.48434227233E+02  0.00000000000E+00 0. -1.
         22    1    3    3    0    0  0.76212301442E+02  0.17322793701E+02 -0.24313978563E+03  0.25539253989E+03  0.00000000000E+00 0. -1.
         22    1    3    3    0    0 -0.28492196242E+02 -0.22877113993E+02 -0.24883417006E+02  0.44208053941E+02  0.00000000000E+00 0. -1.
</event>
<event>
 7    1  0.6219721E-006  0.1015256E+03  0.7818608E-02  0.1382284E+00
          2   -1    0    0  502    0  0.00000000000E+00  0.00000000000E+00  0.15265651794E+04  0.15265651794E+04  0.00000000000E+00 0. -1.
          1   -1    0    0  501    0 -0.00000000000E+00 -0.00000000000E+00 -0.96150673498E+02  0.96150673498E+02  0.00000000000E+00 0. -1.
         25    2    1    2    0    0  0.12974230923E+03 -0.33998080517E+02  0.24460190848E+03  0.30568584927E+03  0.12499923411E+03 0.  0.
          2    1    1    2  501    0 -0.96742207243E+02  0.11080605301E+02 -0.28962518922E+02  0.10159065891E+03  0.00000000000E+00 0. -1.
          1    1    1    2  502    0 -0.33000101984E+02  0.22917475216E+02  0.12147751164E+04  0.12154393447E+04  0.00000000000E+00 0. -1.
         22    1    3    3    0    0  0.14268888935E+02 -0.39406024651E+02  0.84432603084E+01  0.42751896038E+02  0.00000000000E+00 0. -1.
         22    1    3    3    0    0  0.11547342029E+03  0.54079441341E+01  0.23615864817E+03  0.26293395323E+03  0.00000000000E+00 0. -1.
</event>
<event>
 7    1  0.6219721E-006  0.1159765E+03  0.7818608E-02  0.1342546E+00
          2   -1    0    0  502    0  0.00000000000E+00  0.00000000000E+00  0.96362950809E+03  0.96362950809E+03  0.00000000000E+00 0. -1.
          1   -1    0    0  501    0 -0.00000000000E+00 -0.00000000000E+00 -0.12978587638E+03  0.12978587638E+03  0.00000000000E+00 0. -1.
         25    2    1    2    0    0  0.60374989435E+02 -0.51625406089E+02 -0.89536220288E+01  0.14837704270E+03  0.12500103019E+03 0.  0.
          2    1    1    2  501    0  0.11869525155E+01 -0.49044009556E+02 -0.34414442865E+02  0.59925600600E+02  0.00000000000E+00 0. -1.
          1    1    1    2  502    0 -0.61561941950E+02  0.10066941564E+03  0.87721169660E+03  0.88511274118E+03  0.00000000000E+00 0. -1.
         22    1    3    3    0    0 -0.17558828984E+02 -0.48356990865E+02 -0.39238177522E+02  0.64701975365E+02  0.00000000000E+00 0.  1.
         22    1    3    3    0    0  0.77933818418E+02 -0.32684152236E+01  0.30284555494E+02  0.83675067330E+02  0.00000000000E+00 0.  1.
</event>
<event>
 7    1  0.6219721E-006  0.2104530E+03  0.7818608E-02  0.1229142E+00
          2   -1    0    0  502    0  0.00000000000E+00  0.00000000000E+00  0.24936980697E+03  0.24936980697E+03  0.00000000000E+00 0. -1.
          1   -1    0    0  501    0 -0.00000000000E+00 -0.00000000000E+00 -0.13803869064E+04  0.13803869064E+04  0.00000000000E+00 0. -1.
         25    2    1    2    0    0 -0.11921130742E+03 -0.96592109116E+02 -0.17105445432E+03  0.26158547846E+03  0.12500385929E+03 0.  0.
          2    1    1    2  501    0 -0.76311878387E+02 -0.20093885721E+02 -0.10987054459E+04  0.11015357115E+04  0.00000000000E+00 0. -1.
          1    1    1    2  502    0  0.19552318581E+03  0.11668599484E+03  0.13874280073E+03  0.26663552339E+03  0.00000000000E+00 0. -1.
         22    1    3    3    0    0  0.13821581186E+02  0.17656145171E+02 -0.16506489078E+02  0.27843127527E+02  0.00000000000E+00 0. -1.
         22    1    3    3    0    0 -0.13303288861E+03 -0.11424825429E+03 -0.15454796525E+03  0.23374235093E+03  0.00000000000E+00 0. -1.
</event>
<event>
 7    1  0.6219721E-006  0.5837688E+02  0.7818608E-02  0.1429025E+00
          2   -1    0    0  502    0  0.00000000000E+00  0.00000000000E+00  0.11819467674E+04  0.11819467674E+04  0.00000000000E+00 0. -1.
          1   -1    0    0  501    0 -0.00000000000E+00 -0.00000000000E+00 -0.75216699134E+02  0.75216699134E+02  0.00000000000E+00 0. -1.
         25    2    1    2    0    0 -0.46919462136E+02  0.97459415718E+01  0.12862800098E+03  0.18565060146E+03  0.12499825551E+03 0.  0.
          2    1    1    2  501    0  0.48323245022E+02  0.38635957152E+02 -0.25373474499E+02  0.66870669226E+02  0.00000000000E+00 0. -1.
          1    1    1    2  502    0 -0.14037828862E+01 -0.48381898724E+02  0.10034755418E+04  0.10046421959E+04  0.00000000000E+00 0. -1.
         22    1    3    3    0    0  0.11298479316E+02  0.49981578094E+02  0.93550414246E+02  0.10666533546E+03  0.00000000000E+00 0.  1.
         22    1    3    3    0    0 -0.58217941452E+02 -0.40235636522E+02  0.35077586738E+02  0.78985265997E+02  0.00000000000E+00 0.  1.
</event>
<event>
 7    1  0.6219721E-006  0.2243947E+03  0.7818608E-02  0.1177973E+00
          2   -1    0    0  502    0  0.00000000000E+00  0.00000000000E+00  0.64641073914E+02  0.64641073914E+02  0.00000000000E+00 0. -1.
          1   -1    0    0  501    0 -0.00000000000E+00 -0.00000000000E+00 -0.20264645896E+04  0.20264645896E+04  0.00000000000E+00 0. -1.
         25    2    1    2    0    0  0.10879340140E+02  0.30282989361E+02 -0.39359632710E+03  0.41422089878E+03  0.12500185916E+03 0.  0.
          2    1    1    2  501    0  0.12009311701E+03 -0.21248948761E+03 -0.13195426110E+04  0.13419265410E+04  0.00000000000E+00 0. -1.
          1    1    1    2  502    0 -0.13097245715E+03  0.18220649825E+03 -0.24868457755E+03  0.33495822374E+03  0.00000000000E+00 0. -1.
         22    1    3    3    0    0  0.47710856603E+02 -0.18195538255E+02 -0.28661881234E+03  0.29113183790E+03  0.00000000000E+00 0.  1.
         22    1    3    3    0    0 -0.36831516463E+02  0.48478527616E+02 -0.10697751476E+03  0.12308906089E+03  0.00000000000E+00 0.  1.
</event>
<event>
 7    1  0.6219721E-006  0.1697778E+03  0.7818608E-02  0.1316452E+00
          2   -1    0    0  502    0  0.00000000000E+00  0.00000000000E+00  0.40327896096E+03  0.40327896096E+03  0.00000000000E+00 0. -1.
          1   -1    0    0  501    0 -0.00000000000E+00 -0.00000000000E+00 -0.76623009031E+03  0.76623009031E+03  0.00000000000E+00 0. -1.
         25    2    1    2    0    0 -0.11451655741E+03 -0.17258528334E+03  0.19750931913E+02  0.24270919303E+03  0.12497172130E+03 0.  0.
          2    1    1    2  501    0  0.82838427403E+02  0.14475375492E+03 -0.64240197691E+03  0.66369884327E+03  0.00000000000E+00 0. -1.
          1    1    1    2  502    0  0.31678130012E+02  0.27831528416E+02  0.25969991564E+03  0.26310101497E+03  0.00000000000E+00 0. -1.
         22    1    3    3    0    0 -0.64076163424E+02 -0.13879215085E+03 -0.39483880179E+02  0.15788601158E+03  0.00000000000E+00 0.  1.
         22    1    3    3    0    0 -0.50440393991E+02 -0.33793132483E+02  0.59234812092E+02  0.84823181457E+02  0.00000000000E+00 0.  1.
</event>
<event>
 7    1  0.6219721E-006  0.1873261E+03  0.7818608E-02  0.1247183E+00
          2   -1    0    0  502    0  0.00000000000E+00  0.00000000000E+00  0.29969691736E+04  0.29969691736E+04  0.00000000000E+00 0. -1.
          1   -1    0    0  501    0 -0.00000000000E+00 -0.00000000000E+00 -0.59360963377E+03  0.59360963377E+03  0.00000000000E+00 0. -1.
         25    2    1    2    0    0 -0.19165228528E+03  0.12583916496E+01  0.36536459953E+03  0.43110160022E+03  0.12500046848E+03 0.  0.
          2    1    1    2  501    0  0.17307353275E+03 -0.72653665560E+02 -0.54449137885E+03  0.57593737897E+03  0.00000000000E+00 0. -1.
          1    1    1    2  502    0  0.18578752529E+02  0.71395273910E+02  0.25824863192E+04  0.25835398282E+04  0.00000000000E+00 0. -1.
         22    1    3    3    0    0 -0.57335844025E+02  0.46621373095E+02  0.62832884215E+02  0.96999601948E+02  0.00000000000E+00 0.  1.
         22    1    3    3    0    0 -0.13431644126E+03 -0.45362981446E+02  0.30253171532E+03  0.33410199827E+03  0.00000000000E+00 0.  1.
</event>
<event>
 7    1  0.6219721E-006  0.1164413E+03  0.7818608E-02  0.1325552E+00
          2   -1    0    0  502    0  0.00000000000E+00  0.00000000000E+00  0.52143363467E+03  0.52143363467E+03  0.00000000000E+00 0. -1.
          1   -1    0    0  501    0 -0.00000000000E+00 -0.00000000000E+00 -0.10723142359E+03  0.10723142359E+03  0.00000000000E+00 0. -1.
         25    2    1    2    0    0 -0.44500216494E+02 -0.10924946634E+03  0.95906969758E+02  0.19682169284E+03  0.12499966703E+03 0.  0.
          2    1    1    2  501    0 -0.46068571446E+02  0.33035217889E+02 -0.29890958464E+02  0.64086724787E+02  0.00000000000E+00 0. -1.
          1    1    1    2  502    0  0.90568787940E+02  0.76214248453E+02  0.34818619978E+03  0.36775664064E+03  0.00000000000E+00 0. -1.
         22    1    3    3    0    0 -0.83509161856E+02 -0.10187746226E+03  0.79537259555E+02  0.15387973580E+03  0.00000000000E+00 0.  1.
         22    1    3    3    0    0  0.39008945361E+02 -0.73720040792E+01  0.16369710204E+02  0.42941957041E+02  0.00000000000E+00 0.  1.
</event>
<event>
 7    1  0.6219721E-006  0.1755246E+03  0.7818608E-02  0.1332006E+00
          2   -1    0    0  502    0  0.00000000000E+00  0.00000000000E+00  0.56156425325E+03  0.56156425325E+03  0.00000000000E+00 0. -1.
          1   -1    0    0  501    0 -0.00000000000E+00 -0.00000000000E+00 -0.39354151972E+03  0.39354151972E+03  0.00000000000E+00 0. -1.
         25    2    1    2    0    0 -0.62198038772E+02 -0.17170152202E+03 -0.40727694937E+02  0.22501791118E+03  0.12499722608E+03 0.  0.
          2    1    1    2  501    0 -0.28085744001E+02  0.21757465344E+02 -0.24301705516E+03  0.24560025532E+03  0.00000000000E+00 0. -1.
          1    1    1    2  502    0  0.90283782773E+02  0.14994405667E+03  0.45176748362E+03  0.48448760647E+03  0.00000000000E+00 0. -1.
         22    1    3    3    0    0 -0.86149663805E+02 -0.72561258574E+02 -0.48701780219E+02  0.12271415654E+03  0.00000000000E+00 0.  1.
         22    1    3    3    0    0  0.23951625033E+02 -0.99140263443E+02  0.79740852819E+01  0.10230375464E+03  0.00000000000E+00 0.  1.
</event>
<event>
 7    1  0.6219721E-006  0.2706217E+03  0.7818608E-02  0.1228412E+00
          2   -1    0    0  502    0  0.00000000000E+00  0.00000000000E+00  0.83277565477E+03  0.83277565477E+03  0.00000000000E+00 0. -1.
          1   -1    0    0  501    0 -0.00000000000E+00 -0.00000000000E+00 -0.72766132875E+03  0.72766132875E+03  0.00000000000E+00 0. -1.
         25    2    1    2    0    0 -0.28977905545E+03 -0.15169711723E+03 -0.20185077810E+03  0.40416939431E+03  0.12500098531E+03 0.  0.
          2    1    1    2  501    0  0.49857809972E+02  0.36572831244E+02 -0.39798623385E+03  0.40276099059E+03  0.00000000000E+00 0. -1.
          1    1    1    2  502    0  0.23992124548E+03  0.11512428599E+03  0.70495133797E+03  0.75350659862E+03  0.00000000000E+00 0. -1.
         22    1    3    3    0    0 -0.25629012298E+03 -0.16278624228E+03 -0.20844092740E+03  0.36828196810E+03  0.00000000000E+00 0.  1.
         22    1    3    3    0    0 -0.33488932469E+02  0.11089125047E+02  0.65901493051E+01  0.35887426211E+02  0.00000000000E+00 0.  1.
</event>
<event>
 7    1  0.6219721E-006  0.9451934E+02  0.7818608E-02  0.1402361E+00
          2   -1    0    0  502    0  0.00000000000E+00  0.00000000000E+00  0.57950731166E+03  0.57950731166E+03  0.00000000000E+00 0. -1.
          1   -1    0    0  501    0 -0.00000000000E+00 -0.00000000000E+00 -0.11383203170E+04  0.11383203170E+04  0.00000000000E+00 0. -1.
         25    2    1    2    0    0  0.76805733152E+02 -0.10106117364E+03 -0.83354512421E+03  0.85237014404E+03  0.12499962751E+03 0.  0.
          2    1    1    2  501    0 -0.32051290943E+02  0.17971732746E+02 -0.29029064527E+03  0.29260712083E+03  0.00000000000E+00 0. -1.
          1    1    1    2  502    0 -0.44754442209E+02  0.83089440896E+02  0.56502276415E+03  0.57285036379E+03  0.00000000000E+00 0. -1.
         22    1    3    3    0    0  0.11420577961E+02 -0.10579872456E+03 -0.40072565683E+03  0.41461409981E+03  0.00000000000E+00 0.  1.
         22    1    3    3    0    0  0.65385155192E+02  0.47375509204E+01 -0.43281946738E+03  0.43775604422E+03  0.00000000000E+00 0.  1.
</event>
<event>
 7    1  0.6219721E-006  0.1379909E+03  0.7818608E-02  0.1350795E+00
          2   -1    0    0  502    0  0.00000000000E+00  0.00000000000E+00  0.20862237971E+04  0.20862237971E+04  0.00000000000E+00 0. -1.
          1   -1    0    0  501    0 -0.00000000000E+00 -0.00000000000E+00 -0.13521780938E+04  0.13521780938E+04  0.00000000000E+00 0. -1.
         25    2    1    2    0    0  0.37586371526E+02 -0.94693736850E+02 -0.23507065585E+02  0.16297583945E+03  0.12501561099E+03 0.  0.
          2    1    1    2  501    0  0.24568371758E+01 -0.38337452869E+02 -0.12562498046E+04  0.12568370491E+04  0.00000000000E+00 0. -1.
          1    1    1    2  502    0 -0.40043208702E+02  0.13303118972E+03  0.20138025734E+04  0.20185890024E+04  0.00000000000E+00 0. -1.
         22    1    3    3    0    0  0.46898623572E+02 -0.28014695309E+02  0.42100806323E+02  0.68969427570E+02  0.00000000000E+00 0. -1.
         22    1    3    3    0    0 -0.93122520458E+01 -0.66679041541E+02 -0.65607871909E+02  0.94006411885E+02  0.00000000000E+00 0. -1.
</event>
<event>
 7    1  0.6219721E-006  0.5951680E+02  0.7818608E-02  0.1544660E+00
          2   -1    0    0  502    0  0.00000000000E+00  0.00000000000E+00  0.29857746675E+03  0.29857746675E+03  0.00000000000E+00 0. -1.
          1   -1    0    0  501    0 -0.00000000000E+00 -0.00000000000E+00 -0.27858555934E+03  0.27858555934E+03  0.00000000000E+00 0. -1.
         25    2    1    2    0    0  0.64712057295E+02 -0.72450711460E+01  0.16761924108E+03  0.21900222083E+03  0.12500248530E+03 0.  0.
          2    1    1    2  501    0 -0.58083453913E+02 -0.12799829008E+02 -0.24828669241E+03  0.25531119221E+03  0.00000000000E+00 0. -1.
          1    1    1    2  502    0 -0.66286033818E+01  0.20044900154E+02  0.10065935874E+03  0.10284961306E+03  0.00000000000E+00 0. -1.
         22    1    3    3    0    0  0.14034899343E+02 -0.10074479612E+02  0.16735608756E+03  0.16824545635E+03  0.00000000000E+00 0.  1.
         22    1    3    3    0    0  0.50677157952E+02  0.28294084662E+01  0.26315351818E+00  0.50756764477E+02  0.00000000000E+00 0.  1.
</event>
<event>
 7    1  0.7176435E-006  0.1397257E+03  0.7818608E-02  0.1217486E+00
          2   -1    0    0  502    0  0.00000000000E+00  0.00000000000E+00  0.17225221911E+04  0.17225221911E+04  0.00000000000E+00 0. -1.
          1   -1    0    0  501    0 -0.00000000000E+00 -0.00000000000E+00 -0.11585516708E+04  0.11585516708E+04  0.00000000000E+00 0. -1.
         25    2    1    2    0    0 -0.84721419204E+02 -0.13276101281E+03 -0.29079120841E+03  0.35353670989E+03  0.12500189181E+03 0.  0.
          2    1    1    2  501    0  0.14079712587E+03  0.47813794463E+01 -0.82753854334E+03  0.83944430009E+03  0.00000000000E+00 0. -1.
          1    1    1    2  502    0 -0.56075706667E+02  0.12797963336E+03  0.16823002720E+04  0.16880928519E+04  0.00000000000E+00 0. -1.
         22    1    3    3    0    0 -0.26054280988E+02 -0.63457547424E+02 -0.25579828218E+02  0.73212113031E+02  0.00000000000E+00 0. -1.
         22    1    3    3    0    0 -0.58667138216E+02 -0.69303465387E+02 -0.26521138019E+03  0.28032459686E+03  0.00000000000E+00 0. -1.
</event>
<event>
 7    1  0.6219721E-006  0.7710968E+02  0.7818608E-02  0.1358840E+00
          2   -1    0    0  502    0  0.00000000000E+00  0.00000000000E+00  0.10711392181E+04  0.10711392181E+04  0.00000000000E+00 0. -1.
          1   -1    0    0  501    0 -0.00000000000E+00 -0.00000000000E+00 -0.28551550935E+04  0.28551550935E+04  0.00000000000E+00 0. -1.
         25    2    1    2    0    0  0.10028613870E+03  0.95107170555E+02 -0.16521585806E+03  0.24904553948E+03  0.12499886989E+03 0.  0.
          2    1    1    2  501    0 -0.36101518616E+02 -0.53110768925E+02 -0.26462052126E+04  0.26469843408E+04  0.00000000000E+00 0. -1.
          1    1    1    2  502    0 -0.64184620084E+02 -0.41996401629E+02  0.10274051952E+04  0.10302644313E+04  0.00000000000E+00 0. -1.
         22    1    3    3    0    0  0.22562736955E+02  0.10467155898E+03 -0.10781374901E+03  0.15195070528E+03  0.00000000000E+00 0. -1.
         22    1    3    3    0    0  0.77723401745E+02 -0.95643884297E+01 -0.57402109047E+02  0.97094834198E+02  0.00000000000E+00 0. -1.
</event>
<event>
 7    1  0.6219721E-006  0.1397429E+03  0.7818608E-02  0.1339043E+00
          2   -1    0    0  502    0  0.00000000000E+00  0.00000000000E+00  0.94499070119E+03  0.94499070119E+03  0.00000000000E+00 0. -1.
          1   -1    0    0  501    0 -0.00000000000E+00 -0.00000000000E+00 -0.95660655535E+03  0.95660655535E+03  0.00000000000E+00 0. -1.
         25    2    1    2    0    0 -0.11784005730E+03  0.21220124181E+02  0.32605081509E+03  0.36914920095E+03  0.12500170305E+03 0.  0.
          2    1    1    2  501    0 -0.31384549672E+02 -0.27862004054E+02 -0.92523695242E+03  0.92618826345E+03  0.00000000000E+00 0. -1.
          1    1    1    2  502    0  0.14922460697E+03  0.66418798728E+01  0.58757028318E+03  0.60625979215E+03  0.00000000000E+00 0. -1.
         22    1    3    3    0    0  0.10961672524E+02  0.41061307520E+02  0.89407655738E+02  0.98994535931E+02  0.00000000000E+00 0.  1.
         22    1    3    3    0    0 -0.12880172982E+03 -0.19841183338E+02  0.23664315935E+03  0.27015466501E+03  0.00000000000E+00 0.  1.
</event>
<event>
 7    1  0.6219721E-006  0.1405114E+03  0.7818608E-02  0.1368435E+00
          2   -1    0    0  502    0  0.00000000000E+00  0.00000000000E+00  0.97002413082E+02  0.97002413082E+02  0.00000000000E+00 0. -1.
          1   -1    0    0  501    0 -0.00000000000E+00 -0.00000000000E+00 -0.61867823283E+03  0.61867823283E+03  0.00000000000E+00 0. -1.
         25    2    1    2    0    0  0.19521697151E+02 -0.11851791483E+03 -0.81868078922E+02  0.19171366363E+03  0.12499661467E+03 0.  0.
          2    1    1    2  501    0 -0.46009432565E+02  0.13739541856E+03 -0.46226497369E+03  0.48444119852E+03  0.00000000000E+00 0. -1.
          1    1    1    2  502    0  0.26487735413E+02 -0.18877503727E+02  0.22457232862E+02  0.39525783763E+02  0.00000000000E+00 0. -1.
         22    1    3    3    0    0  0.19278594026E+02 -0.79159074558E+02 -0.11454014346E+03  0.14056054830E+03  0.00000000000E+00 0.  1.
         22    1    3    3    0    0  0.24310312499E+00 -0.39358840272E+02  0.32672064543E+02  0.51153115332E+02  0.00000000000E+00 0.  1.
</event>
<event>
 7    1  0.6219721E-006  0.4825284E+02  0.7818608E-02  0.1548142E+00
          2   -1    0    0  502    0  0.00000000000E+00  0.00000000000E+00  0.95566634801E+03  0.95566634801E+03  0.00000000000E+00 0. -1.
          1   -1    0    0  501    0 -0.00000000000E+00 -0.00000000000E+00 -0.10523459985E+03  0.10523459985E+03  0.00000000000E+00 0. -1.
         25    2    1    2    0    0 -0.24452629652E+02 -0.15710624808E+02  0.14694183502E+03  0.19509284383E+03  0.12499824000E+03 0.  0.
          2    1    1    2  501    0 -0.23969849762E+02  0.85885729060E+01 -0.78377837880E+02  0.82409967558E+02  0.00000000000E+00 0. -1.
          1    1    1    2  502    0  0.48422479414E+02  0.71220519016E+01  0.78186775102E+03  0.78339813647E+03  0.00000000000E+00 0. -1.
         22    1    3    3    0    0  0.41748642459E+02  0.25767535306E+02  0.69676114339E+02  0.85215467682E+02  0.00000000000E+00 0. -1.
         22    1    3    3    0    0 -0.66201272111E+02 -0.41478160114E+02  0.77265720683E+02  0.10987737614E+03  0.00000000000E+00 0. -1.
</event>
<event>
 7    1  0.6219721E-006  0.1027235E+03  0.7818608E-02  0.1289090E+00
          2   -1    0    0  502    0  0.00000000000E+00  0.00000000000E+00  0.35364297855E+04  0.35364297855E+04  0.00000000000E+00 0. -1.
          1   -1    0    0  501    0 -0.00000000000E+00 -0.00000000000E+00 -0.43599171590E+03  0.43599171590E+03  0.00000000000E+00 0. -1.
         25    2    1    2    0    0 -0.51308233776E+02  0.10726144217E+03  0.41089287271E+02  0.17733556546E+03  0.12498808510E+03 0.  0.
          2    1    1    2  501    0 -0.37685193102E+02 -0.96939037909E+02 -0.35991871467E+03  0.37464494127E+03  0.00000000000E+00 0. -1.
          1    1    1    2  502    0  0.88993426878E+02 -0.10322404262E+02  0.34192674970E+04  0.34204409947E+04  0.00000000000E+00 0. -1.
         22    1    3    3    0    0 -0.11007818666E+02  0.87117239684E+02 -0.30323236186E+02  0.92898246349E+02  0.00000000000E+00 0.  1.
         22    1    3    3    0    0 -0.40300415109E+02  0.20144202486E+02  0.71412523457E+02  0.84437319109E+02  0.00000000000E+00 0.  1.
</event>
<event>
 7    1  0.6219721E-006  0.7358740E+02  0.7818608E-02  0.1404762E+00
          2   -1    0    0  502    0  0.00000000000E+00  0.00000000000E+00  0.16960170210E+03  0.16960170210E+03  0.00000000000E+00 0. -1.
          1   -1    0    0  501    0 -0.00000000000E+00 -0.00000000000E+00 -0.42971157444E+03  0.42971157444E+03  0.00000000000E+00 0. -1.
         25    2    1    2    0    0 -0.29675848392E+02 -0.82306726177E+02  0.51253095564E+01  0.15266251707E+03  0.12499808866E+03 0.  0.
          2    1    1    2  501    0  0.57765365636E+02  0.45483123109E+02 -0.34590444935E+03  0.35363178595E+03  0.00000000000E+00 0. -1.
          1    1    1    2  502    0 -0.28089517244E+02  0.36823603068E+02  0.80669267452E+02  0.93018973512E+02  0.00000000000E+00 0. -1.
         22    1    3    3    0    0 -0.37062201114E+02  0.23322129419E+02 -0.11989963120E+02  0.45401406230E+02  0.00000000000E+00 0. -1.
         22    1    3    3    0    0  0.73863527217E+01 -0.10562885560E+03  0.17115272676E+02  0.10726111085E+03  0.00000000000E+00 0. -1.
</event>
<event>
 7    1  0.6822871E-006  0.1037625E+03  0.7818608E-02  0.1429235E+00
          2   -1    0    0  502    0  0.00000000000E+00  0.00000000000E+00  0.17322122129E+04  0.17322122129E+04  0.00000000000E+00 0. -1.
          1   -1    0    0  501    0 -0.00000000000E+00 -0.00000000000E+00 -0.77472727901E+03  0.77472727901E+03  0.00000000000E+00 0. -1.
         25    2    1    2    0    0 -0.43825866663E+02 -0.11544012080E+03 -0.34871197075E+03  0.39047607473E+03  0.12499759323E+03 0.  0.
          2    1    1    2  501    0 -0.83888344448E+01  0.25861309864E+02 -0.40310440281E+03  0.40402022160E+03  0.00000000000E+00 0. -1.
          1    1    1    2  502    0  0.52214701108E+02  0.89578810935E+02  0.17093013075E+04  0.17124431956E+04  0.00000000000E+00 0. -1.
         22    1    3    3    0    0 -0.81883838856E+02 -0.45533363455E+02 -0.15599371166E+03  0.18196782224E+03  0.00000000000E+00 0. -1.
         22    1    3    3    0    0  0.38057972193E+02 -0.69906757345E+02 -0.19271825910E+03  0.20850825250E+03  0.00000000000E+00 0. -1.
</event>
<event>
 7    1  0.6219721E-006  0.1666446E+03  0.7818608E-02  0.1390447E+00
          2   -1    0    0  502    0  0.00000000000E+00  0.00000000000E+00  0.12178355283E+03  0.12178355283E+03  0.00000000000E+00 0. -1.
          1   -1    0    0  501    0 -0.00000000000E+00 -0.00000000000E+00 -0.13885635184E+04  0.13885635184E+04  0.00000000000E+00 0. -1.
         25    2    1    2    0    0 -0.11630413237E+03  0.13770932267E+03 -0.44010236547E+03  0.49173917260E+03  0.12500725185E+03 0.  0.
          2    1    1    2  501    0  0.93820196238E+02 -0.13328416124E+03 -0.91395350545E+03  0.92837379702E+03  0.00000000000E+00 0. -1.
          1    1    1    2  502    0  0.22483936128E+02 -0.44251614238E+01  0.87275905360E+02  0.90234101613E+02  0.00000000000E+00 0. -1.
         22    1    3    3    0    0 -0.54495297818E+02  0.55618720382E+01 -0.22678053957E+03  0.23330256113E+03  0.00000000000E+00 0. -1.
         22    1    3    3    0    0 -0.61808834548E+02  0.13214745063E+03 -0.21332182590E+03  0.25843661146E+03  0.00000000000E+00 0. -1.
</event>
<event>
 7    1  0.6219721E-006  0.1643193E+03  0.7818608E-02  0.1221070E+00
          2   -1    0    0  502    0  0.00000000000E+00  0.00000000000E+00  0.15436610333E+04  0.15436610333E+04  0.00000000000E+00 0. -1.
          1   -1    0    0  501    0 -0.00000000000E+00 -0.00000000000E+00 -0.43742620694E+03  0.43742620694E+03  0.00000000000E+00 0. -1.
         25    2    1    2    0    0 -0.15722041458E+03  0.19288002159E+03  0.14123331293E+03  0.31224085144E+03  0.12500615640E+03 0.  0.
          2    1    1    2  501    0  0.56902641671E+02 -0.14793016185E+03 -0.33163225673E+03  0.36756114745E+03  0.00000000000E+00 0. -1.
          1    1    1    2  502    0  0.10031777291E+03 -0.44949859746E+02  0.12966337702E+04  0.13012852414E+04  0.00000000000E+00 0. -1.
         22    1    3    3    0    0 -0.40150616735E+02  0.51830122190E+01 -0.13054904538E+02  0.42536645053E+02  0.00000000000E+00 0.  1.
         22    1    3    3    0    0 -0.11706979784E+03  0.18769700937E+03  0.15428821747E+03  0.26970420639E+03  0.00000000000E+00 0.  1.
</event>
<event>
 7    1  0.6219721E-006  0.2427014E+02  0.7818608E-02  0.1697398E+00
          2   -1    0    0  502    0  0.00000000000E+00  0.00000000000E+00  0.91375485994E+02  0.91375485994E+02  0.00000000000E+00 0. -1.
          1   -1    0    0  501    0 -0.00000000000E+00 -0.00000000000E+00 -0.36956599301E+03  0.36956599301E+03  0.00000000000E+00 0. -1.
         25    2    1    2    0    0 -0.28194644269E+01 -0.53616245986E+01  0.10410604201E+02  0.12557940520E+03  0.12500043973E+03 0.  0.
          2    1    1    2  501    0 -0.14411298914E+01 -0.21071781745E+02 -0.30382751508E+03  0.30456075874E+03  0.00000000000E+00 0. -1.
          1    1    1    2  502    0  0.42605943183E+01  0.26433406343E+02  0.15226403866E+02  0.30801315062E+02  0.00000000000E+00 0. -1.
         22    1    3    3    0    0 -0.53448829752E+02 -0.47980247453E+01 -0.29382481591E+02  0.61181113652E+02  0.00000000000E+00 0.  1.
         22    1    3    3    0    0  0.50629365325E+02 -0.56359985326E+00  0.39793085792E+02  0.64398291552E+02  0.00000000000E+00 0.  1.
</event>
<event>
 7    1  0.6219721E-006  0.8408822E+02  0.7818608E-02  0.1342445E+00
          2   -1    0    0  502    0  0.00000000000E+00  0.00000000000E+00  0.90251512699E+03  0.90251512699E+03  0.00000000000E+00 0. -1.
          1   -1    0    0  501    0 -0.00000000000E+00 -0.00000000000E+00 -0.52783583509E+03  0.52783583509E+03  0.00000000000E+00 0. -1.
         25    2    1    2    0    0 -0.99530189000E+02  0.10823818103E+03 -0.22228089335E+03  0.29437260691E+03  0.12499869516E+03 0.  0.
          2    1    1    2  501    0  0.31123795533E+02 -0.60145517317E+02 -0.26319513538E+03  0.27176801355E+03  0.00000000000E+00 0. -1.
          1    1    1    2  502    0  0.68406393467E+02 -0.48092663711E+02  0.86015532063E+03  0.86421034163E+03  0.00000000000E+00 0. -1.
         22    1    3    3    0    0 -0.75996586833E+02  0.13440107783E+03 -0.20022426599E+03  0.25284162557E+03  0.00000000000E+00 0.  1.
         22    1    3    3    0    0 -0.23533602167E+02 -0.26162896797E+02 -0.22056627359E+02  0.41530981330E+02  0.00000000000E+00 0.  1.
</event>
<event>
 7    1  0.6219721E-006  0.4935620E+02  0.7818608E-02  0.1551240E+00
          2   -1    0    0  502    0  0.00000000000E+00  0.00000000000E+00  0.17773478529E+03  0.17773478529E+03  0.00000000000E+00 0. -1.
          1   -1    0    0  501    0 -0.00000000000E+00 -0.00000000000E+00 -0.13539373840E+04  0.13539373840E+04  0.00000000000E+00 0. -1.
         25    2    1    2    0    0 -0.25715307851E+02 -0.47521477525E+02  0.24774508491E+02  0.13840368658E+03  0.12498894473E+03 0.  0.
          2    1    1    2  501    0  0.40551223468E+02  0.28147089152E+02 -0.12950966369E+04  0.12960370208E+04  0.00000000000E+00 0. -1.
          1    1    1    2  502    0 -0.14835915617E+02  0.19374388374E+02  0.94119529697E+02  0.97231461922E+02  0.00000000000E+00 0. -1.
         22    1    3    3    0    0 -0.74936026549E+02 -0.30163354478E+02  0.35031787720E+00  0.80779692689E+02  0.00000000000E+00 0. -1.
         22    1    3    3    0    0  0.49220718698E+02 -0.17358123047E+02  0.24424190613E+02  0.57623993891E+02  0.00000000000E+00 0. -1.
</event>
<event>
 7    1  0.6219721E-006  0.3187579E+03  0.7818608E-02  0.1212651E+00
          2   -1    0    0  502    0  0.00000000000E+00  0.00000000000E+00  0.21756488539E+04  0.21756488539E+04  0.00000000000E+00 0. -1.
          1   -1    0    0  501    0 -0.00000000000E+00 -0.00000000000E+00 -0.24439408343E+04  0.24439408343E+04  0.00000000000E+00 0. -1.
         25    2    1    2    0    0 -0.36175485516E+03  0.86158772697E+02 -0.43660979149E+03  0.58697727940E+03  0.12499722863E+03 0.  0.
          2    1    1    2  501    0  0.30110326188E+03 -0.73623937384E+02 -0.19192528521E+04  0.19441232391E+04  0.00000000000E+00 0. -1.
          1    1    1    2  502    0  0.60651593284E+02 -0.12534835313E+02  0.20875706632E+04  0.20884891696E+04  0.00000000000E+00 0. -1.
         22    1    3    3    0    0 -0.19299140380E+03 -0.14032292567E+02 -0.18334001980E+03  0.26656359473E+03  0.00000000000E+00 0. -1.
         22    1    3    3    0    0 -0.16876345137E+03  0.10019106526E+03 -0.25326977169E+03  0.32041368467E+03  0.00000000000E+00 0. -1.
</event>
<event>
 7    1  0.6219721E-006  0.1152763E+03  0.7818608E-02  0.1342558E+00
          2   -1    0    0  502    0  0.00000000000E+00  0.00000000000E+00  0.89189725508E+03  0.89189725508E+03  0.00000000000E+00 0. -1.
          1   -1    0    0  501    0 -0.00000000000E+00 -0.00000000000E+00 -0.12070854046E+04  0.12070854046E+04  0.00000000000E+00 0. -1.
         25    2    1    2    0    0 -0.60970323046E+02 -0.59405498737E+02 -0.45371405158E+03  0.47826577505E+03  0.12504126286E+03 0.  0.
          2    1    1    2  501    0  0.10906112651E+03  0.70488090053E+02 -0.73470490865E+03  0.74609262357E+03  0.00000000000E+00 0. -1.
          1    1    1    2  502    0 -0.48090803466E+02 -0.11082591316E+02  0.87323081072E+03  0.87462426104E+03  0.00000000000E+00 0. -1.
         22    1    3    3    0    0  0.50578927189E+01  0.16673164893E+02 -0.25388004947E+03  0.25447722142E+03  0.00000000000E+00 0. -1.
         22    1    3    3    0    0 -0.66028215765E+02 -0.76078663630E+02 -0.19983400211E+03  0.22378855363E+03  0.00000000000E+00 0. -1.
</event>
<event>
 7    1  0.6219721E-006  0.1711184E+03  0.7818608E-02  0.1337038E+00
          2   -1    0    0  502    0  0.00000000000E+00  0.00000000000E+00  0.12081670710E+04  0.12081670710E+04  0.00000000000E+00 0. -1.
          1   -1    0    0  501    0 -0.00000000000E+00 -0.00000000000E+00 -0.17705764108E+03  0.17705764108E+03  0.00000000000E+00 0. -1.
         25    2    1    2    0    0 -0.48354517397E+02 -0.19140421008E+03  0.28750501257E+03  0.37048456290E+03  0.12500379235E+03 0.  0.
          2    1    1    2  501    0 -0.60981351560E+01  0.34337859030E+02 -0.12530696184E+03  0.13006963712E+03  0.00000000000E+00 0. -1.
          1    1    1    2  502    0  0.54452652553E+02  0.15706635105E+03  0.86891137923E+03  0.88467051209E+03  0.00000000000E+00 0. -1.
         22    1    3    3    0    0 -0.74088775106E+02 -0.17858602336E+03  0.28086160295E+03  0.34097705839E+03  0.00000000000E+00 0.  1.
         22    1    3    3    0    0  0.25734257710E+02 -0.12818186725E+02  0.66434096131E+01  0.29507504504E+02  0.00000000000E+00 0.  1.
</event>
<event>
 7    1  0.6219721E-006  0.7965196E+02  0.7818608E-02  0.1364070E+00
          2   -1    0    0  502    0  0.00000000000E+00  0.00000000000E+00  0.21857146993E+04  0.21857146993E+04  0.00000000000E+00 0. -1.
          1   -1    0    0  501    0 -0.00000000000E+00 -0.00000000000E+00 -0.44247703413E+02  0.44247703413E+02  0.00000000000E+00 0. -1.
         25    2    1    2    0    0  0.20923822179E+02  0.20162239630E+02  0.35057434573E+03  0.37332425369E+03  0.12499721705E+03 0.  0.
          2    1    1    2  501    0 -0.53614990468E+02 -0.69879176169E+02  0.27541339217E+02  0.92283215326E+02  0.00000000000E+00 0. -1.
          1    1    1    2  502    0  0.32691168289E+02  0.49716936539E+02  0.17633513109E+04  0.17643549337E+04  0.00000000000E+00 0. -1.
         22    1    3    3    0    0  0.33358707516E+02  0.48157151843E+02  0.70873016849E+02  0.91950525600E+02  0.00000000000E+00 0. -1.
         22    1    3    3    0    0 -0.12434885337E+02 -0.27994912213E+02  0.27970132888E+03  0.28137372809E+03  0.00000000000E+00 0. -1.
</event>
<event>
 7    1  0.6219721E-006  0.7347871E+02  0.7818608E-02  0.1375721E+00
          2   -1    0    0  502    0  0.00000000000E+00  0.00000000000E+00  0.28454435644E+04  0.28454435644E+04  0.00000000000E+00 0. -1.
          1   -1    0    0  501    0 -0.00000000000E+00 -0.00000000000E+00 -0.21230826119E+02  0.21230826119E+02  0.00000000000E+00 0. -1.
         25    2    1    2    0    0 -0.43239229594E+02 -0.36922800783E+02  0.46642357101E+03  0.48621949064E+03  0.12500208514E+03 0.  0.
          2    1    1    2  501    0  0.74048602401E+01  0.83251193167E+02  0.14862046635E+03  0.17050992974E+03  0.00000000000E+00 0. -1.
          1    1    1    2  502    0  0.35834369354E+02 -0.46328392384E+02  0.22091687009E+04  0.22099449701E+04  0.00000000000E+00 0. -1.
         22    1    3    3    0    0 -0.23579632247E+01 -0.39849884229E+02  0.42857759199E+03  0.43043271904E+03  0.00000000000E+00 0. -1.
         22    1    3    3    0    0 -0.40881266369E+02  0.29270834458E+01  0.37845979021E+02  0.55786771600E+02  0.00000000000E+00 0. -1.
</event>
<event>
 7    1  0.6219721E-006  0.6386053E+02  0.7818608E-02  0.1493034E+00
          2   -1    0    0  502    0  0.00000000000E+00  0.00000000000E+00  0.19575228653E+03  0.19575228653E+03  0.00000000000E+00 0. -1.
          1   -1    0    0  501    0 -0.00000000000E+00 -0.00000000000E+00 -0.12888400147E+04  0.12888400147E+04  0.00000000000E+00 0. -1.
         25    2    1    2    0    0  0.52438064444E+02 -0.34310545968E+02 -0.29115515488E+03  0.32299079448E+03  0.12499905976E+03 0.  0.
          2    1    1    2  501    0 -0.33649078233E+02  0.54808377699E+02 -0.97963142127E+03  0.98174026110E+03  0.00000000000E+00 0. -1.
          1    1    1    2  502    0 -0.18788986210E+02 -0.20497831731E+02  0.17769884798E+03  0.17986124563E+03  0.00000000000E+00 0. -1.
         22    1    3    3    0    0  0.45083636080E+02  0.78807161268E+01 -0.22601764724E+02  0.51043899709E+02  0.00000000000E+00 0.  1.
         22    1    3    3    0    0  0.73544283641E+01 -0.42191262095E+02 -0.26855339015E+03  0.27194689477E+03  0.00000000000E+00 0.  1.
</event>
<event>
 7    1  0.6219721E-006  0.9299243E+02  0.7818608E-02  0.1326726E+00
          2   -1    0    0  502    0  0.00000000000E+00  0.00000000000E+00  0.81030061960E+02  0.81030061960E+02  0.00000000000E+00 0. -1.
          1   -1    0    0  501    0 -0.00000000000E+00 -0.00000000000E+00 -0.24335910247E+04  0.24335910247E+04  0.00000000000E+00 0. -1.
         25    2    1    2    0    0 -0.15660859621E+02 -0.86258473487E+02 -0.11139910901E+04  0.11244056660E+04  0.12500466448E+03 0.  0.
          2    1    1    2  501    0  0.81359153721E+02  0.61383250403E+02 -0.12956788155E+04  0.12996810409E+04  0.00000000000E+00 0. -1.
          1    1    1    2  502    0 -0.65698294100E+02  0.24875223085E+02  0.57108942791E+02  0.90534379756E+02  0.00000000000E+00 0. -1.
         22    1    3    3    0    0  0.11035985009E+01 -0.73167927842E+02 -0.10895534952E+04  0.10920080506E+04  0.00000000000E+00 0.  1.
         22    1    3    3    0    0 -0.16764458122E+02 -0.13090545645E+02 -0.24437594889E+02  0.32397615427E+02  0.00000000000E+00 0.  1.
</event>
<event>
 7    1  0.6219721E-006  0.1720770E+03  0.7818608E-02  0.1247027E+00
          2   -1    0    0  502    0  0.00000000000E+00  0.00000000000E+00  0.15576543661E+04  0.15576543661E+04  0.00000000000E+00 0. -1.
          1   -1    0    0  501    0 -0.00000000000E+00 -0.00000000000E+00 -0.12994176410E+03  0.12994176410E+03  0.00000000000E+00 0. -1.
         25    2    1    2    0    0  0.71966247712E+02 -0.14332558790E+03  0.11291140760E+03  0.23258574628E+03  0.12500311376E+03 0.  0.
          2    1    1    2  501    0 -0.14761868813E+03  0.11600064126E+03  0.59228758835E+02  0.19686409457E+03  0.00000000000E+00 0. -1.
          1    1    1    2  502    0  0.75652440419E+02  0.27324946639E+02  0.12555724356E+04  0.12581462894E+04  0.00000000000E+00 0. -1.
         22    1    3    3    0    0 -0.13732198599E+02  0.31150087477E+01 -0.14642510450E+02  0.20314518703E+02  0.00000000000E+00 0.  1.
         22    1    3    3    0    0  0.85698446311E+02 -0.14644059665E+03  0.12755391805E+03  0.21227122758E+03  0.00000000000E+00 0.  1.
</event>
<event>
 7    1  0.6219721E-006  0.1402096E+03  0.7818608E-02  0.1235527E+00
          2   -1    0    0  502    0  0.00000000000E+00  0.00000000000E+00  0.15660102871E+04  0.15660102871E+04  0.00000000000E+00 0. -1.
          1   -1    0    0  501    0 -0.00000000000E+00 -0.00000000000E+00 -0.38826498782E+03  0.38826498782E+03  0.00000000000E+00 0. -1.
         25    2    1    2    0    0  0.10887625390E+02 -0.86411454317E+02  0.93309032379E+02  0.17865363072E+03  0.12500025769E+03 0.  0.
          2    1    1    2  501    0  0.11087407851E+03  0.31751943579E+01 -0.33276580359E+03  0.35076519665E+03  0.00000000000E+00 0. -1.
          1    1    1    2  502    0 -0.12176170390E+03  0.83236259959E+02  0.14172020705E+04  0.14248564475E+04  0.00000000000E+00 0. -1.
         22    1    3    3    0    0 -0.20412127058E+02  0.22086333788E+02  0.48703618428E+02  0.57240750512E+02  0.00000000000E+00 0. -1.
         22    1    3    3    0    0  0.31299752448E+02 -0.10849778811E+03  0.44605413951E+02  0.12141288021E+03  0.00000000000E+00 0. -1.
</event>
<event>
 7    1  0.6219721E-006  0.6974518E+02  0.7818608E-02  0.1371152E+00
          2   -1    0    0  502    0  0.00000000000E+00  0.00000000000E+00  0.41156607577E+03  0.41156607577E+03  0.00000000000E+00 0. -1.
          1   -1    0    0  501    0 -0.00000000000E+00 -0.00000000000E+00 -0.19582815513E+04  0.19582815513E+04  0.00000000000E+00 0. -1.
         25    2    1    2    0    0  0.12569856232E+03  0.26063567270E+02 -0.29716208503E+03  0.34699670604E+03  0.12498788387E+03 0.  0.
          2    1    1    2  501    0 -0.61694412561E+02 -0.28993108182E+02 -0.16328318200E+04  0.16342541275E+04  0.00000000000E+00 0. -1.
          1    1    1    2  502    0 -0.64004149761E+02  0.29295409118E+01  0.38327842951E+03  0.38859679351E+03  0.00000000000E+00 0. -1.
         22    1    3    3    0    0 -0.24589052764E+02 -0.63157662602E+01 -0.39447217496E+02  0.46910482703E+02  0.00000000000E+00 0.  1.
         22    1    3    3    0    0  0.15028761509E+03  0.32379333530E+02 -0.25771486753E+03  0.30008622333E+03  0.00000000000E+00 0.  1.
</event>
<event>
 7    1  0.6219721E-006  0.7271465E+02  0.7818608E-02  0.1480073E+00
          2   -1    0    0  502    0  0.00000000000E+00  0.00000000000E+00  0.21660185701E+04  0.21660185701E+04  0.00000000000E+00 0. -1.
          1   -1    0    0  501    0 -0.00000000000E+00 -0.00000000000E+00 -0.80453339339E+02  0.80453339339E+02  0.00000000000E+00 0. -1.
         25    2    1    2    0    0  0.57455941912E+02 -0.12419742243E+02  0.42039393038E+03  0.44250569880E+03  0.12499920604E+03 0.  0.
          2    1    1    2  501    0 -0.62488535545E+02  0.38681268413E+02 -0.49806996075E+02  0.88779470930E+02  0.00000000000E+00 0. -1.
          1    1    1    2  502    0  0.50325936326E+01 -0.26261526170E+02  0.17149782965E+04  0.17151867398E+04  0.00000000000E+00 0. -1.
         22    1    3    3    0    0  0.63605392807E+02 -0.58756910985E+02  0.32407066365E+03  0.33543973471E+03  0.00000000000E+00 0.  1.
         22    1    3    3    0    0 -0.61494508951E+01  0.46337168742E+02  0.96323266729E+02  0.10706596409E+03  0.00000000000E+00 0.  1.
</event>
<event>
 7    1  0.6219721E-006  0.1136306E+03  0.7818608E-02  0.1331543E+00
          2   -1    0    0  502    0  0.00000000000E+00  0.00000000000E+00  0.96027029085E+03  0.96027029085E+03  0.00000000000E+00 0. -1.
          1   -1    0    0  501    0 -0.00000000000E+00 -0.00000000000E+00 -0.22247052174E+04  0.22247052174E+04  0.00000000000E+00 0. -1.
         25    2    1    2    0    0  0.55162580288E+02 -0.13772729642E+03 -0.93632370460E+02  0.21541354531E+03  0.12499702501E+03 0.  0.
          2    1    1    2  501    0 -0.49167065650E+02  0.24877685331E+02 -0.20662635671E+04  0.20669981684E+04  0.00000000000E+00 0. -1.
          1    1    1    2  502    0 -0.59955146379E+01  0.11284961109E+03  0.89546101101E+03  0.90256379451E+03  0.00000000000E+00 0. -1.
         22    1    3    3    0    0 -0.16784345007E+02 -0.77856279029E+02 -0.92154561216E+02  0.12180220677E+03  0.00000000000E+00 0. -1.
         22    1    3    3    0    0  0.71946925295E+02 -0.59871017393E+02 -0.14778092436E+01  0.93611338540E+02  0.00000000000E+00 0. -1.
</event>
<event>
 7    1  0.6219721E-006  0.1018996E+03  0.7818608E-02  0.1354426E+00
          2   -1    0    0  502    0  0.00000000000E+00  0.00000000000E+00  0.15070063619E+04  0.15070063619E+04  0.00000000000E+00 0. -1.
          1   -1    0    0  501    0 -0.00000000000E+00 -0.00000000000E+00 -0.18983296574E+03  0.18983296574E+03  0.00000000000E+00 0. -1.
         25    2    1    2    0    0  0.60187092616E+02  0.55778643319E+02  0.85649827304E+03  0.86945296243E+03  0.12500167595E+03 0.  0.
          2    1    1    2  501    0 -0.99505401465E+02 -0.24180467063E+02 -0.16796880415E+03  0.19672198422E+03  0.00000000000E+00 0. -1.
          1    1    1    2  502    0  0.39318308848E+02 -0.31598176255E+02  0.62864392723E+03  0.63066438094E+03  0.00000000000E+00 0. -1.
         22    1    3    3    0    0  0.80643469218E+02  0.98551860923E+01  0.30389031392E+03  0.31456289786E+03  0.00000000000E+00 0.  1.
         22    1    3    3    0    0 -0.20456376602E+02  0.45923457227E+02  0.55260795913E+03  0.55489006457E+03  0.00000000000E+00 0.  1.
</event>
<event>
 7    1  0.6219721E-006  0.1273572E+03  0.7818608E-02  0.1285552E+00
          2   -1    0    0  502    0  0.00000000000E+00  0.00000000000E+00  0.15465863412E+04  0.15465863412E+04  0.00000000000E+00 0. -1.
          1   -1    0    0  501    0 -0.00000000000E+00 -0.00000000000E+00 -0.20479025386E+04  0.20479025386E+04  0.00000000000E+00 0. -1.
         25    2    1    2    0    0  0.50177073548E+02  0.37579175758E+02  0.36188201056E+02  0.14444899480E+03  0.12500397210E+03 0.  0.
          2    1    1    2  501    0  0.74670296562E+02  0.23124852020E+01 -0.19901208673E+04  0.19915225501E+04  0.00000000000E+00 0. -1.
          1    1    1    2  502    0 -0.12484737011E+03 -0.39891660960E+02  0.14526164689E+04  0.14585173349E+04  0.00000000000E+00 0. -1.
         22    1    3    3    0    0 -0.27696813842E+01  0.73903347305E+02  0.30468569211E+02  0.79985683642E+02  0.00000000000E+00 0.  1.
         22    1    3    3    0    0  0.52946754932E+02 -0.36324171547E+02  0.57196318454E+01  0.64463311153E+02  0.00000000000E+00 0.  1.
</event>
<event>
 7    1  0.6219721E-006  0.5240202E+02  0.7818608E-02  0.1465609E+00
          2   -1    0    0  502    0  0.00000000000E+00  0.00000000000E+00  0.86123442593E+02  0.86123442593E+02  0.00000000000E+00 0. -1.
          1   -1    0    0  501    0 -0.00000000000E+00 -0.00000000000E+00 -0.11649245163E+04  0.11649245163E+04  0.00000000000E+00 0. -1.
         25    2    1    2    0    0  0.15248520342E+02  0.31131833853E+02 -0.64984221610E+03  0.66266440404E+03  0.12500999199E+03 0.  0.
          2    1    1    2  501    0  0.36254732189E+02 -0.19440352073E+02 -0.49898291937E+03  0.50067582997E+03  0.00000000000E+00 0. -1.
          1    1    1    2  502    0 -0.51503252531E+02 -0.11691481780E+02  0.70024061800E+02  0.87707724850E+02  0.00000000000E+00 0. -1.
         22    1    3    3    0    0  0.40276363616E+02  0.70609065513E+02 -0.46179715752E+03  0.46889704658E+03  0.00000000000E+00 0. -1.
         22    1    3    3    0    0 -0.25027843275E+02 -0.39477231660E+02 -0.18804505858E+03  0.19376735746E+03  0.00000000000E+00 0. -1.
</event>
<event>
 7    1  0.6219721E-006  0.1122859E+03  0.7818608E-02  0.1268967E+00
          2   -1    0    0  502    0  0.00000000000E+00  0.00000000000E+00  0.12781491899E+04  0.12781491899E+04  0.00000000000E+00 0. -1.
          1   -1    0    0  501    0 -0.00000000000E+00 -0.00000000000E+00 -0.25218621434E+03  0.25218621434E+03  0.00000000000E+00 0. -1.
         25    2    1    2    0    0 -0.85712715419E+01  0.37053504246E+02 -0.98464383770E+02  0.16360443688E+03  0.12499899208E+03 0.  0.
          2    1    1    2  501    0  0.89057375793E+02  0.43895883381E+02 -0.97692963115E+02  0.13929098967E+03  0.00000000000E+00 0. -1.
          1    1    1    2  502    0 -0.80486104251E+02 -0.80949387627E+02  0.12221203225E+04  0.12274399777E+04  0.00000000000E+00 0. -1.
         22    1    3    3    0    0  0.15495069894E+02  0.79818907497E+02 -0.56207163596E+02  0.98845335876E+02  0.00000000000E+00 0.  1.
         22    1    3    3    0    0 -0.24066341436E+02 -0.42765403251E+02 -0.42257220174E+02  0.64759100999E+02  0.00000000000E+00 0.  1.
</event>
<event>
 7    1  0.6219721E-006  0.9794335E+02  0.7818608E-02  0.1333827E+00
          2   -1    0    0  502    0  0.00000000000E+00  0.00000000000E+00  0.80057580795E+03  0.80057580795E+03  0.00000000000E+00 0. -1.
          1   -1    0    0  501    0 -0.00000000000E+00 -0.00000000000E+00 -0.78295296279E+03  0.78295296279E+03  0.00000000000E+00 0. -1.
         25    2    1    2    0    0 -0.10472964574E+03  0.11593751002E+03 -0.32907378297E+03  0.38512814609E+03  0.12499731736E+03 0.  0.
          2    1    1    2  501    0  0.27728706911E+02 -0.56192693154E+02 -0.42044705432E+03  0.42509084375E+03  0.00000000000E+00 0. -1.
          1    1    1    2  502    0  0.77000938831E+02 -0.59744816861E+02  0.76714368245E+03  0.77330978091E+03  0.00000000000E+00 0. -1.
         22    1    3    3    0    0 -0.70681263712E+02 -0.82255701579E+01 -0.10939873661E+03  0.13050511337E+03  0.00000000000E+00 0. -1.
         22    1    3    3    0    0 -0.34048382030E+02  0.12416308017E+03 -0.21967504636E+03  0.25462303272E+03  0.00000000000E+00 0. -1.
</event>
<event>
 7    1  0.6219721E-006  0.2441189E+03  0.7818608E-02  0.1195509E+00
          2   -1    0    0  502    0  0.00000000000E+00  0.00000000000E+00  0.53863225949E+03  0.53863225949E+03  0.00000000000E+00 0. -1.
          1   -1    0    0  501    0 -0.00000000000E+00 -0.00000000000E+00 -0.10142064677E+04  0.10142064677E+04  0.00000000000E+00 0. -1.
         25    2    1    2    0    0  0.29852513143E+03 -0.12432944127E+03  0.29229395358E+02  0.34792881442E+03  0.12500015316E+03 0.  0.
          2    1    1    2  501    0 -0.20124917211E+03  0.12606804008E+03 -0.83112901604E+03  0.86438985493E+03  0.00000000000E+00 0. -1.
          1    1    1    2  502    0 -0.97275959323E+02 -0.17385988064E+01  0.32632541246E+03  0.34052005786E+03  0.00000000000E+00 0. -1.
         22    1    3    3    0    0  0.19432664946E+03 -0.34725058821E+02  0.61500904076E+02  0.20676324045E+03  0.00000000000E+00 0.  1.
         22    1    3    3    0    0  0.10419848197E+03 -0.89604382452E+02 -0.32271508717E+02  0.14116557397E+03  0.00000000000E+00 0.  1.
</event>
<event>
 7    1  0.6219721E-006  0.1262580E+03  0.7818608E-02  0.1339067E+00
          2   -1    0    0  502    0  0.00000000000E+00  0.00000000000E+00  0.82746197569E+03  0.82746197569E+03  0.00000000000E+00 0. -1.
          1   -1    0    0  501    0 -0.00000000000E+00 -0.00000000000E+00 -0.15486995410E+04  0.15486995410E+04  0.00000000000E+00 0. -1.
         25    2    1    2    0    0  0.92651614393E+02 -0.14084578072E+03  0.10132896212E+03  0.23305373817E+03  0.12499852284E+03 0.  0.
          2    1    1    2  501    0 -0.20673617224E+02  0.41585209054E+02 -0.14767768164E+04  0.14775068506E+04  0.00000000000E+00 0. -1.
          1    1    1    2  502    0 -0.71977997169E+02  0.99260571668E+02  0.65421028894E+03  0.66560092797E+03  0.00000000000E+00 0. -1.
         22    1    3    3    0    0  0.72243101796E+02 -0.10048348007E+03  0.18454464935E+01  0.12377156861E+03  0.00000000000E+00 0.  1.
         22    1    3    3    0    0  0.20408512597E+02 -0.40362300655E+02  0.99483515631E+02  0.10928216956E+03  0.00000000000E+00 0.  1.
</event>
<event>
 7    1  0.6219721E-006  0.1116342E+03  0.7818608E-02  0.1395975E+00
          2   -1    0    0  502    0  0.00000000000E+00  0.00000000000E+00  0.27935658142E+04  0.27935658142E+04  0.00000000000E+00 0. -1.
          1   -1    0    0  501    0 -0.00000000000E+00 -0.00000000000E+00 -0.15202426805E+03  0.15202426805E+03  0.00000000000E+00 0. -1.
         25    2    1    2    0    0  0.59720114404E+02  0.79037686505E+02  0.18543869387E+03  0.24459380497E+03  0.12500068918E+03 0.  0.
          2    1    1    2  501    0 -0.19902394474E+02  0.25981024499E+02 -0.11901366174E+03  0.12343164351E+03  0.00000000000E+00 0. -1.
          1    1    1    2  502    0 -0.39817719930E+02 -0.10501871100E+03  0.25751165140E+04  0.25775646338E+04  0.00000000000E+00 0. -1.
         22    1    3    3    0    0  0.61903641116E+02  0.11027829461E+03  0.16178517184E+03  0.20534800918E+03  0.00000000000E+00 0. -1.
         22    1    3    3    0    0 -0.21835267118E+01 -0.31240608102E+02  0.23653522023E+02  0.39245795795E+02  0.00000000000E+00 0. -1.
</event>
<event>
 7    1  0.6219721E-006  0.1709991E+03  0.7818608E-02  0.1229450E+00
          2   -1    0    0  502    0  0.00000000000E+00  0.00000000000E+00  0.41477599933E+03  0.41477599933E+03  0.00000000000E+00 0. -1.
          1   -1    0    0  501    0 -0.00000000000E+00 -0.00000000000E+00 -0.37139475898E+03  0.37139475898E+03  0.00000000000E+00 0. -1.
         25    2    1    2    0    0  0.14614812093E+02 -0.11992310164E+03 -0.36665711394E+02  0.17766600559E+03  0.12500276841E+03 0.  0.
          2    1    1    2  501    0  0.43172936081E+02  0.19759563089E+03 -0.21666530459E+03  0.29639802626E+03  0.00000000000E+00 0. -1.
          1    1    1    2  502    0 -0.57787748174E+02 -0.77672529248E+02  0.29671225634E+03  0.31210672646E+03  0.00000000000E+00 0. -1.
         22    1    3    3    0    0 -0.55368399694E+02 -0.45614779614E+02 -0.16700317779E+02  0.73656421429E+02  0.00000000000E+00 0.  1.
         22    1    3    3    0    0  0.69983211787E+02 -0.74308322027E+02 -0.19965393615E+02  0.10400958416E+03  0.00000000000E+00 0.  1.
</event>
<event>
 7    1  0.6219721E-006  0.5919187E+02  0.7818608E-02  0.1420574E+00
          2   -1    0    0  502    0  0.00000000000E+00  0.00000000000E+00  0.11577118940E+04  0.11577118940E+04  0.00000000000E+00 0. -1.
          1   -1    0    0  501    0 -0.00000000000E+00 -0.00000000000E+00 -0.30712691709E+02  0.30712691709E+02  0.00000000000E+00 0. -1.
         25    2    1    2    0    0  0.25645141815E+02  0.62581123913E+02  0.34747710659E+03  0.37540948676E+03  0.12497148785E+03 0.  0.
          2    1    1    2  501    0  0.24774710630E+02 -0.55470641291E+02  0.42278483922E+02  0.74015191244E+02  0.00000000000E+00 0. -1.
          1    1    1    2  502    0 -0.50419852445E+02 -0.71104826219E+01  0.73724361174E+03  0.73899990767E+03  0.00000000000E+00 0. -1.
         22    1    3    3    0    0  0.85708413483E+01 -0.38569799770E+02  0.95098417111E+02  0.10297959853E+03  0.00000000000E+00 0. -1.
         22    1    3    3    0    0  0.17074300467E+02  0.10115092368E+03  0.25237868948E+03  0.27242988823E+03  0.00000000000E+00 0. -1.
</event>
<event>
 7    1  0.6219721E-006  0.7664686E+02  0.7818608E-02  0.1377592E+00
          2   -1    0    0  502    0  0.00000000000E+00  0.00000000000E+00  0.44823882883E+02  0.44823882883E+02  0.00000000000E+00 0. -1.
          1   -1    0    0  501    0 -0.00000000000E+00 -0.00000000000E+00 -0.70774273194E+03  0.70774273194E+03  0.00000000000E+00 0. -1.
         25    2    1    2    0    0  0.64327859828E+02 -0.25205697548E+01 -0.31285908368E+03  0.34300151920E+03  0.12499923643E+03 0.  0.
          2    1    1    2  501    0 -0.19198698144E+01  0.55261173124E+02 -0.31639912293E+03  0.32119447092E+03  0.00000000000E+00 0. -1.
          1    1    1    2  502    0 -0.62407990013E+02 -0.52740603369E+02 -0.33660642439E+02  0.88370624705E+02  0.00000000000E+00 0. -1.
         22    1    3    3    0    0  0.49545407752E+02 -0.78725272275E+01 -0.27500434676E+02  0.57210121671E+02  0.00000000000E+00 0.  1.
         22    1    3    3    0    0  0.14782452076E+02  0.53519574727E+01 -0.28535864901E+03  0.28579139753E+03  0.00000000000E+00 0.  1.
</event>
<event>
 7    1  0.6219721E-006  0.1125540E+03  0.7818608E-02  0.1314273E+00
          2   -1    0    0  502    0  0.00000000000E+00  0.00000000000E+00  0.99460245540E+03  0.99460245540E+03  0.00000000000E+00 0. -1.
          1   -1    0    0  501    0 -0.00000000000E+00 -0.00000000000E+00 -0.13611558426E+04  0.13611558426E+04  0.00000000000E+00 0. -1.
         25    2    1    2    0    0  0.10801932948E+03 -0.52749608350E+02  0.54525345163E+03  0.57216676478E+03  0.12499113360E+03 0.  0.
          2    1    1    2  501    0  0.61770340508E+01  0.64570293960E+02 -0.13393411312E+04  0.13409109382E+04  0.00000000000E+00 0. -1.
          1    1    1    2  502    0 -0.11419636353E+03 -0.11820685610E+02  0.42753429235E+03  0.44268059499E+03  0.00000000000E+00 0. -1.
         22    1    3    3    0    0  0.11228569375E+03 -0.52442831965E-01  0.44355272841E+03  0.45754464553E+03  0.00000000000E+00 0.  1.
         22    1    3    3    0    0 -0.42663642747E+01 -0.52697165518E+02  0.10170072322E+03  0.11462211925E+03  0.00000000000E+00 0.  1.
</event>
<event>
 7    1  0.6219721E-006  0.1250623E+03  0.7818608E-02  0.1288020E+00
          2   -1    0    0  502    0  0.00000000000E+00  0.00000000000E+00  0.10270472677E+04  0.10270472677E+04  0.00000000000E+00 0. -1.
          1   -1    0    0  501    0 -0.00000000000E+00 -0.00000000000E+00 -0.10984992887E+04  0.10984992887E+04  0.00000000000E+00 0. -1.
         25    2    1    2    0    0 -0.31077074727E+02  0.17163100543E+03  0.40707615463E+02  0.21840521196E+03  0.12498295905E+03 0.  0.
          2    1    1    2  501    0  0.54423333881E+02 -0.50626578941E+02 -0.10040397663E+04  0.10067873669E+04  0.00000000000E+00 0. -1.
          1    1    1    2  502    0 -0.23346259153E+02 -0.12100442649E+03  0.89188012985E+03  0.90035397765E+03  0.00000000000E+00 0. -1.
         22    1    3    3    0    0  0.24685605997E+02  0.14476616574E+03  0.51401476221E+02  0.15559156033E+03  0.00000000000E+00 0.  1.
         22    1    3    3    0    0 -0.55762680724E+02  0.26864839689E+02 -0.10693860758E+02  0.62813651629E+02  0.00000000000E+00 0.  1.
</event>
<event>
 7    1  0.6219721E-006  0.8955415E+02  0.7818608E-02  0.1459656E+00
          2   -1    0    0  502    0  0.00000000000E+00  0.00000000000E+00  0.43805747914E+04  0.43805747914E+04  0.00000000000E+00 0. -1.
          1   -1    0    0  501    0 -0.00000000000E+00 -0.00000000000E+00 -0.10751064957E+04  0.10751064957E+04  0.00000000000E+00 0. -1.
         25    2    1    2    0    0  0.85585080976E+02  0.32289951800E+02  0.77336055416E+02  0.17312943701E+03  0.12500195766E+03 0.  0.
          2    1    1    2  501    0  0.36757398998E+01 -0.24861139985E+02 -0.10265846730E+04  0.10268922428E+04  0.00000000000E+00 0. -1.
          1    1    1    2  502    0 -0.89260820875E+02 -0.74288118150E+01  0.42547169133E+04  0.42556596074E+04  0.00000000000E+00 0. -1.
         22    1    3    3    0    0  0.43108002485E+02 -0.47677405807E+02  0.29520257932E+02  0.70731043616E+02  0.00000000000E+00 0.  1.
         22    1    3    3    0    0  0.42477078491E+02  0.79967357606E+02  0.47815797485E+02  0.10239839339E+03  0.00000000000E+00 0.  1.
</event>
<event>
 7    1  0.6219721E-006  0.8314099E+02  0.7818608E-02  0.1455872E+00
          2   -1    0    0  502    0  0.00000000000E+00  0.00000000000E+00  0.76140739720E+03  0.76140739720E+03  0.00000000000E+00 0. -1.
          1   -1    0    0  501    0 -0.00000000000E+00 -0.00000000000E+00 -0.11059382079E+04  0.11059382079E+04  0.00000000000E+00 0. -1.
         25    2    1    2    0    0 -0.74219095448E+02 -0.46591495460E+02  0.31268074988E+01  0.15269095400E+03  0.12500203570E+03 0.  0.
          2    1    1    2  501    0 -0.65856619487E+01  0.27036111631E+02 -0.10284391411E+04  0.10288155273E+04  0.00000000000E+00 0. -1.
          1    1    1    2  502    0  0.80804757397E+02  0.19555383829E+02  0.68078152289E+03  0.68583912382E+03  0.00000000000E+00 0. -1.
         22    1    3    3    0    0  0.34438664218E+01  0.25296343829E+02  0.33939327636E+02  0.42469320544E+02  0.00000000000E+00 0.  1.
         22    1    3    3    0    0 -0.77662961870E+02 -0.71887839290E+02 -0.30812520137E+02  0.11022163345E+03  0.00000000000E+00 0.  1.
</event>
<event>
 7    1  0.6219721E-006  0.5021064E+02  0.7818608E-02  0.1567410E+00
          2   -1    0    0  502    0  0.00000000000E+00  0.00000000000E+00  0.33107550766E+03  0.33107550766E+03  0.00000000000E+00 0. -1.
          1   -1    0    0  501    0 -0.00000000000E+00 -0.00000000000E+00 -0.41900767954E+03  0.41900767954E+03  0.00000000000E+00 0. -1.
         25    2    1    2    0    0 -0.44764994050E+02  0.29438268198E+02  0.18899789011E+03  0.23284200864E+03  0.12499872877E+03 0.  0.
          2    1    1    2  501    0  0.27260817291E+02 -0.42176171054E+02 -0.39450566994E+03  0.39768920677E+03  0.00000000000E+00 0. -1.
          1    1    1    2  502    0  0.17504176759E+02  0.12737902855E+02  0.11757560795E+03  0.11955197178E+03  0.00000000000E+00 0. -1.
         22    1    3    3    0    0 -0.29132217662E+02 -0.16267606674E+02  0.18079121258E+03  0.18384445512E+03  0.00000000000E+00 0.  1.
         22    1    3    3    0    0 -0.15632776389E+02  0.45705874872E+02  0.82066775378E+01  0.48997553527E+02  0.00000000000E+00 0.  1.
</event>
<event>
 7    1  0.6219721E-006  0.1871662E+03  0.7818608E-02  0.1256483E+00
          2   -1    0    0  502    0  0.00000000000E+00  0.00000000000E+00  0.53848396796E+03  0.53848396796E+03  0.00000000000E+00 0. -1.
          1   -1    0    0  501    0 -0.00000000000E+00 -0.00000000000E+00 -0.50655831054E+03  0.50655831054E+03  0.00000000000E+00 0. -1.
         25    2    1    2    0    0  0.17296129179E+02  0.13100909792E+03  0.14805595764E+03  0.23453788792E+03  0.12499965782E+03 0.  0.
          2    1    1    2  501    0 -0.58690970692E+02 -0.18407842808E+03 -0.43955873731E+03  0.48014724957E+03  0.00000000000E+00 0. -1.
          1    1    1    2  502    0  0.41394841512E+02  0.53069330159E+02  0.32342843708E+03  0.33035714102E+03  0.00000000000E+00 0. -1.
         22    1    3    3    0    0  0.28400210459E+02  0.14654881335E+03  0.92073708175E+02  0.17538726973E+03  0.00000000000E+00 0.  1.
         22    1    3    3    0    0 -0.11104081280E+02 -0.15539715427E+02  0.55982249463E+02  0.59150618184E+02  0.00000000000E+00 0.  1.
</event>
<event>
 7    1  0.6219721E-006  0.5968187E+02  0.7818608E-02  0.1454459E+00
          2   -1    0    0  502    0  0.00000000000E+00  0.00000000000E+00  0.21274015499E+03  0.21274015499E+03  0.00000000000E+00 0. -1.
          1   -1    0    0  501    0 -0.00000000000E+00 -0.00000000000E+00 -0.12008345750E+04  0.12008345750E+04  0.00000000000E+00 0. -1.
         25    2    1    2    0    0 -0.73225732532E+02  0.35128960921E+01  0.60908251397E+02  0.15719340090E+03  0.12500240740E+03 0.  0.
          2    1    1    2  501    0  0.51938465815E+02  0.29364394351E+02 -0.11481908776E+04  0.11497400416E+04  0.00000000000E+00 0. -1.
          1    1    1    2  502    0  0.21287266717E+02 -0.32877290443E+02  0.99188206182E+02  0.10664128749E+03  0.00000000000E+00 0. -1.
         22    1    3    3    0    0 -0.97811890243E+02 -0.20208277808E+02  0.16606759475E+02  0.10124882629E+03  0.00000000000E+00 0.  1.
         22    1    3    3    0    0  0.24586157711E+02  0.23721173900E+02  0.44301491922E+02  0.55944574614E+02  0.00000000000E+00 0.  1.
</event>
<event>
 7    1  0.6219721E-006  0.1310582E+03  0.7818608E-02  0.1404227E+00
          2   -1    0    0  502    0  0.00000000000E+00  0.00000000000E+00  0.16420376956E+04  0.16420376956E+04  0.00000000000E+00 0. -1.
          1   -1    0    0  501    0 -0.00000000000E+00 -0.00000000000E+00 -0.13850586255E+04  0.13850586255E+04  0.00000000000E+00 0. -1.
         25    2    1    2    0    0 -0.10475669891E+03 -0.79161607388E+02 -0.23026598969E+03  0.29306573369E+03  0.12499828879E+03 0.  0.
          2    1    1    2  501    0  0.17900413930E+02 -0.19014013463E+02 -0.11205733595E+04  0.11208776077E+04  0.00000000000E+00 0. -1.
          1    1    1    2  502    0  0.86856284980E+02  0.98175620851E+02  0.16078184193E+04  0.16131529798E+04  0.00000000000E+00 0. -1.
         22    1    3    3    0    0 -0.39947638306E+02 -0.98406982747E+02 -0.17932510226E+03  0.20841602712E+03  0.00000000000E+00 0.  1.
         22    1    3    3    0    0 -0.64809060603E+02  0.19245375359E+02 -0.50940887430E+02  0.84649706563E+02  0.00000000000E+00 0.  1.
</event>
<event>
 7    1  0.6219721E-006  0.1386669E+03  0.7818608E-02  0.1390578E+00
          2   -1    0    0  502    0  0.00000000000E+00  0.00000000000E+00  0.26129067217E+02  0.26129067217E+02  0.00000000000E+00 0. -1.
          1   -1    0    0  501    0 -0.00000000000E+00 -0.00000000000E+00 -0.17457228841E+04  0.17457228841E+04  0.00000000000E+00 0. -1.
         25    2    1    2    0    0 -0.36713765840E+02 -0.12112427090E+03 -0.71440661469E+03  0.73622075141E+03  0.12500077635E+03 0.  0.
          2    1    1    2  501    0 -0.25711820854E+02 -0.97817348950E+01 -0.66813798554E+03  0.66870408088E+03  0.00000000000E+00 0. -1.
          1    1    1    2  502    0  0.62425586694E+02  0.13090600579E+03 -0.33704921661E+03  0.36692711898E+03  0.00000000000E+00 0. -1.
         22    1    3    3    0    0 -0.10479444169E+02 -0.44926380028E+02 -0.54463992211E+02  0.71375940065E+02  0.00000000000E+00 0. -1.
         22    1    3    3    0    0 -0.26234321671E+02 -0.76197890871E+02 -0.65994262248E+03  0.66484481135E+03  0.00000000000E+00 0. -1.
</event>
<event>
 7    1  0.6219721E-006  0.8713841E+02  0.7818608E-02  0.1367211E+00
          2   -1    0    0  502    0  0.00000000000E+00  0.00000000000E+00  0.30061482761E+03  0.30061482761E+03  0.00000000000E+00 0. -1.
          1   -1    0    0  501    0 -0.00000000000E+00 -0.00000000000E+00 -0.30778087629E+04  0.30778087629E+04  0.00000000000E+00 0. -1.
         25    2    1    2    0    0  0.12640876893E+03 -0.16631921873E+02 -0.46888026228E+03  0.50172641255E+03  0.12499958001E+03 0.  0.
          2    1    1    2  501    0 -0.41323502825E+02  0.33162853527E+02 -0.25856187964E+04  0.25861616282E+04  0.00000000000E+00 0. -1.
          1    1    1    2  502    0 -0.85085266106E+02 -0.16530931653E+02  0.27730512341E+03  0.29053554977E+03  0.00000000000E+00 0. -1.
         22    1    3    3    0    0  0.12744773336E+03  0.19744820301E+02 -0.42793416567E+03  0.44694567098E+03  0.00000000000E+00 0.  1.
         22    1    3    3    0    0 -0.10389644255E+01 -0.36376742174E+02 -0.40946096616E+02  0.54780741564E+02  0.00000000000E+00 0.  1.
</event>
<event>
 7    1  0.6219721E-006  0.6120720E+02  0.7818608E-02  0.1455400E+00
          2   -1    0    0  502    0  0.00000000000E+00  0.00000000000E+00  0.22896335723E+02  0.22896335723E+02  0.00000000000E+00 0. -1.
          1   -1    0    0  501    0 -0.00000000000E+00 -0.00000000000E+00 -0.11469561503E+04  0.11469561503E+04  0.00000000000E+00 0. -1.
         25    2    1    2    0    0 -0.25937177158E+02  0.75884861250E+02 -0.81542316179E+03  0.82883661587E+03  0.12499581469E+03 0.  0.
          2    1    1    2  501    0 -0.59926205651E+01 -0.55412771621E+02 -0.29575196819E+03  0.30095799283E+03  0.00000000000E+00 0. -1.
          1    1    1    2  502    0  0.31929797723E+02 -0.20472089629E+02 -0.12884684550E+02  0.40057877282E+02  0.00000000000E+00 0. -1.
         22    1    3    3    0    0 -0.23891504125E+02  0.10228573727E+03 -0.43535992157E+03  0.44785202615E+03  0.00000000000E+00 0. -1.
         22    1    3    3    0    0 -0.20456730332E+01 -0.26400876021E+02 -0.38006324022E+03  0.38098458972E+03  0.00000000000E+00 0. -1.
</event>
<event>
 7    1  0.6219721E-006  0.8940333E+02  0.7818608E-02  0.1432325E+00
          2   -1    0    0  502    0  0.00000000000E+00  0.00000000000E+00  0.82725889113E+02  0.82725889113E+02  0.00000000000E+00 0. -1.
          1   -1    0    0  501    0 -0.00000000000E+00 -0.00000000000E+00 -0.12998369913E+04  0.12998369913E+04  0.00000000000E+00 0. -1.
         25    2    1    2    0    0 -0.74843062211E+02  0.83895758957E+02 -0.35848086508E+03  0.39594633023E+03  0.12499993385E+03 0.  0.
          2    1    1    2  501    0  0.29542084871E+02 -0.87996323815E+01 -0.89218316906E+03  0.89271550645E+03  0.00000000000E+00 0. -1.
          1    1    1    2  502    0  0.45300977340E+02 -0.75096126576E+02  0.33552931938E+02  0.93901043744E+02  0.00000000000E+00 0. -1.
         22    1    3    3    0    0 -0.34454372473E+02  0.56036374025E+02 -0.47549027876E+02  0.81167044103E+02  0.00000000000E+00 0. -1.
         22    1    3    3    0    0 -0.40388689738E+02  0.27859384932E+02 -0.31093183721E+03  0.31477928613E+03  0.00000000000E+00 0. -1.
</event>
<event>
 7    1  0.6219721E-006  0.5131336E+02  0.7818608E-02  0.1563131E+00
          2   -1    0    0  502    0  0.00000000000E+00  0.00000000000E+00  0.22097187965E+03  0.22097187965E+03  0.00000000000E+00 0. -1.
          1   -1    0    0  501    0 -0.00000000000E+00 -0.00000000000E+00 -0.20263336369E+03  0.20263336369E+03  0.00000000000E+00 0. -1.
         25    2    1    2    0    0  0.86052492738E+01 -0.31294190747E+02 -0.37514644624E+02  0.13447771239E+03  0.12499411937E+03 0.  0.
          2    1    1    2  501    0 -0.19674683408E+02  0.50029913713E+02 -0.10969244143E+03  0.12215775514E+03  0.00000000000E+00 0. -1.
          1    1    1    2  502    0  0.11069434134E+02 -0.18735722966E+02  0.16554560202E+03  0.16696977581E+03  0.00000000000E+00 0. -1.
         22    1    3    3    0    0  0.21252536597E+02 -0.14232338270E+02 -0.81615321026E+02  0.85529470889E+02  0.00000000000E+00 0.  1.
         22    1    3    3    0    0 -0.12647287323E+02 -0.17061852477E+02  0.44100676402E+02  0.48948241498E+02  0.00000000000E+00 0.  1.
</event>
<event>
 7    1  0.6219721E-006  0.5088751E+02  0.7818608E-02  0.1442944E+00
          2   -1    0    0  502    0  0.00000000000E+00  0.00000000000E+00  0.79478746063E+03  0.79478746063E+03  0.00000000000E+00 0. -1.
          1   -1    0    0  501    0 -0.00000000000E+00 -0.00000000000E+00 -0.93392964378E+02  0.93392964378E+02  0.00000000000E+00 0. -1.
         25    2    1    2    0    0  0.92663392875E+01  0.11812225857E+01  0.27552121899E+03  0.30267922559E+03  0.12496203888E+03 0.  0.
          2    1    1    2  501    0 -0.11307841056E+01 -0.51414192583E+02 -0.70090763369E+02  0.86933382434E+02  0.00000000000E+00 0. -1.
          1    1    1    2  502    0 -0.81355551818E+01  0.50232969998E+02  0.49596404064E+03  0.49856781699E+03  0.00000000000E+00 0. -1.
         22    1    3    3    0    0 -0.39964592844E+02 -0.43170958063E+02  0.13851330286E+03  0.15048865529E+03  0.00000000000E+00 0.  1.
         22    1    3    3    0    0  0.49230932131E+02  0.44352180648E+02  0.13700791613E+03  0.15219057030E+03  0.00000000000E+00 0.  1.
</event>
<event>
 7    1  0.6219721E-006  0.8046481E+02  0.7818608E-02  0.1335623E+00
          2   -1    0    0  502    0  0.00000000000E+00  0.00000000000E+00  0.19312963098E+03  0.19312963098E+03  0.00000000000E+00 0. -1.
          1   -1    0    0  501    0 -0.00000000000E+00 -0.00000000000E+00 -0.20875672698E+04  0.20875672698E+04  0.00000000000E+00 0. -1.
         25    2    1    2    0    0 -0.78321316239E+01  0.38316617744E+02 -0.56738701545E+03  0.58230796444E+03  0.12500013868E+03 0.  0.
          2    1    1    2  501    0  0.74619599372E+02  0.83530962366E+01 -0.15027983298E+04  0.15046729475E+04  0.00000000000E+00 0. -1.
          1    1    1    2  502    0 -0.66787467748E+02 -0.46669713980E+02  0.17574770639E+03  0.19371598890E+03  0.00000000000E+00 0. -1.
         22    1    3    3    0    0 -0.45680084106E+02  0.68628485249E+02 -0.34989803941E+03  0.35947903563E+03  0.00000000000E+00 0.  1.
         22    1    3    3    0    0  0.37847952482E+02 -0.30311867506E+02 -0.21748897603E+03  0.22282892881E+03  0.00000000000E+00 0.  1.
</event>
<event>
 7    1  0.6219721E-006  0.5364991E+02  0.7818608E-02  0.1505045E+00
          2   -1    0    0  502    0  0.00000000000E+00  0.00000000000E+00  0.91833969353E+03  0.91833969353E+03  0.00000000000E+00 0. -1.
          1   -1    0    0  501    0 -0.00000000000E+00 -0.00000000000E+00 -0.16210752696E+04  0.16210752696E+04  0.00000000000E+00 0. -1.
         25    2    1    2    0    0 -0.35447593638E+02  0.70100211061E+01 -0.10195293790E+03  0.16530249182E+03  0.12499935987E+03 0.  0.
          2    1    1    2  501    0 -0.14589994986E+02 -0.26753167748E+02 -0.14864753999E+04  0.14867877167E+04  0.00000000000E+00 0. -1.
          1    1    1    2  502    0  0.50037588625E+02  0.19743146642E+02  0.88569276170E+03  0.88732475466E+03  0.00000000000E+00 0. -1.
         22    1    3    3    0    0 -0.50786073341E+01  0.54845096390E+02 -0.92788734074E+02  0.10790517143E+03  0.00000000000E+00 0. -1.
         22    1    3    3    0    0 -0.30368986304E+02 -0.47835075284E+02 -0.91642038216E+01  0.57397320392E+02  0.00000000000E+00 0. -1.
</event>
<event>
 7    1  0.6219721E-006  0.3665092E+02  0.7818608E-02  0.1547852E+00
          2   -1    0    0  502    0  0.00000000000E+00  0.00000000000E+00  0.22687865033E+04  0.22687865033E+04  0.00000000000E+00 0. -1.
          1   -1    0    0  501    0 -0.00000000000E+00 -0.00000000000E+00 -0.12239440061E+02  0.12239440061E+02  0.00000000000E+00 0. -1.
         25    2    1    2    0    0 -0.38579880086E+02 -0.16121764534E+02  0.62516926397E+03  0.63891277441E+03  0.12499842496E+03 0.  0.
          2    1    1    2  501    0  0.27590017141E+02 -0.19150407906E+02  0.49581533264E+02  0.59885520868E+02  0.00000000000E+00 0. -1.
          1    1    1    2  502    0  0.10989862945E+02  0.35272172440E+02  0.15817962660E+04  0.15822276481E+04  0.00000000000E+00 0. -1.
         22    1    3    3    0    0 -0.23623443768E+02 -0.58420547621E+02  0.16602775611E+03  0.17758446801E+03  0.00000000000E+00 0.  1.
         22    1    3    3    0    0 -0.14956436317E+02  0.42298783087E+02  0.45914150787E+03  0.46132830640E+03  0.00000000000E+00 0.  1.
</event>
<event>
 7    1  0.6219721E-006  0.4134140E+03  0.7818608E-02  0.1118307E+00
          2   -1    0    0  502    0  0.00000000000E+00  0.00000000000E+00  0.29723162467E+04  0.29723162467E+04  0.00000000000E+00 0. -1.
          1   -1    0    0  501    0 -0.00000000000E+00 -0.00000000000E+00 -0.11591029536E+04  0.11591029536E+04  0.00000000000E+00 0. -1.
         25    2    1    2    0    0  0.51466497959E+03 -0.20204595339E+03  0.26216253729E+04  0.26822102070E+04  0.12501755875E+03 0.  0.
          2    1    1    2  501    0 -0.38642941213E+03  0.14118352327E+03 -0.10728794002E+04  0.11490564326E+04  0.00000000000E+00 0. -1.
          1    1    1    2  502    0 -0.12823556746E+03  0.60862430125E+02  0.26446732046E+03  0.30015256080E+03  0.00000000000E+00 0. -1.
         22    1    3    3    0    0  0.36084324540E+03 -0.13271369348E+03  0.15270553428E+04  0.15747122887E+04  0.00000000000E+00 0. -1.
         22    1    3    3    0    0  0.15382173419E+03 -0.69332259914E+02  0.10945700301E+04  0.11074979183E+04  0.00000000000E+00 0. -1.
</event>
<event>
 7    1  0.6219721E-006  0.2077961E+03  0.7818608E-02  0.1339289E+00
          2   -1    0    0  502    0  0.00000000000E+00  0.00000000000E+00  0.19063177535E+04  0.19063177535E+04  0.00000000000E+00 0. -1.
          1   -1    0    0  501    0 -0.00000000000E+00 -0.00000000000E+00 -0.20635964421E+04  0.20635964421E+04  0.00000000000E+00 0. -1.
         25    2    1    2    0    0 -0.22632688825E+03 -0.56968159314E+01 -0.43048142214E+03  0.50219131906E+03  0.12500220827E+03 0.  0.
          2    1    1    2  501    0  0.19278381381E+02  0.20530579804E+02 -0.15913759418E+04  0.15916251283E+04  0.00000000000E+00 0. -1.
          1    1    1    2  502    0  0.20704850687E+03 -0.14833763873E+02  0.18645786753E+04  0.18760977483E+04  0.00000000000E+00 0. -1.
         22    1    3    3    0    0 -0.21613531704E+03 -0.42364093763E+02 -0.37541549960E+03  0.43525393629E+03  0.00000000000E+00 0.  1.
         22    1    3    3    0    0 -0.10191571215E+02  0.36667277831E+02 -0.55065922537E+02  0.66937382771E+02  0.00000000000E+00 0.  1.
</event>
<event>
 7    1  0.6219721E-006  0.5359716E+02  0.7818608E-02  0.1441372E+00
          2   -1    0    0  502    0  0.00000000000E+00  0.00000000000E+00  0.55604732797E+02  0.55604732797E+02  0.00000000000E+00 0. -1.
          1   -1    0    0  501    0 -0.00000000000E+00 -0.00000000000E+00 -0.19484032050E+04  0.19484032050E+04  0.00000000000E+00 0. -1.
         25    2    1    2    0    0 -0.14306007093E+02  0.24032606845E+01 -0.23064985693E+03  0.26273159299E+03  0.12497238077E+03 0.  0.
          2    1    1    2  501    0 -0.32503779499E+02 -0.35376925430E+02 -0.16804718772E+04  0.16811584555E+04  0.00000000000E+00 0. -1.
          1    1    1    2  502    0  0.46809786592E+02  0.32973664745E+02  0.18323261900E+02  0.60117889302E+02  0.00000000000E+00 0. -1.
         22    1    3    3    0    0  0.41190660411E+02 -0.37587231606E+02 -0.12495375751E+03  0.13683169224E+03  0.00000000000E+00 0.  1.
         22    1    3    3    0    0 -0.55496667504E+02  0.39990492291E+02 -0.10569609942E+03  0.12589990075E+03  0.00000000000E+00 0.  1.
</event>
<event>
 7    1  0.6219721E-006  0.9142897E+02  0.7818608E-02  0.1351073E+00
          2   -1    0    0  502    0  0.00000000000E+00  0.00000000000E+00  0.11826458357E+04  0.11826458357E+04  0.00000000000E+00 0. -1.
          1   -1    0    0  501    0 -0.00000000000E+00 -0.00000000000E+00 -0.87566721962E+03  0.87566721962E+03  0.00000000000E+00 0. -1.
         25    2    1    2    0    0 -0.11237786404E+03 -0.98808868970E+01 -0.93144459025E+02  0.19242262485E+03  0.12499664017E+03 0.  0.
          2    1    1    2  501    0  0.73953968104E+02  0.53118030483E+02 -0.72931258833E+03  0.73497453429E+03  0.00000000000E+00 0. -1.
          1    1    1    2  502    0  0.38423895939E+02 -0.43237143586E+02  0.11294356634E+04  0.11309158962E+04  0.00000000000E+00 0. -1.
         22    1    3    3    0    0 -0.90226130124E+02 -0.36812430755E+02 -0.11541121502E+03  0.15104852918E+03  0.00000000000E+00 0. -1.
         22    1    3    3    0    0 -0.22151733920E+02  0.26931543858E+02  0.22266755991E+02  0.41374095671E+02  0.00000000000E+00 0. -1.
</event>
<event>
 7    1  0.6219721E-006  0.6788444E+02  0.7818608E-02  0.1391446E+00
          2   -1    0    0  502    0  0.00000000000E+00  0.00000000000E+00  0.46891240937E+02  0.46891240937E+02  0.00000000000E+00 0. -1.
          1   -1    0    0  501    0 -0.00000000000E+00 -0.00000000000E+00 -0.77791926351E+03  0.77791926351E+03  0.00000000000E+00 0. -1.
         25    2    1    2    0    0 -0.34420510102E+02 -0.21526208230E+02 -0.30546925675E+03  0.33254334620E+03  0.12500184449E+03 0.  0.
          2    1    1    2  501    0  0.22960102961E+02 -0.50861484129E+02 -0.41439145538E+03  0.41813195906E+03  0.00000000000E+00 0. -1.
          1    1    1    2  502    0  0.11460407141E+02  0.72387692359E+02 -0.11167310450E+02  0.74135199194E+02  0.00000000000E+00 0. -1.
         22    1    3    3    0    0  0.31001453744E+02  0.23027600062E+02 -0.18073553266E+03  0.18481529499E+03  0.00000000000E+00 0.  1.
         22    1    3    3    0    0 -0.65421963846E+02 -0.44553808292E+02 -0.12473372409E+03  0.14772805121E+03  0.00000000000E+00 0.  1.
</event>
<event>
 7    1  0.6219721E-006  0.9111293E+02  0.7818608E-02  0.1415442E+00
          2   -1    0    0  502    0  0.00000000000E+00  0.00000000000E+00  0.32686353794E+03  0.32686353794E+03  0.00000000000E+00 0. -1.
          1   -1    0    0  501    0 -0.00000000000E+00 -0.00000000000E+00 -0.49088831935E+03  0.49088831935E+03  0.00000000000E+00 0. -1.
         25    2    1    2    0    0  0.16888541462E+02  0.94829751669E+02 -0.19031116796E+02  0.15894391603E+03  0.12499232137E+03 0.  0.
          2    1    1    2  501    0  0.17117992583E+02 -0.89542748194E+02 -0.39553956987E+03  0.40590944897E+03  0.00000000000E+00 0. -1.
          1    1    1    2  502    0 -0.34006534045E+02 -0.52870034749E+01  0.25054590526E+03  0.25289849229E+03  0.00000000000E+00 0. -1.
         22    1    3    3    0    0  0.20378625769E+02  0.87414005003E+02  0.40770251414E+02  0.98583518193E+02  0.00000000000E+00 0. -1.
         22    1    3    3    0    0 -0.34900843074E+01  0.74157466652E+01 -0.59801368210E+02  0.60360397836E+02  0.00000000000E+00 0. -1.
</event>
<event>
 7    1  0.6219721E-006  0.7972007E+02  0.7818608E-02  0.1447607E+00
          2   -1    0    0  502    0  0.00000000000E+00  0.00000000000E+00  0.42813059016E+03  0.42813059016E+03  0.00000000000E+00 0. -1.
          1   -1    0    0  501    0 -0.00000000000E+00 -0.00000000000E+00 -0.18816060383E+03  0.18816060383E+03  0.00000000000E+00 0. -1.
         25    2    1    2    0    0 -0.90983143144E+02 -0.47310651718E+02  0.23823739706E+03  0.28792080028E+03  0.12500039909E+03 0.  0.
          2    1    1    2  501    0  0.24375182274E+02  0.18890004232E+02 -0.15377015569E+03  0.15683189265E+03  0.00000000000E+00 0. -1.
          1    1    1    2  502    0  0.66607960870E+02  0.28420647487E+02  0.15550274496E+03  0.17153850106E+03  0.00000000000E+00 0. -1.
         22    1    3    3    0    0  0.10296245503E+01  0.27400899076E+02  0.10971241596E+03  0.11308706210E+03  0.00000000000E+00 0. -1.
         22    1    3    3    0    0 -0.92012767695E+02 -0.74711550795E+02  0.12852498110E+03  0.17483373818E+03  0.00000000000E+00 0. -1.
</event>
<event>
 7    1  0.6219721E-006  0.1340130E+03  0.7818608E-02  0.1244322E+00
          2   -1    0    0  502    0  0.00000000000E+00  0.00000000000E+00  0.12493190759E+04  0.12493190759E+04  0.00000000000E+00 0. -1.
          1   -1    0    0  501    0 -0.00000000000E+00 -0.00000000000E+00 -0.11390919135E+04  0.11390919135E+04  0.00000000000E+00 0. -1.
         25    2    1    2    0    0  0.10990003394E+03  0.76396618921E+02  0.26088355472E+03  0.31874870322E+03  0.12500418329E+03 0.  0.
          2    1    1    2  501    0 -0.13176854789E+03  0.27458233625E+02 -0.11031212454E+04  0.11113025632E+04  0.00000000000E+00 0. -1.
          1    1    1    2  502    0  0.21868513950E+02 -0.10385485255E+03  0.95246485313E+03  0.95835972304E+03  0.00000000000E+00 0. -1.
         22    1    3    3    0    0  0.45179805827E+02  0.42883862039E+02  0.23222508149E+03  0.24043445875E+03  0.00000000000E+00 0.  1.
         22    1    3    3    0    0  0.64720228110E+02  0.33512756882E+02  0.28658473228E+02  0.78314244478E+02  0.00000000000E+00 0.  1.
</event>
<event>
 7    1  0.6219721E-006  0.8654949E+02  0.7818608E-02  0.1461044E+00
          2   -1    0    0  502    0  0.00000000000E+00  0.00000000000E+00  0.59505251044E+03  0.59505251044E+03  0.00000000000E+00 0. -1.
          1   -1    0    0  501    0 -0.00000000000E+00 -0.00000000000E+00 -0.26686402225E+03  0.26686402225E+03  0.00000000000E+00 0. -1.
         25    2    1    2    0    0  0.25977356231E+02 -0.58225868420E+02 -0.86750240732E+02  0.16497145365E+03  0.12499960585E+03 0.  0.
          2    1    1    2  501    0 -0.21795368843E+01 -0.25650716715E+02 -0.13637315486E+03  0.13878165230E+03  0.00000000000E+00 0. -1.
          1    1    1    2  502    0 -0.23797819346E+02  0.83876585134E+02  0.55131188378E+03  0.55816342673E+03  0.00000000000E+00 0. -1.
         22    1    3    3    0    0 -0.39103770601E+02 -0.54229762012E+02 -0.71736212986E+02  0.98061492017E+02  0.00000000000E+00 0. -1.
         22    1    3    3    0    0  0.65081126832E+02 -0.39961064079E+01 -0.15014027746E+02  0.66909961630E+02  0.00000000000E+00 0. -1.
</event>
<event>
 7    1  0.6219721E-006  0.8672318E+02  0.7818608E-02  0.1381636E+00
          2   -1    0    0  502    0  0.00000000000E+00  0.00000000000E+00  0.24709212967E+04  0.24709212967E+04  0.00000000000E+00 0. -1.
          1   -1    0    0  501    0 -0.00000000000E+00 -0.00000000000E+00 -0.42355452258E+03  0.42355452258E+03  0.00000000000E+00 0. -1.
         25    2    1    2    0    0 -0.46921377963E+01  0.68824886523E+02  0.41392294970E+03  0.43785395964E+03  0.12500000209E+03 0.  0.
          2    1    1    2  501    0  0.51965271890E+02 -0.69816108841E+02 -0.40671114933E+03  0.41591902761E+03  0.00000000000E+00 0. -1.
          1    1    1    2  502    0 -0.47273134094E+02  0.99122231853E+00  0.20401549737E+04  0.20407028320E+04  0.00000000000E+00 0. -1.
         22    1    3    3    0    0 -0.41693197098E+02  0.89646766619E+02  0.25934623134E+03  0.27755239714E+03  0.00000000000E+00 0. -1.
         22    1    3    3    0    0  0.37001059302E+02 -0.20821880096E+02  0.15457671836E+03  0.16030156250E+03  0.00000000000E+00 0. -1.
</event>
<event>
 7    1  0.6219721E-006  0.8324833E+02  0.7818608E-02  0.1320330E+00
          2   -1    0    0  502    0  0.00000000000E+00  0.00000000000E+00  0.13895581391E+04  0.13895581391E+04  0.00000000000E+00 0. -1.
          1   -1    0    0  501    0 -0.00000000000E+00 -0.00000000000E+00 -0.39488876186E+02  0.39488876186E+02  0.00000000000E+00 0. -1.
         25    2    1    2    0    0  0.42116177591E+02 -0.96786187450E+02  0.73160339515E+03  0.74967567394E+03  0.12501499832E+03 0.  0.
          2    1    1    2  501    0 -0.80425764393E+02  0.20756133925E+02  0.35680671589E+02  0.90400392692E+02  0.00000000000E+00 0. -1.
          1    1    1    2  502    0  0.38309586802E+02  0.76030053525E+02  0.58278519618E+03  0.58897094866E+03  0.00000000000E+00 0. -1.
         22    1    3    3    0    0  0.76974337426E+02 -0.10047325397E+03  0.61627001385E+03  0.62913325564E+03  0.00000000000E+00 0. -1.
         22    1    3    3    0    0 -0.34858159836E+02  0.36870665204E+01  0.11533338130E+03  0.12054241829E+03  0.00000000000E+00 0. -1.
</event>
<event>
 7    1  0.6219721E-006  0.1469873E+03  0.7818608E-02  0.1253620E+00
          2   -1    0    0  502    0  0.00000000000E+00  0.00000000000E+00  0.24060273634E+04  0.24060273634E+04  0.00000000000E+00 0. -1.
          1   -1    0    0  501    0 -0.00000000000E+00 -0.00000000000E+00 -0.39077450491E+03  0.39077450491E+03  0.00000000000E+00 0. -1.
         25    2    1    2    0    0  0.39206717047E+02  0.10476892533E+03  0.17897803203E+02  0.16869567030E+03  0.12499681372E+03 0.  0.
          2    1    1    2  501    0  0.85105417143E+02 -0.23033107068E+02 -0.30676717948E+03  0.31918577420E+03  0.00000000000E+00 0. -1.
          1    1    1    2  502    0 -0.12431213419E+03 -0.81735818264E+02  0.23041222348E+04  0.23089204238E+04  0.00000000000E+00 0. -1.
         22    1    3    3    0    0  0.92474902589E+01  0.12608346892E+03  0.30100043394E+02  0.12995603034E+03  0.00000000000E+00 0. -1.
         22    1    3    3    0    0  0.29959226788E+02 -0.21314543586E+02 -0.12202240191E+02  0.38739639953E+02  0.00000000000E+00 0. -1.
</event>
<event>
 7    1  0.6219721E-006  0.1933564E+03  0.7818608E-02  0.1264125E+00
          2   -1    0    0  502    0  0.00000000000E+00  0.00000000000E+00  0.15075770051E+04  0.15075770051E+04  0.00000000000E+00 0. -1.
          1   -1    0    0  501    0 -0.00000000000E+00 -0.00000000000E+00 -0.64621933610E+03  0.64621933610E+03  0.00000000000E+00 0. -1.
         25    2    1    2    0    0 -0.22546041655E+03 -0.93766662798E+02  0.57781271849E+02  0.28033408979E+03  0.12499576008E+03 0.  0.
          2    1    1    2  501    0  0.18089976469E+03  0.52935813325E+02 -0.51762749145E+03  0.55087670590E+03  0.00000000000E+00 0. -1.
          1    1    1    2  502    0  0.44560651854E+02  0.40830849474E+02  0.13212038886E+04  0.13225855456E+04  0.00000000000E+00 0. -1.
         22    1    3    3    0    0 -0.22910277865E+03 -0.11178265731E+03  0.47607835384E+02  0.25932595637E+03  0.00000000000E+00 0.  1.
         22    1    3    3    0    0  0.36423621012E+01  0.18015994512E+02  0.10173436465E+02  0.21008133411E+02  0.00000000000E+00 0.  1.
</event>
<event>
 7    1  0.6219721E-006  0.1625610E+03  0.7818608E-02  0.1340221E+00
          2   -1    0    0  502    0  0.00000000000E+00  0.00000000000E+00  0.14990678695E+03  0.14990678695E+03  0.00000000000E+00 0. -1.
          1   -1    0    0  501    0 -0.00000000000E+00 -0.00000000000E+00 -0.23950736843E+04  0.23950736843E+04  0.00000000000E+00 0. -1.
         25    2    1    2    0    0 -0.67573127173E+02 -0.12789615961E+03 -0.39952772468E+03  0.44291234388E+03  0.12500154565E+03 0.  0.
          2    1    1    2  501    0  0.48987473174E+02  0.15838907469E+03 -0.19678117258E+04  0.19747834969E+04  0.00000000000E+00 0. -1.
          1    1    1    2  502    0  0.18585653999E+02 -0.30492915088E+02  0.12217255314E+03  0.12728463044E+03  0.00000000000E+00 0. -1.
         22    1    3    3    0    0 -0.83910065461E+02 -0.11044017231E+03 -0.39491389870E+03  0.41856292016E+03  0.00000000000E+00 0. -1.
         22    1    3    3    0    0  0.16336938288E+02 -0.17455987298E+02 -0.46138259751E+01  0.24349423716E+02  0.00000000000E+00 0. -1.
</event>
<event>
 7    1  0.6219721E-006  0.1712399E+03  0.7818608E-02  0.1219413E+00
          2   -1    0    0  502    0  0.00000000000E+00  0.00000000000E+00  0.75653418448E+02  0.75653418448E+02  0.00000000000E+00 0. -1.
          1   -1    0    0  501    0 -0.00000000000E+00 -0.00000000000E+00 -0.13389900416E+04  0.13389900416E+04  0.00000000000E+00 0. -1.
         25    2    1    2    0    0 -0.13034179440E+03  0.14899921329E+03 -0.50117638887E+03  0.55316113863E+03  0.12497889262E+03 0.  0.
          2    1    1    2  501    0  0.16303898908E+03 -0.46765024893E+02 -0.72998060657E+03  0.74942669120E+03  0.00000000000E+00 0. -1.
          1    1    1    2  502    0 -0.32697194685E+02 -0.10223418840E+03 -0.32179627673E+02  0.11205563018E+03  0.00000000000E+00 0. -1.
         22    1    3    3    0    0 -0.50575074454E+02  0.53687702408E+00 -0.48275219317E+02  0.69918689869E+02  0.00000000000E+00 0. -1.
         22    1    3    3    0    0 -0.79766719945E+02  0.14846233627E+03 -0.45290116955E+03  0.48324244876E+03  0.00000000000E+00 0. -1.
</event>
<event>
 7    1  0.6219721E-006  0.4319802E+02  0.7818608E-02  0.1519705E+00
          2   -1    0    0  502    0  0.00000000000E+00  0.00000000000E+00  0.10362773948E+04  0.10362773948E+04  0.00000000000E+00 0. -1.
          1   -1    0    0  501    0 -0.00000000000E+00 -0.00000000000E+00 -0.70375720035E+02  0.70375720035E+02  0.00000000000E+00 0. -1.
         25    2    1    2    0    0  0.41802383345E+02 -0.91386905603E+01  0.71972319519E+01  0.13232305019E+03  0.12500653801E+03 0.  0.
          2    1    1    2  501    0 -0.61449618874E+01  0.33721861986E+02  0.32894438503E+02  0.47507563786E+02  0.00000000000E+00 0. -1.
          1    1    1    2  502    0 -0.35657421458E+02 -0.24583171426E+02  0.92581000431E+03  0.92682250086E+03  0.00000000000E+00 0. -1.
         22    1    3    3    0    0  0.66878308522E+02 -0.50438319313E+02  0.29010351680E+01  0.83816157219E+02  0.00000000000E+00 0.  1.
         22    1    3    3    0    0 -0.25075925177E+02  0.41299628753E+02  0.42961967839E+01  0.48506892968E+02  0.00000000000E+00 0.  1.
</event>
<event>
 7    1  0.6219721E-006  0.1346626E+03  0.7818608E-02  0.1393512E+00
          2   -1    0    0  502    0  0.00000000000E+00  0.00000000000E+00  0.93849281051E+03  0.93849281051E+03  0.00000000000E+00 0. -1.
          1   -1    0    0  501    0 -0.00000000000E+00 -0.00000000000E+00 -0.10409158706E+03  0.10409158706E+03  0.00000000000E+00 0. -1.
         25    2    1    2    0    0  0.15584858526E+03  0.24795563674E+02  0.45000072649E+03  0.49297983438E+03  0.12499944703E+03 0.  0.
          2    1    1    2  501    0 -0.13159514023E+03 -0.11477111457E+02 -0.29031810589E+02  0.13524736983E+03  0.00000000000E+00 0. -1.
          1    1    1    2  502    0 -0.24253445035E+02 -0.13318452217E+02  0.41343230755E+03  0.41435719336E+03  0.00000000000E+00 0. -1.
         22    1    3    3    0    0 -0.76763299681E+01  0.22603123178E+02  0.14850880180E+02  0.28113624123E+02  0.00000000000E+00 0. -1.
         22    1    3    3    0    0  0.16352491523E+03  0.21924404964E+01  0.43514984631E+03  0.46486621026E+03  0.00000000000E+00 0. -1.
</event>
<event>
 7    1  0.6219721E-006  0.7159901E+02  0.7818608E-02  0.1370777E+00
          2   -1    0    0  502    0  0.00000000000E+00  0.00000000000E+00  0.22664112555E+04  0.22664112555E+04  0.00000000000E+00 0. -1.
          1   -1    0    0  501    0 -0.00000000000E+00 -0.00000000000E+00 -0.30395346761E+03  0.30395346761E+03  0.00000000000E+00 0. -1.
         25    2    1    2    0    0  0.19623932737E+02  0.16942476955E+02 -0.10122826186E+03  0.16292140603E+03  0.12499630907E+03 0.  0.
          2    1    1    2  501    0 -0.68401581666E+02 -0.56188440762E+02 -0.16001132294E+03  0.18286481542E+03  0.00000000000E+00 0. -1.
          1    1    1    2  502    0  0.48777648929E+02  0.39245963806E+02  0.22236973727E+04  0.22245785017E+04  0.00000000000E+00 0. -1.
         22    1    3    3    0    0  0.97447762313E+01 -0.24589031684E+01 -0.12801150327E+03  0.12840541982E+03  0.00000000000E+00 0.  1.
         22    1    3    3    0    0  0.98791565054E+01  0.19401380124E+02  0.26783241407E+02  0.34515986213E+02  0.00000000000E+00 0.  1.
</event>
<event>
 7    1  0.6219721E-006  0.1214771E+03  0.7818608E-02  0.1299978E+00
          2   -1    0    0  502    0  0.00000000000E+00  0.00000000000E+00  0.12321429219E+04  0.12321429219E+04  0.00000000000E+00 0. -1.
          1   -1    0    0  501    0 -0.00000000000E+00 -0.00000000000E+00 -0.64251538945E+03  0.64251538945E+03  0.00000000000E+00 0. -1.
         25    2    1    2    0    0  0.80054089974E+02  0.32066151653E+02  0.68113719392E+02  0.16643785800E+03  0.12500074561E+03 0.  0.
          2    1    1    2  501    0  0.42988731530E+02 -0.53286690445E+02 -0.58786445024E+03  0.59183791216E+03  0.00000000000E+00 0. -1.
          1    1    1    2  502    0 -0.12304282150E+03  0.21220538791E+02  0.11093782633E+04  0.11163825412E+04  0.00000000000E+00 0. -1.
         22    1    3    3    0    0  0.36251065464E+02  0.78262506364E+01  0.10028943711E+03  0.10692689625E+03  0.00000000000E+00 0.  1.
         22    1    3    3    0    0  0.43803024510E+02  0.24239901017E+02 -0.32175717718E+02  0.59510961748E+02  0.00000000000E+00 0.  1.
</event>
<event>
 7    1  0.6219721E-006  0.5419432E+02  0.7818608E-02  0.1558457E+00
          2   -1    0    0  502    0  0.00000000000E+00  0.00000000000E+00  0.23177926368E+04  0.23177926368E+04  0.00000000000E+00 0. -1.
          1   -1    0    0  501    0 -0.00000000000E+00 -0.00000000000E+00 -0.28342080394E+02  0.28342080394E+02  0.00000000000E+00 0. -1.
         25    2    1    2    0    0 -0.21951543523E+02  0.62201304027E+02  0.32847796970E+03  0.35759867555E+03  0.12501265412E+03 0.  0.
          2    1    1    2  501    0 -0.10006475959E+02 -0.18716519175E+02 -0.50149682157E+01  0.21807970042E+02  0.00000000000E+00 0. -1.
          1    1    1    2  502    0  0.31958019481E+02 -0.43484784851E+02  0.19659875549E+04  0.19667280716E+04  0.00000000000E+00 0. -1.
         22    1    3    3    0    0  0.29967028891E+02  0.53607323305E+02  0.27791224619E+03  0.28461725970E+03  0.00000000000E+00 0.  1.
         22    1    3    3    0    0 -0.51918572413E+02  0.85939807217E+01  0.50565723505E+02  0.72981415851E+02  0.00000000000E+00 0.  1.
</event>
<event>
 7    1  0.6219721E-006  0.4611265E+02  0.7818608E-02  0.1528813E+00
          2   -1    0    0  502    0  0.00000000000E+00  0.00000000000E+00  0.17735150773E+04  0.17735150773E+04  0.00000000000E+00 0. -1.
          1   -1    0    0  501    0 -0.00000000000E+00 -0.00000000000E+00 -0.30814060412E+03  0.30814060412E+03  0.00000000000E+00 0. -1.
         25    2    1    2    0    0  0.60083890659E+02  0.43479838517E+01  0.15761941798E+04  0.15822897675E+04  0.12499534817E+03 0.  0.
          2    1    1    2  501    0 -0.41709017752E+02  0.19648942714E+02 -0.30215794749E+03  0.30565527698E+03  0.00000000000E+00 0. -1.
          1    1    1    2  502    0 -0.18374872907E+02 -0.23996926566E+02  0.19133824087E+03  0.19371063693E+03  0.00000000000E+00 0. -1.
         22    1    3    3    0    0 -0.19208851484E+02 -0.29852186143E+02  0.88652123671E+03  0.88723166993E+03  0.00000000000E+00 0. -1.
         22    1    3    3    0    0  0.79292742143E+02  0.34200169994E+02  0.68967294311E+03  0.69505809760E+03  0.00000000000E+00 0. -1.
</event>
<event>
 7    1  0.6219721E-006  0.1083900E+03  0.7818608E-02  0.1292722E+00
          2   -1    0    0  502    0  0.00000000000E+00  0.00000000000E+00  0.26510908590E+03  0.26510908590E+03  0.00000000000E+00 0. -1.
          1   -1    0    0  501    0 -0.00000000000E+00 -0.00000000000E+00 -0.20784408527E+03  0.20784408527E+03  0.00000000000E+00 0. -1.
         25    2    1    2    0    0 -0.14362610019E+02  0.43122642342E+02 -0.29797043224E+02  0.13630420805E+03  0.12500050599E+03 0.  0.
          2    1    1    2  501    0  0.15442810005E+02  0.80605259829E+02 -0.89252343683E+02  0.12125043978E+03  0.00000000000E+00 0. -1.
          1    1    1    2  502    0 -0.10801999858E+01 -0.12372790217E+03  0.17631438754E+03  0.21539852335E+03  0.00000000000E+00 0. -1.
         22    1    3    3    0    0  0.25588923360E+02  0.74341407224E+02 -0.33511018701E+02  0.85465935911E+02  0.00000000000E+00 0. -1.
         22    1    3    3    0    0 -0.39951533379E+02 -0.31218764882E+02  0.37139754775E+01  0.50838272138E+02  0.00000000000E+00 0. -1.
</event>
<event>
 7    1  0.6219721E-006  0.1624290E+03  0.7818608E-02  0.1286900E+00
          2   -1    0    0  502    0  0.00000000000E+00  0.00000000000E+00  0.19301148730E+03  0.19301148730E+03  0.00000000000E+00 0. -1.
          1   -1    0    0  501    0 -0.00000000000E+00 -0.00000000000E+00 -0.88052978749E+03  0.88052978749E+03  0.00000000000E+00 0. -1.
         25    2    1    2    0    0 -0.10067735327E+02 -0.13981226125E+03 -0.41021279129E+03  0.45116719393E+03  0.12501389941E+03 0.  0.
          2    1    1    2  501    0 -0.28138562524E+02  0.18323252777E+03 -0.42504761108E+03  0.46371479340E+03  0.00000000000E+00 0. -1.
          1    1    1    2  502    0  0.38206297851E+02 -0.43420266517E+02  0.14774210218E+03  0.15865928746E+03  0.00000000000E+00 0. -1.
         22    1    3    3    0    0 -0.29414793050E+02 -0.41061756533E+02 -0.31993330894E+02  0.59790225969E+02  0.00000000000E+00 0. -1.
         22    1    3    3    0    0  0.19347057722E+02 -0.98750504721E+02 -0.37821946040E+03  0.39137696796E+03  0.00000000000E+00 0. -1.
</event>
<event>
 7    1  0.6219721E-006  0.8376815E+02  0.7818608E-02  0.1441410E+00
          2   -1    0    0  502    0  0.00000000000E+00  0.00000000000E+00  0.17580673615E+04  0.17580673615E+04  0.00000000000E+00 0. -1.
          1   -1    0    0  501    0 -0.00000000000E+00 -0.00000000000E+00 -0.75555670948E+03  0.75555670948E+03  0.00000000000E+00 0. -1.
         25    2    1    2    0    0 -0.51717464570E+02 -0.20359121751E+02 -0.48916550961E+02  0.14528032493E+03  0.12499741547E+03 0.  0.
          2    1    1    2  501    0  0.75658220425E+02  0.39624428008E+02 -0.65554995203E+03  0.66109000992E+03  0.00000000000E+00 0. -1.
          1    1    1    2  502    0 -0.23940755855E+02 -0.19265306257E+02  0.17069771550E+04  0.17072537361E+04  0.00000000000E+00 0. -1.
         22    1    3    3    0    0 -0.76172015597E+02 -0.19708389804E+02 -0.75576008697E+02  0.10909779869E+03  0.00000000000E+00 0.  1.
         22    1    3    3    0    0  0.24454551027E+02 -0.65073194679E+00  0.26659457736E+02  0.36182526235E+02  0.00000000000E+00 0.  1.
</event>
<event>
 7    1  0.6219721E-006  0.4887176E+02  0.7818608E-02  0.1456064E+00
          2   -1    0    0  502    0  0.00000000000E+00  0.00000000000E+00  0.38878677842E+03  0.38878677842E+03  0.00000000000E+00 0. -1.
          1   -1    0    0  501    0 -0.00000000000E+00 -0.00000000000E+00 -0.20958591049E+04  0.20958591049E+04  0.00000000000E+00 0. -1.
         25    2    1    2    0    0  0.17087158981E+02  0.32050744135E+01  0.72076069278E+02  0.14533267538E+03  0.12499753305E+03 0.  0.
          2    1    1    2  501    0  0.32369419555E+01 -0.48764442052E+02 -0.20567167930E+04  0.20572973570E+04  0.00000000000E+00 0. -1.
          1    1    1    2  502    0 -0.20324100937E+02  0.45559367639E+02  0.27756839720E+03  0.28201585094E+03  0.00000000000E+00 0. -1.
         22    1    3    3    0    0  0.46729205804E+02 -0.28851830426E+02  0.83738456628E+02  0.10014078047E+03  0.00000000000E+00 0. -1.
         22    1    3    3    0    0 -0.29642046822E+02  0.32056904839E+02 -0.11662387350E+02  0.45191894919E+02  0.00000000000E+00 0. -1.
</event>
<event>
 7    1  0.6219721E-006  0.4827029E+02  0.7818608E-02  0.1470157E+00
          2   -1    0    0  502    0  0.00000000000E+00  0.00000000000E+00  0.90736089918E+03  0.90736089918E+03  0.00000000000E+00 0. -1.
          1   -1    0    0  501    0 -0.00000000000E+00 -0.00000000000E+00 -0.27915145575E+04  0.27915145575E+04  0.00000000000E+00 0. -1.
         25    2    1    2    0    0 -0.90403200994E+00 -0.51069502182E+01  0.91677600995E+02  0.15510138260E+03  0.12499903258E+03 0.  0.
          2    1    1    2  501    0  0.15470659973E+02  0.45802108803E+02 -0.27589949691E+04  0.27594184920E+04  0.00000000000E+00 0. -1.
          1    1    1    2  502    0 -0.14566627963E+02 -0.40695158585E+02  0.78316370985E+03  0.78435558200E+03  0.00000000000E+00 0. -1.
         22    1    3    3    0    0 -0.28875754027E+02  0.75312312634E+01  0.11355352544E+03  0.11740924902E+03  0.00000000000E+00 0.  1.
         22    1    3    3    0    0  0.27971722017E+02 -0.12638181482E+02 -0.21875924444E+02  0.37692133583E+02  0.00000000000E+00 0.  1.
</event>
<event>
 7    1  0.6219721E-006  0.1379462E+03  0.7818608E-02  0.1277131E+00
          2   -1    0    0  502    0  0.00000000000E+00  0.00000000000E+00  0.53942454480E+03  0.53942454480E+03  0.00000000000E+00 0. -1.
          1   -1    0    0  501    0 -0.00000000000E+00 -0.00000000000E+00 -0.89044357219E+02  0.89044357219E+02  0.00000000000E+00 0. -1.
         25    2    1    2    0    0  0.59108249578E+02 -0.79182315050E+02  0.22993412363E+03  0.27975190078E+03  0.12501120187E+03 0.  0.
          2    1    1    2  501    0 -0.41191256716E+02  0.15171495581E+03  0.53917482799E+02  0.16619639706E+03  0.00000000000E+00 0. -1.
          1    1    1    2  502    0 -0.17916992862E+02 -0.72532640760E+02  0.16652858115E+03  0.18252060418E+03  0.00000000000E+00 0. -1.
         22    1    3    3    0    0 -0.20059482029E+02 -0.67395237980E+02  0.62117284183E+02  0.93824612527E+02  0.00000000000E+00 0. -1.
         22    1    3    3    0    0  0.79167731607E+02 -0.11787077070E+02  0.16781683945E+03  0.18592728825E+03  0.00000000000E+00 0. -1.
</event>
<event>
 7    1  0.6219721E-006  0.6128522E+02  0.7818608E-02  0.1403706E+00
          2   -1    0    0  502    0  0.00000000000E+00  0.00000000000E+00  0.53847720549E+03  0.53847720549E+03  0.00000000000E+00 0. -1.
          1   -1    0    0  501    0 -0.00000000000E+00 -0.00000000000E+00 -0.66257736903E+03  0.66257736903E+03  0.00000000000E+00 0. -1.
         25    2    1    2    0    0  0.59400158403E+02 -0.69527343991E+02 -0.14436741616E+02  0.15556160406E+03  0.12501425026E+03 0.  0.
          2    1    1    2  501    0  0.88834368537E-01  0.56075197048E+02 -0.57421913315E+03  0.57695064649E+03  0.00000000000E+00 0. -1.
          1    1    1    2  502    0 -0.59488992772E+02  0.13452146943E+02  0.46455571123E+03  0.46854232397E+03  0.00000000000E+00 0. -1.
         22    1    3    3    0    0  0.79978480005E+02 -0.52712980055E+02  0.32896476499E+02  0.10127879194E+03  0.00000000000E+00 0. -1.
         22    1    3    3    0    0 -0.20578321602E+02 -0.16814363935E+02 -0.47333218115E+02  0.54282812120E+02  0.00000000000E+00 0. -1.
</event>
<event>
 7    1  0.6925620E-006  0.1173741E+03  0.7818608E-02  0.1311316E+00
          2   -1    0    0  502    0  0.00000000000E+00  0.00000000000E+00  0.26511637482E+04  0.26511637482E+04  0.00000000000E+00 0. -1.
          1   -1    0    0  501    0 -0.00000000000E+00 -0.00000000000E+00 -0.18867424437E+04  0.18867424437E+04  0.00000000000E+00 0. -1.
         25    2    1    2    0    0  0.16133853015E+03  0.68428200669E+02 -0.44750004270E+03  0.49658234769E+03  0.12500079944E+03 0.  0.
          2    1    1    2  501    0 -0.10614350475E+03 -0.36258169885E+02 -0.14120885650E+04  0.14165363440E+04  0.00000000000E+00 0. -1.
          1    1    1    2  502    0 -0.55195025402E+02 -0.32170030784E+02  0.26240099122E+04  0.26247875001E+04  0.00000000000E+00 0. -1.
         22    1    3    3    0    0  0.76725183904E+01 -0.21751704472E+02 -0.13415392621E+03  0.13612229834E+03  0.00000000000E+00 0. -1.
         22    1    3    3    0    0  0.15366601176E+03  0.90179905140E+02 -0.31334611649E+03  0.36046004935E+03  0.00000000000E+00 0. -1.
</event>
<event>
 7    1  0.6219721E-006  0.9457895E+02  0.7818608E-02  0.1327111E+00
          2   -1    0    0  502    0  0.00000000000E+00  0.00000000000E+00  0.24838471364E+03  0.24838471364E+03  0.00000000000E+00 0. -1.
          1   -1    0    0  501    0 -0.00000000000E+00 -0.00000000000E+00 -0.11984208187E+04  0.11984208187E+04  0.00000000000E+00 0. -1.
         25    2    1    2    0    0  0.12416959165E+03 -0.11775896951E+02 -0.10910128278E+03  0.20756833295E+03  0.12499905479E+03 0.  0.
          2    1    1    2  501    0 -0.83360554839E+02 -0.43659589635E+02 -0.10319321985E+04  0.10362138795E+04  0.00000000000E+00 0. -1.
          1    1    1    2  502    0 -0.40809036808E+02  0.55435486586E+02  0.19099737624E+03  0.20302331982E+03  0.00000000000E+00 0. -1.
         22    1    3    3    0    0  0.11338384149E+03 -0.49410778512E+02 -0.11388370198E+03  0.16812738659E+03  0.00000000000E+00 0. -1.
         22    1    3    3    0    0  0.10785750158E+02  0.37634881561E+02  0.47824191959E+01  0.39440946362E+02  0.00000000000E+00 0. -1.
</event>
<event>
 7    1  0.6219721E-006  0.1279326E+03  0.7818608E-02  0.1372801E+00
          2   -1    0    0  502    0  0.00000000000E+00  0.00000000000E+00  0.89011310671E+03  0.89011310671E+03  0.00000000000E+00 0. -1.
          1   -1    0    0  501    0 -0.00000000000E+00 -0.00000000000E+00 -0.52691310791E+03  0.52691310791E+03  0.00000000000E+00 0. -1.
         25    2    1    2    0    0  0.13520097583E+03 -0.16405047157E+00  0.16112876287E-01  0.18412983549E+03  0.12499786110E+03 0.  0.
          2    1    1    2  501    0 -0.12338344568E+03  0.32531678870E+02 -0.42511133103E+03  0.44384842972E+03  0.00000000000E+00 0. -1.
          1    1    1    2  502    0 -0.11817530152E+02 -0.32367628398E+02  0.78829521695E+03  0.78904794940E+03  0.00000000000E+00 0. -1.
         22    1    3    3    0    0 -0.15249604593E+02 -0.24928650580E+02 -0.11076314382E+02  0.31251764754E+02  0.00000000000E+00 0.  1.
         22    1    3    3    0    0  0.15045058043E+03  0.24764600108E+02  0.11092427258E+02  0.15287807074E+03  0.00000000000E+00 0.  1.
</event>
<event>
 7    1  0.6219721E-006  0.1822490E+03  0.7818608E-02  0.1293981E+00
          2   -1    0    0  502    0  0.00000000000E+00  0.00000000000E+00  0.33951000714E+03  0.33951000714E+03  0.00000000000E+00 0. -1.
          1   -1    0    0  501    0 -0.00000000000E+00 -0.00000000000E+00 -0.12171602445E+04  0.12171602445E+04  0.00000000000E+00 0. -1.
         25    2    1    2    0    0 -0.74521351928E+02  0.12135745620E+03  0.90715051251E+01  0.18970319609E+03  0.12499578526E+03 0.  0.
          2    1    1    2  501    0  0.11736494912E+03 -0.14353061411E+03 -0.11166982975E+04  0.11319852720E+04  0.00000000000E+00 0. -1.
          1    1    1    2  502    0 -0.42843597195E+02  0.22173157903E+02  0.22997655498E+03  0.23498178354E+03  0.00000000000E+00 0. -1.
         22    1    3    3    0    0 -0.18045037937E+02 -0.15799044797E+02 -0.27944109584E+02  0.36825350930E+02  0.00000000000E+00 0. -1.
         22    1    3    3    0    0 -0.56476313991E+02  0.13715650100E+03  0.37015614709E+02  0.15287784516E+03  0.00000000000E+00 0. -1.
</event>
<event>
 7    1  0.6219721E-006  0.9744363E+02  0.7818608E-02  0.1311500E+00
          2   -1    0    0  502    0  0.00000000000E+00  0.00000000000E+00  0.13286317063E+03  0.13286317063E+03  0.00000000000E+00 0. -1.
          1   -1    0    0  501    0 -0.00000000000E+00 -0.00000000000E+00 -0.75936808254E+03  0.75936808254E+03  0.00000000000E+00 0. -1.
         25    2    1    2    0    0 -0.22221376863E+02 -0.16493907262E+03 -0.47560320231E+03  0.51915590105E+03  0.12500302508E+03 0.  0.
          2    1    1    2  501    0 -0.10441228201E+02  0.76111608135E+02 -0.23452169271E+03  0.24678415769E+03  0.00000000000E+00 0. -1.
          1    1    1    2  502    0  0.32662605064E+02  0.88827464485E+02  0.83619983101E+02  0.12629119443E+03  0.00000000000E+00 0. -1.
         22    1    3    3    0    0 -0.79759672339E+01  0.16689561053E+01  0.54936325767E+01  0.98275870225E+01  0.00000000000E+00 0.  1.
         22    1    3    3    0    0 -0.14245409629E+02 -0.16660802872E+03 -0.48109683489E+03  0.50932831403E+03  0.00000000000E+00 0.  1.
</event>
<event>
 7    1  0.6219721E-006  0.1052211E+03  0.7818608E-02  0.1348900E+00
          2   -1    0    0  502    0  0.00000000000E+00  0.00000000000E+00  0.51457571190E+03  0.51457571190E+03  0.00000000000E+00 0. -1.
          1   -1    0    0  501    0 -0.00000000000E+00 -0.00000000000E+00 -0.98248117708E+02  0.98248117708E+02  0.00000000000E+00 0. -1.
         25    2    1    2    0    0 -0.13272361177E+03  0.12307115559E+02  0.34128168676E+03  0.38712615154E+03  0.12500578098E+03 0.  0.
          2    1    1    2  501    0  0.48470924753E+02  0.16497844887E+02 -0.50411975501E+02  0.71853856586E+02  0.00000000000E+00 0. -1.
          1    1    1    2  502    0  0.84252687017E+02 -0.28804960446E+02  0.12545788293E+03  0.15384382148E+03  0.00000000000E+00 0. -1.
         22    1    3    3    0    0  0.15060499632E+01 -0.35737508292E+02  0.10757487701E+03  0.11336574372E+03  0.00000000000E+00 0.  1.
         22    1    3    3    0    0 -0.13422966173E+03  0.48044623850E+02  0.23370680975E+03  0.27376040782E+03  0.00000000000E+00 0.  1.
</event>
<event>
 7    1  0.6219721E-006  0.4686740E+02  0.7818608E-02  0.1503626E+00
          2   -1    0    0  502    0  0.00000000000E+00  0.00000000000E+00  0.10545215147E+04  0.10545215147E+04  0.00000000000E+00 0. -1.
          1   -1    0    0  501    0 -0.00000000000E+00 -0.00000000000E+00 -0.31343035117E+02  0.31343035117E+02  0.00000000000E+00 0. -1.
         25    2    1    2    0    0 -0.13579495741E+02  0.62058310104E+02  0.32224152067E+03  0.35142551141E+03  0.12499862347E+03 0.  0.
          2    1    1    2  501    0  0.32736189855E+02 -0.32500504957E+02  0.16342290110E+02  0.48938853631E+02  0.00000000000E+00 0. -1.
          1    1    1    2  502    0 -0.19156694114E+02 -0.29557805147E+02  0.68459466883E+03  0.68550018480E+03  0.00000000000E+00 0. -1.
         22    1    3    3    0    0 -0.64259757479E+02  0.60442165438E+02  0.22674555034E+03  0.24330252032E+03  0.00000000000E+00 0. -1.
         22    1    3    3    0    0  0.50680261738E+02  0.16161446662E+01  0.95495970333E+02  0.10812299109E+03  0.00000000000E+00 0. -1.
</event>
<event>
 7    1  0.6219721E-006  0.4720940E+02  0.7818608E-02  0.1463698E+00
          2   -1    0    0  502    0  0.00000000000E+00  0.00000000000E+00  0.29609881394E+03  0.29609881394E+03  0.00000000000E+00 0. -1.
          1   -1    0    0  501    0 -0.00000000000E+00 -0.00000000000E+00 -0.71048988842E+03  0.71048988842E+03  0.00000000000E+00 0. -1.
         25    2    1    2    0    0 -0.25254044937E+02 -0.20979536173E+02 -0.10555554905E+03  0.16686981044E+03  0.12500260788E+03 0.  0.
          2    1    1    2  501    0 -0.17107921421E+02  0.43020125414E+02 -0.57118532821E+03  0.57305854093E+03  0.00000000000E+00 0. -1.
          1    1    1    2  502    0  0.42361966358E+02 -0.22040589242E+02  0.26234980279E+03  0.26666035099E+03  0.00000000000E+00 0. -1.
         22    1    3    3    0    0 -0.72509411135E+02  0.18115884024E+01 -0.39750331340E+02  0.82710249651E+02  0.00000000000E+00 0. -1.
         22    1    3    3    0    0  0.47255366198E+02 -0.22791124575E+02 -0.65805217713E+02  0.84159560789E+02  0.00000000000E+00 0. -1.
</event>
<event>
 7    1  0.6219721E-006  0.8202267E+02  0.7818608E-02  0.1368848E+00
          2   -1    0    0  502    0  0.00000000000E+00  0.00000000000E+00  0.15648261702E+03  0.15648261702E+03  0.00000000000E+00 0. -1.
          1   -1    0    0  501    0 -0.00000000000E+00 -0.00000000000E+00 -0.80040488239E+03  0.80040488239E+03  0.00000000000E+00 0. -1.
         25    2    1    2    0    0  0.21683791028E+02  0.26208223555E+02 -0.64623622832E+01  0.12970101107E+03  0.12499412935E+03 0.  0.
          2    1    1    2  501    0 -0.19751818072E+02 -0.81704391834E+02 -0.72154246314E+03  0.72642223815E+03  0.00000000000E+00 0. -1.
          1    1    1    2  502    0 -0.19319729560E+01  0.55496168279E+02  0.84082560054E+02  0.10076425020E+03  0.00000000000E+00 0. -1.
         22    1    3    3    0    0  0.36705511563E+02 -0.15785620689E+02 -0.52253651400E+02  0.65779362145E+02  0.00000000000E+00 0.  1.
         22    1    3    3    0    0 -0.15021720534E+02  0.41993844244E+02  0.45791289117E+02  0.63921648924E+02  0.00000000000E+00 0.  1.
</event>
<event>
 7    1  0.6219721E-006  0.6094599E+02  0.7818608E-02  0.1531668E+00
          2   -1    0    0  502    0  0.00000000000E+00  0.00000000000E+00  0.10443092408E+04  0.10443092408E+04  0.00000000000E+00 0. -1.
          1   -1    0    0  501    0 -0.00000000000E+00 -0.00000000000E+00 -0.47691830740E+03  0.47691830740E+03  0.00000000000E+00 0. -1.
         25    2    1    2    0    0 -0.67601052550E+02 -0.43191223677E+02 -0.32682347845E+03  0.35898821849E+03  0.12499428324E+03 0.  0.
          2    1    1    2  501    0  0.11631415973E+02  0.19191754206E+02 -0.13216407732E+03  0.13405579659E+03  0.00000000000E+00 0. -1.
          1    1    1    2  502    0  0.55969636577E+02  0.23999469471E+02  0.10263784891E+04  0.10281835331E+04  0.00000000000E+00 0. -1.
         22    1    3    3    0    0 -0.77813992747E+02 -0.78377962517E+02 -0.26545699600E+03  0.28751615468E+03  0.00000000000E+00 0.  1.
         22    1    3    3    0    0  0.10212940197E+02  0.35186738841E+02 -0.61366482448E+02  0.71472063813E+02  0.00000000000E+00 0.  1.
</event>
<event>
 7    1  0.6219721E-006  0.6742101E+02  0.7818608E-02  0.1399864E+00
          2   -1    0    0  502    0  0.00000000000E+00  0.00000000000E+00  0.56460170646E+03  0.56460170646E+03  0.00000000000E+00 0. -1.
          1   -1    0    0  501    0 -0.00000000000E+00 -0.00000000000E+00 -0.31938538353E+03  0.31938538353E+03  0.00000000000E+00 0. -1.
         25    2    1    2    0    0  0.13131526990E+02  0.82133517723E+01 -0.17808918381E+03  0.21812540625E+03  0.12499215700E+03 0.  0.
          2    1    1    2  501    0  0.41903204986E+02  0.31698353701E+02 -0.11334036645E+03  0.12492679009E+03  0.00000000000E+00 0. -1.
          1    1    1    2  502    0 -0.55034731977E+02 -0.39911705473E+02  0.53664587319E+03  0.54093489365E+03  0.00000000000E+00 0. -1.
         22    1    3    3    0    0 -0.55278819188E+02  0.94551330896E+01 -0.64026821508E+02  0.85115105974E+02  0.00000000000E+00 0.  1.
         22    1    3    3    0    0  0.68410346178E+02 -0.12417813173E+01 -0.11406236230E+03  0.13301030028E+03  0.00000000000E+00 0.  1.
</event>
<event>
 7    1  0.6219721E-006  0.9600980E+02  0.7818608E-02  0.1308094E+00
          2   -1    0    0  502    0  0.00000000000E+00  0.00000000000E+00  0.16391316293E+04  0.16391316293E+04  0.00000000000E+00 0. -1.
          1   -1    0    0  501    0 -0.00000000000E+00 -0.00000000000E+00 -0.18729633930E+04  0.18729633930E+04  0.00000000000E+00 0. -1.
         25    2    1    2    0    0  0.65889605624E+02 -0.10785500636E+02 -0.34199291614E+02  0.14578240786E+03  0.12500060696E+03 0.  0.
          2    1    1    2  501    0  0.15991127636E+01  0.80403948486E+02 -0.17805796802E+04  0.17823948356E+04  0.00000000000E+00 0. -1.
          1    1    1    2  502    0 -0.67488718387E+02 -0.69618447851E+02  0.15809472081E+04  0.15839177789E+04  0.00000000000E+00 0. -1.
         22    1    3    3    0    0 -0.31903389075E+02 -0.27792940076E+02 -0.72506882019E+01  0.42928384921E+02  0.00000000000E+00 0. -1.
         22    1    3    3    0    0  0.97792994699E+02  0.17007439440E+02 -0.26948603412E+02  0.10285402294E+03  0.00000000000E+00 0. -1.
</event>
<event>
 7    1  0.6219721E-006  0.5943656E+02  0.7818608E-02  0.1424893E+00
          2   -1    0    0  502    0  0.00000000000E+00  0.00000000000E+00  0.14163601798E+04  0.14163601798E+04  0.00000000000E+00 0. -1.
          1   -1    0    0  501    0 -0.00000000000E+00 -0.00000000000E+00 -0.26574199736E+04  0.26574199736E+04  0.00000000000E+00 0. -1.
         25    2    1    2    0    0  0.53412969971E+02 -0.71222502905E+02  0.96022286794E+02  0.18102590150E+03  0.12499802868E+03 0.  0.
          2    1    1    2  501    0  0.14316729531E+01  0.49038043940E+02 -0.26140031138E+04  0.26144634360E+04  0.00000000000E+00 0. -1.
          1    1    1    2  502    0 -0.54844642924E+02  0.22184458965E+02  0.12769210332E+04  0.12782908159E+04  0.00000000000E+00 0. -1.
         22    1    3    3    0    0  0.65864739929E+02  0.13549402799E+02  0.49759117957E+02  0.83652376547E+02  0.00000000000E+00 0.  1.
         22    1    3    3    0    0 -0.12451769959E+02 -0.84771905704E+02  0.46263168838E+02  0.97373524958E+02  0.00000000000E+00 0.  1.
</event>
<event>
 7    1  0.6219721E-006  0.9065485E+02  0.7818608E-02  0.1476447E+00
          2   -1    0    0  502    0  0.00000000000E+00  0.00000000000E+00  0.16824791217E+04  0.16824791217E+04  0.00000000000E+00 0. -1.
          1   -1    0    0  501    0 -0.00000000000E+00 -0.00000000000E+00 -0.30889923446E+03  0.30889923446E+03  0.00000000000E+00 0. -1.
         25    2    1    2    0    0  0.14353333929E+02  0.10621057565E+03  0.87524284944E+01  0.16488803530E+03  0.12499901842E+03 0.  0.
          2    1    1    2  501    0  0.10556373637E+02 -0.19308324305E+02 -0.22902319388E+03  0.23007796884E+03  0.00000000000E+00 0. -1.
          1    1    1    2  502    0 -0.24909707566E+02 -0.86902251341E+02  0.15938506526E+04  0.15964123520E+04  0.00000000000E+00 0. -1.
         22    1    3    3    0    0  0.28859255448E+02  0.53505756964E+02 -0.54248248609E+02  0.81477574402E+02  0.00000000000E+00 0. -1.
         22    1    3    3    0    0 -0.14505921518E+02  0.52704818682E+02  0.63000677103E+02  0.83410460896E+02  0.00000000000E+00 0. -1.
</event>
<event>
 7    1  0.6219721E-006  0.4744519E+02  0.7818608E-02  0.1536823E+00
          2   -1    0    0  502    0  0.00000000000E+00  0.00000000000E+00  0.19490629035E+04  0.19490629035E+04  0.00000000000E+00 0. -1.
          1   -1    0    0  501    0 -0.00000000000E+00 -0.00000000000E+00 -0.19364706411E+04  0.19364706411E+04  0.00000000000E+00 0. -1.
         25    2    1    2    0    0  0.23717006722E+02 -0.84313796014E+01  0.40738928711E+03  0.42687567878E+03  0.12499291704E+03 0.  0.
          2    1    1    2  501    0  0.10506799884E+02 -0.25812179819E+02 -0.19262441194E+04  0.19264457088E+04  0.00000000000E+00 0. -1.
          1    1    1    2  502    0 -0.34223806606E+02  0.34243559420E+02  0.15314470947E+04  0.15322121571E+04  0.00000000000E+00 0. -1.
         22    1    3    3    0    0  0.36082973460E+02 -0.54031405995E+02  0.32895784573E+03  0.33531274667E+03  0.00000000000E+00 0.  1.
         22    1    3    3    0    0 -0.12365966738E+02  0.45600026394E+02  0.78431441378E+02  0.91562932113E+02  0.00000000000E+00 0.  1.
</event>
<event>
 7    1  0.6219721E-006  0.4786451E+02  0.7818608E-02  0.1467748E+00
          2   -1    0    0  502    0  0.00000000000E+00  0.00000000000E+00  0.12885460075E+04  0.12885460075E+04  0.00000000000E+00 0. -1.
          1   -1    0    0  501    0 -0.00000000000E+00 -0.00000000000E+00 -0.64488341101E+03  0.64488341101E+03  0.00000000000E+00 0. -1.
         25    2    1    2    0    0 -0.30135093547E+02 -0.77774090740E+02  0.45676984322E+03  0.48085369543E+03  0.12499861473E+03 0.  0.
          2    1    1    2  501    0 -0.17952273999E+01  0.44313426090E+02 -0.63141065552E+03  0.63296628542E+03  0.00000000000E+00 0. -1.
          1    1    1    2  502    0  0.31930320947E+02  0.33460664650E+02  0.81830340876E+03  0.81960943764E+03  0.00000000000E+00 0. -1.
         22    1    3    3    0    0 -0.17528568107E+01  0.32591091885E+02  0.63367062633E+02  0.71278583066E+02  0.00000000000E+00 0. -1.
         22    1    3    3    0    0 -0.28382236736E+02 -0.11036518262E+03  0.39340278059E+03  0.40957511237E+03  0.00000000000E+00 0. -1.
</event>
<event>
 7    1  0.6219721E-006  0.2328726E+03  0.7818608E-02  0.1128257E+00
          2   -1    0    0  502    0  0.00000000000E+00  0.00000000000E+00  0.47948198020E+03  0.47948198020E+03  0.00000000000E+00 0. -1.
          1   -1    0    0  501    0 -0.00000000000E+00 -0.00000000000E+00 -0.24167825210E+04  0.24167825210E+04  0.00000000000E+00 0. -1.
         25    2    1    2    0    0 -0.16957320777E+02  0.30158959232E+02 -0.62341897487E+03  0.63676597623E+03  0.12499030643E+03 0.  0.
          2    1    1    2  501    0 -0.22208194281E+03  0.16238545183E+02 -0.17477995177E+04  0.17619271363E+04  0.00000000000E+00 0. -1.
          1    1    1    2  502    0  0.23903926359E+03 -0.46397504415E+02  0.43391795175E+03  0.49757138865E+03  0.00000000000E+00 0. -1.
         22    1    3    3    0    0  0.39162284992E+02  0.55097313462E+02 -0.35907701221E+03  0.36538431715E+03  0.00000000000E+00 0.  1.
         22    1    3    3    0    0 -0.56119605769E+02 -0.24938354230E+02 -0.26434196266E+03  0.27138165908E+03  0.00000000000E+00 0.  1.
</event>
<event>
 7    1  0.6219721E-006  0.7226094E+02  0.7818608E-02  0.1431630E+00
          2   -1    0    0  502    0  0.00000000000E+00  0.00000000000E+00  0.10118650334E+03  0.10118650334E+03  0.00000000000E+00 0. -1.
          1   -1    0    0  501    0 -0.00000000000E+00 -0.00000000000E+00 -0.13025668017E+04  0.13025668017E+04  0.00000000000E+00 0. -1.
         25    2    1    2    0    0 -0.83437555785E+02  0.25858481615E+01 -0.17730931971E+03  0.23244723309E+03  0.12499843595E+03 0.  0.
          2    1    1    2  501    0  0.18438263703E+02 -0.33613365652E+02 -0.10796497117E+04  0.10803301940E+04  0.00000000000E+00 0. -1.
          1    1    1    2  502    0  0.64999292082E+02  0.31027517491E+02  0.55578733060E+02  0.90975878019E+02  0.00000000000E+00 0. -1.
         22    1    3    3    0    0 -0.15981467229E+02 -0.51969651406E+02 -0.10978124987E+03  0.12250785601E+03  0.00000000000E+00 0.  1.
         22    1    3    3    0    0 -0.67456088556E+02  0.54555499568E+02 -0.67528069842E+02  0.10993937708E+03  0.00000000000E+00 0.  1.
</event>
<event>
 7    1  0.6219721E-006  0.1299793E+03  0.7818608E-02  0.1321957E+00
          2   -1    0    0  502    0  0.00000000000E+00  0.00000000000E+00  0.14269282708E+04  0.14269282708E+04  0.00000000000E+00 0. -1.
          1   -1    0    0  501    0 -0.00000000000E+00 -0.00000000000E+00 -0.85542895419E+03  0.85542895419E+03  0.00000000000E+00 0. -1.
         25    2    1    2    0    0  0.62727997300E+02 -0.16279135680E+03 -0.14344163616E+03  0.25814295515E+03  0.12500581913E+03 0.  0.
          2    1    1    2  501    0 -0.30048216326E+02  0.12178945601E+03 -0.64811872023E+03  0.66014653101E+03  0.00000000000E+00 0. -1.
          1    1    1    2  502    0 -0.32679780974E+02  0.41001900791E+02  0.13630596730E+04  0.13640677389E+04  0.00000000000E+00 0. -1.
         22    1    3    3    0    0  0.95585956423E+02 -0.10491622260E+03 -0.12488770938E+03  0.18905297878E+03  0.00000000000E+00 0. -1.
         22    1    3    3    0    0 -0.32857959122E+02 -0.57875134198E+02 -0.18553926776E+02  0.69089976371E+02  0.00000000000E+00 0. -1.
</event>
<event>
 7    1  0.6219721E-006  0.6720899E+02  0.7818608E-02  0.1526689E+00
          2   -1    0    0  502    0  0.00000000000E+00  0.00000000000E+00  0.26522490256E+04  0.26522490256E+04  0.00000000000E+00 0. -1.
          1   -1    0    0  501    0 -0.00000000000E+00 -0.00000000000E+00 -0.20704980646E+03  0.20704980646E+03  0.00000000000E+00 0. -1.
         25    2    1    2    0    0  0.44237889671E+02 -0.25881621680E+02 -0.11842874433E+03  0.17965460737E+03  0.12499424484E+03 0.  0.
          2    1    1    2  501    0  0.20086411142E+02  0.62300355745E+01 -0.55656031223E+02  0.59496815607E+02  0.00000000000E+00 0. -1.
          1    1    1    2  502    0 -0.64324300813E+02  0.19651586106E+02  0.26192839947E+04  0.26201474091E+04  0.00000000000E+00 0. -1.
         22    1    3    3    0    0  0.75157490210E+02  0.21306260150E+02 -0.76747618406E+02  0.10951165229E+03  0.00000000000E+00 0.  1.
         22    1    3    3    0    0 -0.30919600538E+02 -0.47187881830E+02 -0.41681125924E+02  0.70142955079E+02  0.00000000000E+00 0.  1.
</event>
<event>
 7    1  0.6219721E-006  0.6629480E+02  0.7818608E-02  0.1380304E+00
          2   -1    0    0  502    0  0.00000000000E+00  0.00000000000E+00  0.74684858487E+03  0.74684858487E+03  0.00000000000E+00 0. -1.
          1   -1    0    0  501    0 -0.00000000000E+00 -0.00000000000E+00 -0.21081854636E+03  0.21081854636E+03  0.00000000000E+00 0. -1.
         25    2    1    2    0    0 -0.15221879187E+01 -0.38743547588E+02  0.22326329123E+03  0.25879554819E+03  0.12500103606E+03 0.  0.
          2    1    1    2  501    0  0.65150098842E+02  0.12266426485E+02 -0.18491557756E+03  0.19644024898E+03  0.00000000000E+00 0. -1.
          1    1    1    2  502    0 -0.63627910923E+02  0.26477121103E+02  0.49768232483E+03  0.50243133405E+03  0.00000000000E+00 0. -1.
         22    1    3    3    0    0 -0.48919725509E+02  0.19040474328E+02  0.63301896892E+02  0.82236301939E+02  0.00000000000E+00 0.  1.
         22    1    3    3    0    0  0.47397537590E+02 -0.57784021915E+02  0.15996139434E+03  0.17655924625E+03  0.00000000000E+00 0.  1.
</event>
<event>
 7    1  0.6219721E-006  0.4163156E+02  0.7818608E-02  0.1554460E+00
          2   -1    0    0  502    0  0.00000000000E+00  0.00000000000E+00  0.27230495134E+02  0.27230495134E+02  0.00000000000E+00 0. -1.
          1   -1    0    0  501    0 -0.00000000000E+00 -0.00000000000E+00 -0.27089064478E+04  0.27089064478E+04  0.00000000000E+00 0. -1.
         25    2    1    2    0    0 -0.19567319959E+02 -0.45984010182E+02 -0.94188738858E+03  0.95145909859E+03  0.12500061729E+03 0.  0.
          2    1    1    2  501    0 -0.82940388822E+01  0.40796690249E+02 -0.17529404044E+04  0.17534346929E+04  0.00000000000E+00 0. -1.
          1    1    1    2  502    0  0.27861358841E+02  0.51873199325E+01  0.13151840332E+02  0.31243151388E+02  0.00000000000E+00 0. -1.
         22    1    3    3    0    0  0.52361510608E+02 -0.21842091088E+02 -0.32385833978E+03  0.32879025074E+03  0.00000000000E+00 0.  1.
         22    1    3    3    0    0 -0.71928830567E+02 -0.24141919094E+02 -0.61802904879E+03  0.62266884785E+03  0.00000000000E+00 0.  1.
</event>
<event>
 7    1  0.6219721E-006  0.1211463E+03  0.7818608E-02  0.1339720E+00
          2   -1    0    0  502    0  0.00000000000E+00  0.00000000000E+00  0.34310499137E+03  0.34310499137E+03  0.00000000000E+00 0. -1.
          1   -1    0    0  501    0 -0.00000000000E+00 -0.00000000000E+00 -0.11891943892E+04  0.11891943892E+04  0.00000000000E+00 0. -1.
         25    2    1    2    0    0 -0.53197962053E+02  0.88651576934E+02 -0.27574490113E+03  0.31992237983E+03  0.12500381337E+03 0.  0.
          2    1    1    2  501    0  0.20809341714E+02 -0.12424846924E+03 -0.88507114754E+03  0.89399197257E+03  0.00000000000E+00 0. -1.
          1    1    1    2  502    0  0.32388620338E+02  0.35596892310E+02  0.31472665080E+03  0.31838502822E+03  0.00000000000E+00 0. -1.
         22    1    3    3    0    0 -0.56260526806E+02  0.29278780331E+01 -0.19180101487E+03  0.19990359840E+03  0.00000000000E+00 0.  1.
         22    1    3    3    0    0  0.30625647530E+01  0.85723698901E+02 -0.83943886260E+02  0.12001878143E+03  0.00000000000E+00 0.  1.
</event>
<event>
 7    1  0.6219721E-006  0.1700437E+03  0.7818608E-02  0.1202455E+00
          2   -1    0    0  502    0  0.00000000000E+00  0.00000000000E+00  0.28179557382E+04  0.28179557382E+04  0.00000000000E+00 0. -1.
          1   -1    0    0  501    0 -0.00000000000E+00 -0.00000000000E+00 -0.78838899740E+03  0.78838899740E+03  0.00000000000E+00 0. -1.
         25    2    1    2    0    0  0.67171269906E+02  0.12222214853E+02  0.11866525248E+03  0.18538563739E+03  0.12500012146E+03 0.  0.
          2    1    1    2  501    0 -0.15986833749E+03  0.78220060124E+02 -0.74293930794E+03  0.76396012882E+03  0.00000000000E+00 0. -1.
          1    1    1    2  502    0  0.92697067579E+02 -0.90442274977E+02  0.26538407963E+04  0.26569989694E+04  0.00000000000E+00 0. -1.
         22    1    3    3    0    0 -0.16206498978E+02 -0.40321046259E+02  0.43019038984E+02  0.61147977037E+02  0.00000000000E+00 0. -1.
         22    1    3    3    0    0  0.83377768885E+02  0.52543261112E+02  0.75646213500E+02  0.12423766035E+03  0.00000000000E+00 0. -1.
</event>
<event>
 7    1  0.6219721E-006  0.6569664E+02  0.7818608E-02  0.1519077E+00
          2   -1    0    0  502    0  0.00000000000E+00  0.00000000000E+00  0.42633218146E+03  0.42633218146E+03  0.00000000000E+00 0. -1.
          1   -1    0    0  501    0 -0.00000000000E+00 -0.00000000000E+00 -0.57086828587E+03  0.57086828587E+03  0.00000000000E+00 0. -1.
         25    2    1    2    0    0  0.34108260709E+02 -0.79760545729E+02  0.43015791392E+02  0.15811511294E+03  0.12499965010E+03 0.  0.
          2    1    1    2  501    0 -0.31236533645E+02  0.57309960304E+02 -0.51084656302E+03  0.51499938207E+03  0.00000000000E+00 0. -1.
          1    1    1    2  502    0 -0.28717270642E+01  0.22450585424E+02  0.32329466722E+03  0.32408597232E+03  0.00000000000E+00 0. -1.
         22    1    3    3    0    0 -0.15127856442E+02  0.24505695937E+02 -0.10942574196E+02  0.30807809139E+02  0.00000000000E+00 0.  1.
         22    1    3    3    0    0  0.49236117151E+02 -0.10426624167E+03  0.53958365588E+02  0.12730730380E+03  0.00000000000E+00 0.  1.
</event>
<event>
 7    1  0.6219721E-006  0.7061986E+02  0.7818608E-02  0.1385748E+00
          2   -1    0    0  502    0  0.00000000000E+00  0.00000000000E+00  0.37420008136E+03  0.37420008136E+03  0.00000000000E+00 0. -1.
          1   -1    0    0  501    0 -0.00000000000E+00 -0.00000000000E+00 -0.30242082486E+03  0.30242082486E+03  0.00000000000E+00 0. -1.
         25    2    1    2    0    0  0.19564877164E+02 -0.40554347435E+02  0.33545766447E+02  0.13702004492E+03  0.12498693832E+03 0.  0.
          2    1    1    2  501    0  0.52160422848E+02  0.20815896506E+02 -0.24263388451E+03  0.24904861608E+03  0.00000000000E+00 0. -1.
          1    1    1    2  502    0 -0.71725300012E+02  0.19738450929E+02  0.28086737457E+03  0.29055224522E+03  0.00000000000E+00 0. -1.
         22    1    3    3    0    0  0.66462244914E+02  0.32544628325E+01  0.48436370634E+01  0.66717931228E+02  0.00000000000E+00 0.  1.
         22    1    3    3    0    0 -0.46897367750E+02 -0.43808810267E+02  0.28702129383E+02  0.70302113695E+02  0.00000000000E+00 0.  1.
</event>
<event>
 7    1  0.6219721E-006  0.8540911E+02  0.7818608E-02  0.1386985E+00
          2   -1    0    0  502    0  0.00000000000E+00  0.00000000000E+00  0.12715422202E+04  0.12715422202E+04  0.00000000000E+00 0. -1.
          1   -1    0    0  501    0 -0.00000000000E+00 -0.00000000000E+00 -0.60410013268E+03  0.60410013268E+03  0.00000000000E+00 0. -1.
         25    2    1    2    0    0  0.29188694660E+02 -0.62512882480E+02  0.15199123375E+03  0.20853824271E+03  0.12500809239E+03 0.  0.
          2    1    1    2  501    0 -0.72257458564E+02  0.46428180560E+02 -0.57213562326E+03  0.57854635741E+03  0.00000000000E+00 0. -1.
          1    1    1    2  502    0  0.43068763904E+02  0.16084701920E+02  0.10875864771E+04  0.10885577528E+04  0.00000000000E+00 0. -1.
         22    1    3    3    0    0 -0.43394891520E+02  0.67097289860E-01  0.70272808934E+02  0.82591699266E+02  0.00000000000E+00 0. -1.
         22    1    3    3    0    0  0.72583586180E+02 -0.62579979770E+02  0.81718424815E+02  0.12594654344E+03  0.00000000000E+00 0. -1.
</event>
<event>
 7    1  0.6219721E-006  0.1279941E+03  0.7818608E-02  0.1399668E+00
          2   -1    0    0  502    0  0.00000000000E+00  0.00000000000E+00  0.21493042397E+04  0.21493042397E+04  0.00000000000E+00 0. -1.
          1   -1    0    0  501    0 -0.00000000000E+00 -0.00000000000E+00 -0.31187425129E+03  0.31187425129E+03  0.00000000000E+00 0. -1.
         25    2    1    2    0    0 -0.72339990876E+02 -0.11138703080E+03  0.96278533428E+03  0.97991154708E+03  0.12502357896E+03 0.  0.
          2    1    1    2  501    0  0.45827953237E+02  0.11947941579E+03 -0.28964152998E+03  0.31665082976E+03  0.00000000000E+00 0. -1.
          1    1    1    2  502    0  0.26512037639E+02 -0.80923849931E+01  0.11642861841E+04  0.11646161142E+04  0.00000000000E+00 0. -1.
         22    1    3    3    0    0 -0.39622825082E+02  0.40440786516E+01  0.83887917606E+02  0.92862831961E+02  0.00000000000E+00 0.  1.
         22    1    3    3    0    0 -0.32717165793E+02 -0.11543110945E+03  0.87889741667E+03  0.88704871512E+03  0.00000000000E+00 0.  1.
</event>
<event>
 7    1  0.6219721E-006  0.7497608E+02  0.7818608E-02  0.1355535E+00
          2   -1    0    0  502    0  0.00000000000E+00  0.00000000000E+00  0.94459872136E+03  0.94459872136E+03  0.00000000000E+00 0. -1.
          1   -1    0    0  501    0 -0.00000000000E+00 -0.00000000000E+00 -0.42561898145E+03  0.42561898145E+03  0.00000000000E+00 0. -1.
         25    2    1    2    0    0  0.42279274844E+02  0.19322056933E+02  0.43459971710E+03  0.45460028951E+03  0.12499452050E+03 0.  0.
          2    1    1    2  501    0 -0.10548616163E+02  0.67090134831E+02 -0.40855471522E+03  0.41416097695E+03  0.00000000000E+00 0. -1.
          1    1    1    2  502    0 -0.31730658681E+02 -0.86412191763E+02  0.49293473805E+03  0.50145643635E+03  0.00000000000E+00 0. -1.
         22    1    3    3    0    0  0.75454289230E+02  0.18194599113E+01  0.15396263055E+03  0.17146764069E+03  0.00000000000E+00 0. -1.
         22    1    3    3    0    0 -0.33175014386E+02  0.17502597021E+02  0.28063708655E+03  0.28313264882E+03  0.00000000000E+00 0. -1.
</event>
<event>
 7    1  0.6219721E-006  0.1231777E+03  0.7818608E-02  0.1435842E+00
          2   -1    0    0  502    0  0.00000000000E+00  0.00000000000E+00  0.89206475238E+03  0.89206475238E+03  0.00000000000E+00 0. -1.
          1   -1    0    0  501    0 -0.00000000000E+00 -0.00000000000E+00 -0.13326654471E+04  0.13326654471E+04  0.00000000000E+00 0. -1.
         25    2    1    2    0    0  0.63668035612E+02 -0.83008098592E+02 -0.48468804015E+03  0.51136239253E+03  0.12500014817E+03 0.  0.
          2    1    1    2  501    0  0.20617230400E+02 -0.70451743332E+01 -0.83016829356E+03  0.83045415304E+03  0.00000000000E+00 0. -1.
          1    1    1    2  502    0 -0.84285266012E+02  0.90053272925E+02  0.87425563897E+03  0.88291365393E+03  0.00000000000E+00 0. -1.
         22    1    3    3    0    0  0.46577971343E+02 -0.92185426948E+01 -0.45745647528E+02  0.65932944812E+02  0.00000000000E+00 0. -1.
         22    1    3    3    0    0  0.17090064269E+02 -0.73789555897E+02 -0.43894239262E+03  0.44542944772E+03  0.00000000000E+00 0. -1.
</event>
<event>
 7    1  0.6219721E-006  0.2284344E+03  0.7818608E-02  0.1263591E+00
          2   -1    0    0  502    0  0.00000000000E+00  0.00000000000E+00  0.13094576759E+04  0.13094576759E+04  0.00000000000E+00 0. -1.
          1   -1    0    0  501    0 -0.00000000000E+00 -0.00000000000E+00 -0.84026192883E+03  0.84026192883E+03  0.00000000000E+00 0. -1.
         25    2    1    2    0    0 -0.11044742417E+03  0.19120843289E+03  0.44503478848E+03  0.51228946364E+03  0.12500093310E+03 0.  0.
          2    1    1    2  501    0 -0.47817110915E+02 -0.18921712062E+02 -0.78931200841E+03  0.79098543216E+03  0.00000000000E+00 0. -1.
          1    1    1    2  502    0  0.15826453509E+03 -0.17228672083E+03  0.81347296699E+03  0.84644470892E+03  0.00000000000E+00 0. -1.
         22    1    3    3    0    0 -0.12011998465E+03  0.16404661736E+03  0.28745985752E+03  0.35209838549E+03  0.00000000000E+00 0. -1.
         22    1    3    3    0    0  0.96725604797E+01  0.27161815535E+02  0.15757493096E+03  0.16019107814E+03  0.00000000000E+00 0. -1.
</event>
<event>
 7    1  0.6219721E-006  0.5272937E+02  0.7818608E-02  0.1433628E+00
          2   -1    0    0  502    0  0.00000000000E+00  0.00000000000E+00  0.43242293341E+03  0.43242293341E+03  0.00000000000E+00 0. -1.
          1   -1    0    0  501    0 -0.00000000000E+00 -0.00000000000E+00 -0.19664916034E+03  0.19664916034E+03  0.00000000000E+00 0. -1.
         25    2    1    2    0    0 -0.70882266211E+01  0.30887464257E+01  0.67675458244E+02  0.14235003378E+03  0.12499512453E+03 0.  0.
          2    1    1    2  501    0 -0.40753699635E+02 -0.31897140326E+02 -0.15263148664E+03  0.16116656697E+03  0.00000000000E+00 0. -1.
          1    1    1    2  502    0  0.47841926257E+02  0.28808393900E+02  0.32072980147E+03  0.32555549300E+03  0.00000000000E+00 0. -1.
         22    1    3    3    0    0  0.78142404747E+01 -0.23276195076E+02 -0.30761975383E+02  0.39359150662E+02  0.00000000000E+00 0.  1.
         22    1    3    3    0    0 -0.14902467096E+02  0.26364941501E+02  0.98437433626E+02  0.10299088311E+03  0.00000000000E+00 0.  1.
</event>
<event>
 7    1  0.6219721E-006  0.4240129E+02  0.7818608E-02  0.1516835E+00
          2   -1    0    0  502    0  0.00000000000E+00  0.00000000000E+00  0.12145936832E+04  0.12145936832E+04  0.00000000000E+00 0. -1.
          1   -1    0    0  501    0 -0.00000000000E+00 -0.00000000000E+00 -0.32076934083E+03  0.32076934083E+03  0.00000000000E+00 0. -1.
         25    2    1    2    0    0 -0.12478491248E+02  0.73108431844E+02  0.26434706370E+03  0.30166970048E+03  0.12499873020E+03 0.  0.
          2    1    1    2  501    0  0.16353394421E+02 -0.31620994464E+02 -0.30059121106E+03  0.30269191757E+03  0.00000000000E+00 0. -1.
          1    1    1    2  502    0 -0.38749031731E+01 -0.41487437379E+02  0.93006848973E+03  0.93100140597E+03  0.00000000000E+00 0. -1.
         22    1    3    3    0    0 -0.30654524382E+02  0.62437196238E+02  0.48499865082E+02  0.84795874027E+02  0.00000000000E+00 0. -1.
         22    1    3    3    0    0  0.18176033134E+02  0.10671235606E+02  0.21584719862E+03  0.21687382645E+03  0.00000000000E+00 0. -1.
</event>
<event>
 7    1  0.6219721E-006  0.4350081E+02  0.7818608E-02  0.1496843E+00
          2   -1    0    0  502    0  0.00000000000E+00  0.00000000000E+00  0.13858599188E+03  0.13858599188E+03  0.00000000000E+00 0. -1.
          1   -1    0    0  501    0 -0.00000000000E+00 -0.00000000000E+00 -0.12061521425E+04  0.12061521425E+04  0.00000000000E+00 0. -1.
         25    2    1    2    0    0 -0.40343308616E+02  0.53089364349E+02  0.18520032168E+02  0.14287956697E+03  0.12500206362E+03 0.  0.
          2    1    1    2  501    0  0.17820472809E+01 -0.43406227921E+02 -0.11366812482E+04  0.11375111148E+04  0.00000000000E+00 0. -1.
          1    1    1    2  502    0  0.38561261335E+02 -0.96831364274E+01  0.50595065433E+02  0.64347452575E+02  0.00000000000E+00 0. -1.
         22    1    3    3    0    0  0.36235046445E+01 -0.29329979247E+02 -0.26034521313E+02  0.39384943424E+02  0.00000000000E+00 0.  1.
         22    1    3    3    0    0 -0.43966813260E+02  0.82419343596E+02  0.44554553480E+02  0.10349462355E+03  0.00000000000E+00 0.  1.
</event>
<event>
 7    1  0.6219721E-006  0.9091355E+02  0.7818608E-02  0.1341875E+00
          2   -1    0    0  502    0  0.00000000000E+00  0.00000000000E+00  0.81946996728E+03  0.81946996728E+03  0.00000000000E+00 0. -1.
          1   -1    0    0  501    0 -0.00000000000E+00 -0.00000000000E+00 -0.75185873386E+03  0.75185873386E+03  0.00000000000E+00 0. -1.
         25    2    1    2    0    0  0.67633068291E+02  0.73965860993E+02 -0.10526938937E+03  0.19170645973E+03  0.12499816736E+03 0.  0.
          2    1    1    2  501    0  0.22233921994E+02 -0.58888862905E+02 -0.59904188425E+03  0.60233995763E+03  0.00000000000E+00 0. -1.
          1    1    1    2  502    0 -0.89866990285E+02 -0.15076998088E+02  0.77192250704E+03  0.77728228379E+03  0.00000000000E+00 0. -1.
         22    1    3    3    0    0 -0.26582906685E+02  0.57172041966E+02 -0.29337294456E+02  0.69541140027E+02  0.00000000000E+00 0.  1.
         22    1    3    3    0    0  0.94215974976E+02  0.16793819028E+02 -0.75932094919E+02  0.12216531970E+03  0.00000000000E+00 0.  1.
</event>
<event>
 7    1  0.6219721E-006  0.1268758E+03  0.7818608E-02  0.1259937E+00
          2   -1    0    0  502    0  0.00000000000E+00  0.00000000000E+00  0.10913419137E+04  0.10913419137E+04  0.00000000000E+00 0. -1.
          1   -1    0    0  501    0 -0.00000000000E+00 -0.00000000000E+00 -0.71521960896E+02  0.71521960896E+02  0.00000000000E+00 0. -1.
         25    2    1    2    0    0 -0.12074618264E+03  0.31083965334E+02  0.10255593048E+03  0.20418083386E+03  0.12500496195E+03 0.  0.
          2    1    1    2  501    0  0.93156058232E+02 -0.12299634932E+03  0.33835374481E+03  0.37187284084E+03  0.00000000000E+00 0. -1.
          1    1    1    2  502    0  0.27590124409E+02  0.91912383984E+02  0.57891027754E+03  0.58681019993E+03  0.00000000000E+00 0. -1.
         22    1    3    3    0    0 -0.13582956237E+03  0.53328576030E+02  0.69648028959E+02  0.16169247037E+03  0.00000000000E+00 0.  1.
         22    1    3    3    0    0  0.15083379731E+02 -0.22244610696E+02  0.32907901524E+02  0.42488363487E+02  0.00000000000E+00 0.  1.
</event>
<event>
 7    1  0.6219721E-006  0.6387394E+02  0.7818608E-02  0.1435737E+00
          2   -1    0    0  502    0  0.00000000000E+00  0.00000000000E+00  0.16796815348E+04  0.16796815348E+04  0.00000000000E+00 0. -1.
          1   -1    0    0  501    0 -0.00000000000E+00 -0.00000000000E+00 -0.83279408669E+02  0.83279408669E+02  0.00000000000E+00 0. -1.
         25    2    1    2    0    0 -0.39257403110E+02 -0.86962760295E+00  0.16349788067E+03  0.20951979487E+03  0.12500035003E+03 0.  0.
          2    1    1    2  501    0  0.53491034907E+02  0.40436957198E+02 -0.41223690110E+02  0.78713600789E+02  0.00000000000E+00 0. -1.
          1    1    1    2  502    0 -0.14233631797E+02 -0.39567329595E+02  0.14741279356E+04  0.14747275478E+04  0.00000000000E+00 0. -1.
         22    1    3    3    0    0  0.19642534880E+02  0.49375565521E+02  0.75310644241E+02  0.92170867323E+02  0.00000000000E+00 0. -1.
         22    1    3    3    0    0 -0.58899937990E+02 -0.50245193124E+02  0.88187236429E+02  0.11734892755E+03  0.00000000000E+00 0. -1.
</event>
<event>
 7    1  0.6219721E-006  0.1535518E+03  0.7818608E-02  0.1234621E+00
          2   -1    0    0  502    0  0.00000000000E+00  0.00000000000E+00  0.14732643106E+04  0.14732643106E+04  0.00000000000E+00 0. -1.
          1   -1    0    0  501    0 -0.00000000000E+00 -0.00000000000E+00 -0.66526112219E+03  0.66526112219E+03  0.00000000000E+00 0. -1.
         25    2    1    2    0    0  0.56739273699E+02 -0.24546217426E+03  0.33175024418E+03  0.43491879622E+03  0.12500044250E+03 0.  0.
          2    1    1    2  501    0 -0.20901712738E+02  0.14972405358E+03 -0.60191197095E+03  0.62060631208E+03  0.00000000000E+00 0. -1.
          1    1    1    2  502    0 -0.35837560962E+02  0.95738120685E+02  0.10781649152E+04  0.10830003245E+04  0.00000000000E+00 0. -1.
         22    1    3    3    0    0  0.63357840465E+02 -0.25566617937E+03  0.33060207364E+03  0.42270219105E+03  0.00000000000E+00 0.  1.
         22    1    3    3    0    0 -0.66185667654E+01  0.10204005112E+02  0.11481705332E+01  0.12216605172E+02  0.00000000000E+00 0.  1.
</event>
<event>
 7    1  0.6219721E-006  0.2603800E+03  0.7818608E-02  0.1308409E+00
          2   -1    0    0  502    0  0.00000000000E+00  0.00000000000E+00  0.11178696167E+04  0.11178696167E+04  0.00000000000E+00 0. -1.
          1   -1    0    0  501    0 -0.00000000000E+00 -0.00000000000E+00 -0.57546698782E+03  0.57546698782E+03  0.00000000000E+00 0. -1.
         25    2    1    2    0    0 -0.10243566481E+03 -0.23136557860E+03  0.11276572005E+03  0.30391100447E+03  0.12499077819E+03 0.  0.
          2    1    1    2  501    0 -0.29187347788E+02  0.47305272987E+01 -0.46053030984E+03  0.46147854277E+03  0.00000000000E+00 0. -1.
          1    1    1    2  502    0  0.13162301260E+03  0.22663505130E+03  0.89016721865E+03  0.92794705726E+03  0.00000000000E+00 0. -1.
         22    1    3    3    0    0 -0.96676530582E+02 -0.79520618467E+02  0.79708809235E+02  0.14840274457E+03  0.00000000000E+00 0. -1.
         22    1    3    3    0    0 -0.57591342319E+01 -0.15184496013E+03  0.33056910818E+02  0.15550825990E+03  0.00000000000E+00 0. -1.
</event>
<event>
 7    1  0.6219721E-006  0.6544263E+02  0.7818608E-02  0.1430184E+00
          2   -1    0    0  502    0  0.00000000000E+00  0.00000000000E+00  0.25425698119E+03  0.25425698119E+03  0.00000000000E+00 0. -1.
          1   -1    0    0  501    0 -0.00000000000E+00 -0.00000000000E+00 -0.15652040071E+04  0.15652040071E+04  0.00000000000E+00 0. -1.
         25    2    1    2    0    0 -0.95132338322E+02  0.10521668535E+02 -0.32406883136E+03  0.36028470561E+03  0.12499437720E+03 0.  0.
          2    1    1    2  501    0  0.37715502559E+02  0.20230289889E+02 -0.12181530676E+04  0.12189046803E+04  0.00000000000E+00 0. -1.
          1    1    1    2  502    0  0.57416835763E+02 -0.30751958424E+02  0.23127487304E+03  0.24027160230E+03  0.00000000000E+00 0. -1.
         22    1    3    3    0    0 -0.85450666698E+01 -0.79751483516E+01  0.95642442328E+01  0.15102844877E+02  0.00000000000E+00 0.  1.
         22    1    3    3    0    0 -0.86587271653E+02  0.18496816886E+02 -0.33363307559E+03  0.34518186073E+03  0.00000000000E+00 0.  1.
</event>
<event>
 7    1  0.6219721E-006  0.3772465E+02  0.7818608E-02  0.1534539E+00
          2   -1    0    0  502    0  0.00000000000E+00  0.00000000000E+00  0.82644937500E+02  0.82644937500E+02  0.00000000000E+00 0. -1.
          1   -1    0    0  501    0 -0.00000000000E+00 -0.00000000000E+00 -0.14275109669E+04  0.14275109669E+04  0.00000000000E+00 0. -1.
         25    2    1    2    0    0 -0.44393694244E+02 -0.77790293388E+01 -0.10845944415E+04  0.10927044369E+04  0.12500628164E+03 0.  0.
          2    1    1    2  501    0  0.15460124604E+02  0.32043173084E+02 -0.33332366291E+03  0.33521701128E+03  0.00000000000E+00 0. -1.
          1    1    1    2  502    0  0.28933569640E+02 -0.24264143745E+02  0.73052075033E+02  0.82234456224E+02  0.00000000000E+00 0. -1.
         22    1    3    3    0    0 -0.61889104560E+02  0.66425145871E+01 -0.10466702630E+04  0.10485194437E+04  0.00000000000E+00 0. -1.
         22    1    3    3    0    0  0.17495410316E+02 -0.14421543926E+02 -0.37924178492E+02  0.44184993217E+02  0.00000000000E+00 0. -1.
</event>
<event>
 7    1  0.6219721E-006  0.9621077E+02  0.7818608E-02  0.1463834E+00
          2   -1    0    0  502    0  0.00000000000E+00  0.00000000000E+00  0.29755137531E+03  0.29755137531E+03  0.00000000000E+00 0. -1.
          1   -1    0    0  501    0 -0.00000000000E+00 -0.00000000000E+00 -0.15692928221E+04  0.15692928221E+04  0.00000000000E+00 0. -1.
         25    2    1    2    0    0 -0.23973750158E+01  0.10226508607E+03 -0.12195215741E+03  0.20238668450E+03  0.12499658448E+03 0.  0.
          2    1    1    2  501    0  0.23209221144E+02 -0.93213676845E+02 -0.14049798046E+04  0.14082598158E+04  0.00000000000E+00 0. -1.
          1    1    1    2  502    0 -0.20811846128E+02 -0.90514092228E+01  0.25519051521E+03  0.25619769710E+03  0.00000000000E+00 0. -1.
         22    1    3    3    0    0 -0.45355526531E+02  0.10539159441E+03 -0.10673360217E+03  0.15670537257E+03  0.00000000000E+00 0.  1.
         22    1    3    3    0    0  0.42958151516E+02 -0.31265083459E+01 -0.15218555238E+02  0.45681311930E+02  0.00000000000E+00 0.  1.
</event>
<event>
 7    1  0.6219721E-006  0.7779181E+02  0.7818608E-02  0.1370735E+00
          2   -1    0    0  502    0  0.00000000000E+00  0.00000000000E+00  0.15880371704E+04  0.15880371704E+04  0.00000000000E+00 0. -1.
          1   -1    0    0  501    0 -0.00000000000E+00 -0.00000000000E+00 -0.32615196593E+03  0.32615196593E+03  0.00000000000E+00 0. -1.
         25    2    1    2    0    0  0.29964068765E+02  0.81820501011E+02 -0.96564610239E+02  0.18039305069E+03  0.12499795593E+03 0.  0.
          2    1    1    2  501    0  0.37824550883E+02 -0.43496168985E+02 -0.18224040250E+03  0.19113915786E+03  0.00000000000E+00 0. -1.
          1    1    1    2  502    0 -0.67788619648E+02 -0.38324332027E+02  0.15406902172E+04  0.15426569277E+04  0.00000000000E+00 0. -1.
         22    1    3    3    0    0 -0.32095643309E+02 -0.14470123271E+01 -0.63907622568E+02  0.71529073714E+02  0.00000000000E+00 0.  1.
         22    1    3    3    0    0  0.62059712074E+02  0.83267513339E+02 -0.32656987672E+02  0.10886397698E+03  0.00000000000E+00 0.  1.
</event>
<event>
 7    1  0.6219721E-006  0.1871793E+03  0.7818608E-02  0.1390460E+00
          2   -1    0    0  502    0  0.00000000000E+00  0.00000000000E+00  0.84180561404E+03  0.84180561404E+03  0.00000000000E+00 0. -1.
          1   -1    0    0  501    0 -0.00000000000E+00 -0.00000000000E+00 -0.69626205920E+03  0.69626205920E+03  0.00000000000E+00 0. -1.
         25    2    1    2    0    0 -0.13310540691E+03  0.12318114986E+03  0.56699941921E+03  0.60828229855E+03  0.12501347258E+03 0.  0.
          2    1    1    2  501    0 -0.41457916123E+01  0.19973436908E+02 -0.63674575816E+03  0.63707243411E+03  0.00000000000E+00 0. -1.
          1    1    1    2  502    0  0.13725119852E+03 -0.14315458676E+03  0.21528989379E+03  0.29271294057E+03  0.00000000000E+00 0. -1.
         22    1    3    3    0    0 -0.14134287418E+03  0.72118863042E+02  0.49368447442E+03  0.51855886722E+03  0.00000000000E+00 0. -1.
         22    1    3    3    0    0  0.82374672664E+01  0.51062286814E+02  0.73314944782E+02  0.89723431332E+02  0.00000000000E+00 0. -1.
</event>
<event>
 7    1  0.6219721E-006  0.1064191E+03  0.7818608E-02  0.1285189E+00
          2   -1    0    0  502    0  0.00000000000E+00  0.00000000000E+00  0.14285189603E+04  0.14285189603E+04  0.00000000000E+00 0. -1.
          1   -1    0    0  501    0 -0.00000000000E+00 -0.00000000000E+00 -0.38498158091E+02  0.38498158091E+02  0.00000000000E+00 0. -1.
         25    2    1    2    0    0 -0.10245729626E+03  0.10834240075E+03  0.65600686088E+03  0.68425541354E+03  0.12499958434E+03 0.  0.
          2    1    1    2  501    0  0.89281445749E+02 -0.87704527263E+01  0.77326874138E+02  0.11843792830E+03  0.00000000000E+00 0. -1.
          1    1    1    2  502    0  0.13175850510E+02 -0.99571948022E+02  0.65668706718E+03  0.66432377653E+03  0.00000000000E+00 0. -1.
         22    1    3    3    0    0 -0.72490126420E+02  0.13044094514E+03  0.58887159739E+03  0.60748614537E+03  0.00000000000E+00 0.  1.
         22    1    3    3    0    0 -0.29967169839E+02 -0.22098544395E+02  0.67135263486E+02  0.76769268173E+02  0.00000000000E+00 0.  1.
</event>
<event>
 7    1  0.6219721E-006  0.7994021E+02  0.7818608E-02  0.1396037E+00
          2   -1    0    0  502    0  0.00000000000E+00  0.00000000000E+00  0.15678190805E+04  0.15678190805E+04  0.00000000000E+00 0. -1.
          1   -1    0    0  501    0 -0.00000000000E+00 -0.00000000000E+00 -0.29842429001E+03  0.29842429001E+03  0.00000000000E+00 0. -1.
         25    2    1    2    0    0 -0.37117215142E+02  0.20073148804E+02  0.10838116964E+03  0.17073898888E+03  0.12499882170E+03 0.  0.
          2    1    1    2  501    0  0.81324392903E+02 -0.85631861143E+01 -0.26061443734E+03  0.27314258179E+03  0.00000000000E+00 0. -1.
          1    1    1    2  502    0 -0.44207177762E+02 -0.11509962690E+02  0.14216280582E+04  0.14223617998E+04  0.00000000000E+00 0. -1.
         22    1    3    3    0    0 -0.77150807628E+02 -0.12735439422E+02  0.50470593040E+02  0.93068358193E+02  0.00000000000E+00 0. -1.
         22    1    3    3    0    0  0.40033592486E+02  0.32808588225E+02  0.57910576604E+02  0.77670630687E+02  0.00000000000E+00 0. -1.
</event>
<event>
 7    1  0.6219721E-006  0.6459359E+02  0.7818608E-02  0.1406199E+00
          2   -1    0    0  502    0  0.00000000000E+00  0.00000000000E+00  0.15222469379E+04  0.15222469379E+04  0.00000000000E+00 0. -1.
          1   -1    0    0  501    0 -0.00000000000E+00 -0.00000000000E+00 -0.88482447332E+03  0.88482447332E+03  0.00000000000E+00 0. -1.
         25    2    1    2    0    0  0.87633154920E+02 -0.69954870954E+02  0.55833521745E+02  0.17696420326E+03  0.12500277307E+03 0.  0.
          2    1    1    2  501    0 -0.39099778994E+02  0.50816885346E+02 -0.82252704181E+03  0.82502235307E+03  0.00000000000E+00 0. -1.
          1    1    1    2  502    0 -0.48533375926E+02  0.19137985607E+02  0.14041159847E+04  0.14050848549E+04  0.00000000000E+00 0. -1.
         22    1    3    3    0    0  0.79348308502E+02 -0.89567217358E+02  0.80623587735E+02  0.14428653224E+03  0.00000000000E+00 0. -1.
         22    1    3    3    0    0  0.82848464187E+01  0.19612346404E+02 -0.24790065990E+02  0.32677671022E+02  0.00000000000E+00 0. -1.
</event>
<event>
 7    1  0.6219721E-006  0.5747009E+02  0.7818608E-02  0.1557311E+00
          2   -1    0    0  502    0  0.00000000000E+00  0.00000000000E+00  0.36394746378E+03  0.36394746378E+03  0.00000000000E+00 0. -1.
          1   -1    0    0  501    0 -0.00000000000E+00 -0.00000000000E+00 -0.28709140561E+03  0.28709140561E+03  0.00000000000E+00 0. -1.
         25    2    1    2    0    0 -0.51759310124E+02  0.40124713013E+02  0.51759069172E+01  0.14121132499E+03  0.12499931806E+03 0.  0.
          2    1    1    2  501    0 -0.18691813025E+01 -0.20073278057E+02 -0.21578067387E+03  0.21672039486E+03  0.00000000000E+00 0. -1.
          1    1    1    2  502    0  0.53628491427E+02 -0.20051434956E+02  0.28746082512E+03  0.29310714954E+03  0.00000000000E+00 0. -1.
         22    1    3    3    0    0 -0.50685682404E+01 -0.31523508425E+02  0.37979106305E+02  0.49616876999E+02  0.00000000000E+00 0. -1.
         22    1    3    3    0    0 -0.46690741884E+02  0.71648221438E+02 -0.32803199388E+02  0.91594447992E+02  0.00000000000E+00 0. -1.
</event>
<event>
 7    1  0.6219721E-006  0.4237441E+02  0.7818608E-02  0.1527786E+00
          2   -1    0    0  502    0  0.00000000000E+00  0.00000000000E+00  0.18189424675E+04  0.18189424675E+04  0.00000000000E+00 0. -1.
          1   -1    0    0  501    0 -0.00000000000E+00 -0.00000000000E+00 -0.57643740358E+03  0.57643740358E+03  0.00000000000E+00 0. -1.
         25    2    1    2    0    0 -0.13425405287E+02  0.31748386337E+00  0.64681481681E+03  0.65891916302E+03  0.12499885542E+03 0.  0.
          2    1    1    2  501    0  0.33487484628E+02  0.26027945876E+02 -0.56936120459E+03  0.57093874180E+03  0.00000000000E+00 0. -1.
          1    1    1    2  502    0 -0.20062079341E+02 -0.26345429739E+02  0.11650514517E+04  0.11655219663E+04  0.00000000000E+00 0. -1.
         22    1    3    3    0    0 -0.14746684166E+02 -0.60940465949E+02  0.38175171042E+03  0.38686635094E+03  0.00000000000E+00 0. -1.
         22    1    3    3    0    0  0.13212788792E+01  0.61257949812E+02  0.26506310639E+03  0.27205281208E+03  0.00000000000E+00 0. -1.
</event>
<event>
 7    1  0.6219721E-006  0.1406310E+03  0.7818608E-02  0.1372893E+00
          2   -1    0    0  502    0  0.00000000000E+00  0.00000000000E+00  0.25083423580E+03  0.25083423580E+03  0.00000000000E+00 0. -1.
          1   -1    0    0  501    0 -0.00000000000E+00 -0.00000000000E+00 -0.11886412218E+04  0.11886412218E+04  0.00000000000E+00 0. -1.
         25    2    1    2    0    0 -0.16304774228E+02 -0.14216494684E+03  0.94453691151E+02  0.21218586872E+03  0.12499850135E+03 0.  0.
          2    1    1    2  501    0 -0.14932788118E+02  0.13986190163E+03 -0.11227532053E+04  0.11315295399E+04  0.00000000000E+00 0. -1.
          1    1    1    2  502    0  0.31237562346E+02  0.23030452190E+01  0.90492528170E+02  0.95760048941E+02  0.00000000000E+00 0. -1.
         22    1    3    3    0    0  0.19548302077E+02 -0.62186117641E+02 -0.19854394999E+02  0.68142837791E+02  0.00000000000E+00 0.  1.
         22    1    3    3    0    0 -0.35853076305E+02 -0.79978829203E+02  0.11430808615E+03  0.14404303093E+03  0.00000000000E+00 0.  1.
</event>
<event>
 7    1  0.6219721E-006  0.2492676E+03  0.7818608E-02  0.1189413E+00
          2   -1    0    0  502    0  0.00000000000E+00  0.00000000000E+00  0.36335665564E+04  0.36335665564E+04  0.00000000000E+00 0. -1.
          1   -1    0    0  501    0 -0.00000000000E+00 -0.00000000000E+00 -0.99199514356E+03  0.99199514356E+03  0.00000000000E+00 0. -1.
         25    2    1    2    0    0 -0.16373841908E+03 -0.16554075752E+03  0.41455175166E+03  0.49162587977E+03  0.12501535335E+03 0.  0.
          2    1    1    2  501    0  0.23339463179E+03  0.91178908739E+02 -0.93616073161E+03  0.96911483476E+03  0.00000000000E+00 0. -1.
          1    1    1    2  502    0 -0.69656212704E+02  0.74361848778E+02  0.31631803927E+04  0.31648209854E+04  0.00000000000E+00 0. -1.
         22    1    3    3    0    0 -0.18202378473E+03 -0.13271919924E+03  0.37170275785E+03  0.43463776210E+03  0.00000000000E+00 0.  1.
         22    1    3    3    0    0  0.18285365644E+02 -0.32821558282E+02  0.42848993811E+02  0.56988117668E+02  0.00000000000E+00 0.  1.
</event>
<event>
 7    1  0.6219721E-006  0.3644018E+02  0.7818608E-02  0.1617784E+00
          2   -1    0    0  502    0  0.00000000000E+00  0.00000000000E+00  0.26096549441E+04  0.26096549441E+04  0.00000000000E+00 0. -1.
          1   -1    0    0  501    0 -0.00000000000E+00 -0.00000000000E+00 -0.16537757249E+03  0.16537757249E+03  0.00000000000E+00 0. -1.
         25    2    1    2    0    0  0.29500789124E+02  0.66056623190E+01 -0.11936102393E+03  0.17546089287E+03  0.12500215822E+03 0.  0.
          2    1    1    2  501    0 -0.58857292486E+01  0.21161224716E+02 -0.11076063286E+02  0.24599154827E+02  0.00000000000E+00 0. -1.
          1    1    1    2  502    0 -0.23615059875E+02 -0.27766887035E+02  0.25747144588E+04  0.25749724688E+04  0.00000000000E+00 0. -1.
         22    1    3    3    0    0 -0.15485077530E+02  0.44575406417E+02 -0.10462844657E+03  0.11477746432E+03  0.00000000000E+00 0. -1.
         22    1    3    3    0    0  0.44985866653E+02 -0.37969744098E+02 -0.14732577362E+02  0.60683428555E+02  0.00000000000E+00 0. -1.
</event>
<event>
 7    1  0.6219721E-006  0.1400794E+03  0.7818608E-02  0.1372539E+00
          2   -1    0    0  502    0  0.00000000000E+00  0.00000000000E+00  0.18339617899E+04  0.18339617899E+04  0.00000000000E+00 0. -1.
          1   -1    0    0  501    0 -0.00000000000E+00 -0.00000000000E+00 -0.74863293004E+02  0.74863293004E+02  0.00000000000E+00 0. -1.
         25    2    1    2    0    0  0.12445283204E+03  0.21849264280E+02  0.20318296958E+03  0.26994579408E+03  0.12498605867E+03 0.  0.
          2    1    1    2  501    0 -0.14846078363E+03 -0.13983459401E+01  0.92078632545E+02  0.17470270238E+03  0.00000000000E+00 0. -1.
          1    1    1    2  502    0  0.24007951587E+02 -0.20450918340E+02  0.14638368947E+04  0.14641765864E+04  0.00000000000E+00 0. -1.
         22    1    3    3    0    0 -0.24430599841E+01 -0.18962677311E+02 -0.75808123723E+01  0.20567459472E+02  0.00000000000E+00 0.  1.
         22    1    3    3    0    0  0.12689589203E+03  0.40811941591E+02  0.21076378195E+03  0.24937833461E+03  0.00000000000E+00 0.  1.
</event>
<event>
 7    1  0.6219721E-006  0.6887599E+02  0.7818608E-02  0.1514825E+00
          2   -1    0    0  502    0  0.00000000000E+00  0.00000000000E+00  0.20471702830E+04  0.20471702830E+04  0.00000000000E+00 0. -1.
          1   -1    0    0  501    0 -0.00000000000E+00 -0.00000000000E+00 -0.12340171205E+02  0.12340171205E+02  0.00000000000E+00 0. -1.
         25    2    1    2    0    0  0.53304217875E+02 -0.50895080122E+02  0.69966873076E+03  0.71455834124E+03  0.12500256565E+03 0.  0.
          2    1    1    2  501    0 -0.61067888272E+02  0.30082064773E+02  0.23744060817E+03  0.24700659912E+03  0.00000000000E+00 0. -1.
          1    1    1    2  502    0  0.77636703966E+01  0.20813015349E+02  0.10977207729E+04  0.10979455138E+04  0.00000000000E+00 0. -1.
         22    1    3    3    0    0  0.94413315350E+02 -0.35020063476E+02  0.46338283284E+03  0.47419819562E+03  0.00000000000E+00 0.  1.
         22    1    3    3    0    0 -0.41109097475E+02 -0.15875016645E+02  0.23628589792E+03  0.24036014562E+03  0.00000000000E+00 0.  1.
</event>
<event>
 7    1  0.6219721E-006  0.9527123E+02  0.7818608E-02  0.1447280E+00
          2   -1    0    0  502    0  0.00000000000E+00  0.00000000000E+00  0.57391107572E+03  0.57391107572E+03  0.00000000000E+00 0. -1.
          1   -1    0    0  501    0 -0.00000000000E+00 -0.00000000000E+00 -0.99444861444E+02  0.99444861444E+02  0.00000000000E+00 0. -1.
         25    2    1    2    0    0  0.50877715881E+02  0.95604388646E+02  0.28573668220E+03  0.33015037633E+03  0.12500031334E+03 0.  0.
          2    1    1    2  501    0  0.67522410687E+01 -0.24969919320E+02 -0.66943184497E+02  0.71766841792E+02  0.00000000000E+00 0. -1.
          1    1    1    2  502    0 -0.57629956949E+02 -0.70634469326E+02  0.25567271658E+03  0.27143871905E+03  0.00000000000E+00 0. -1.
         22    1    3    3    0    0  0.41840672327E+02  0.45711148203E+02  0.28936204574E+02  0.68391921057E+02  0.00000000000E+00 0. -1.
         22    1    3    3    0    0  0.90370435541E+01  0.49893240443E+02  0.25680047762E+03  0.26175845527E+03  0.00000000000E+00 0. -1.
</event>
<event>
 7    1  0.6219721E-006  0.5081341E+02  0.7818608E-02  0.1510134E+00
          2   -1    0    0  502    0  0.00000000000E+00  0.00000000000E+00  0.51236310916E+03  0.51236310916E+03  0.00000000000E+00 0. -1.
          1   -1    0    0  501    0 -0.00000000000E+00 -0.00000000000E+00 -0.14057215691E+03  0.14057215691E+03  0.00000000000E+00 0. -1.
         25    2    1    2    0    0  0.56700298832E+02 -0.18500803215E+02 -0.53590983317E+02  0.14850485406E+03  0.12499797830E+03 0.  0.
          2    1    1    2  501    0 -0.32476703359E+02  0.37972893410E+02 -0.22976312428E+02  0.54996252852E+02  0.00000000000E+00 0. -1.
          1    1    1    2  502    0 -0.24223595473E+02 -0.19472090195E+02  0.44835824800E+03  0.44943415916E+03  0.00000000000E+00 0. -1.
         22    1    3    3    0    0 -0.29633113661E+01 -0.63622588285E+02 -0.25032022875E+02  0.68434034833E+02  0.00000000000E+00 0. -1.
         22    1    3    3    0    0  0.59663610198E+02  0.45121785070E+02 -0.28558960442E+02  0.80070819224E+02  0.00000000000E+00 0. -1.
</event>
<event>
 7    1  0.6219721E-006  0.1888483E+03  0.7818608E-02  0.1189169E+00
          2   -1    0    0  502    0  0.00000000000E+00  0.00000000000E+00  0.23527680039E+04  0.23527680039E+04  0.00000000000E+00 0. -1.
          1   -1    0    0  501    0 -0.00000000000E+00 -0.00000000000E+00 -0.83352110044E+02  0.83352110044E+02  0.00000000000E+00 0. -1.
         25    2    1    2    0    0  0.28238088438E+03 -0.90534356330E+02  0.76562072399E+03  0.83050352719E+03  0.12500232849E+03 0.  0.
          2    1    1    2  501    0 -0.10998044908E+03  0.78035174579E+02  0.53532559778E+02  0.14508936077E+03  0.00000000000E+00 0. -1.
          1    1    1    2  502    0 -0.17240043530E+03  0.12499181750E+02  0.14502626101E+04  0.14605272260E+04  0.00000000000E+00 0. -1.
         22    1    3    3    0    0  0.13225725246E+03 -0.10232968480E+03  0.33717093433E+03  0.37636097590E+03  0.00000000000E+00 0.  1.
         22    1    3    3    0    0  0.15012363193E+03  0.11795328471E+02  0.42844978966E+03  0.45414255130E+03  0.00000000000E+00 0.  1.
</event>
<event>
 7    1  0.6219721E-006  0.1216531E+03  0.7818608E-02  0.1368185E+00
          2   -1    0    0  502    0  0.00000000000E+00  0.00000000000E+00  0.10533422699E+04  0.10533422699E+04  0.00000000000E+00 0. -1.
          1   -1    0    0  501    0 -0.00000000000E+00 -0.00000000000E+00 -0.10388919639E+03  0.10388919639E+03  0.00000000000E+00 0. -1.
         25    2    1    2    0    0 -0.84389009596E+02 -0.10487693951E+03  0.65082764273E+03  0.67626296307E+03  0.12503718365E+03 0.  0.
          2    1    1    2  501    0  0.98809919177E+02  0.70101829440E+02 -0.49456093288E+02  0.13085706623E+03  0.00000000000E+00 0. -1.
          1    1    1    2  502    0 -0.14420909581E+02  0.34775110066E+02  0.34808152407E+03  0.35011143699E+03  0.00000000000E+00 0. -1.
         22    1    3    3    0    0 -0.70086947437E+02 -0.27818971226E+02  0.50601064705E+03  0.51159832905E+03  0.00000000000E+00 0.  1.
         22    1    3    3    0    0 -0.14302062158E+02 -0.77057968281E+02  0.14481699568E+03  0.16466463401E+03  0.00000000000E+00 0.  1.
</event>
<event>
 7    1  0.6219721E-006  0.6533197E+02  0.7818608E-02  0.1418821E+00
          2   -1    0    0  502    0  0.00000000000E+00  0.00000000000E+00  0.36718094699E+04  0.36718094699E+04  0.00000000000E+00 0. -1.
          1   -1    0    0  501    0 -0.00000000000E+00 -0.00000000000E+00 -0.94953187425E+01  0.94953187425E+01  0.00000000000E+00 0. -1.
         25    2    1    2    0    0  0.17419338720E+02  0.40331802997E+02  0.10053968362E+04  0.10140896791E+04  0.12499996566E+03 0.  0.
          2    1    1    2  501    0  0.17850460865E+02 -0.71031788629E+02  0.26764079070E+03  0.27748107466E+03  0.00000000000E+00 0. -1.
          1    1    1    2  502    0 -0.35269799585E+02  0.30699985632E+02  0.23892765242E+04  0.23897340348E+04  0.00000000000E+00 0. -1.
         22    1    3    3    0    0  0.61892539775E+02  0.48634775861E+02  0.79478716464E+03  0.79867556929E+03  0.00000000000E+00 0.  1.
         22    1    3    3    0    0 -0.44473201055E+02 -0.83029728645E+01  0.21060967153E+03  0.21541410983E+03  0.00000000000E+00 0.  1.
</event>
<event>
 7    1  0.6219721E-006  0.1274464E+03  0.7818608E-02  0.1318648E+00
          2   -1    0    0  502    0  0.00000000000E+00  0.00000000000E+00  0.14774173674E+04  0.14774173674E+04  0.00000000000E+00 0. -1.
          1   -1    0    0  501    0 -0.00000000000E+00 -0.00000000000E+00 -0.53968377372E+03  0.53968377372E+03  0.00000000000E+00 0. -1.
         25    2    1    2    0    0 -0.83067855862E+02  0.13984946673E+03 -0.86798868995E+02  0.22274824696E+03  0.12499838337E+03 0.  0.
          2    1    1    2  501    0  0.32175345117E+02 -0.11878905085E+03 -0.37451705837E+03  0.39421963224E+03  0.00000000000E+00 0. -1.
          1    1    1    2  502    0  0.50892510745E+02 -0.21060415887E+02  0.13990495211E+04  0.14001332619E+04  0.00000000000E+00 0. -1.
         22    1    3    3    0    0 -0.88769899384E+02  0.58354925938E+02 -0.38167950680E+01  0.10630127159E+03  0.00000000000E+00 0.  1.
         22    1    3    3    0    0  0.57020435225E+01  0.81494540794E+02 -0.82982073927E+02  0.11644697537E+03  0.00000000000E+00 0.  1.
</event>
<event>
 7    1  0.6219721E-006  0.9782916E+02  0.7818608E-02  0.1292285E+00
          2   -1    0    0  502    0  0.00000000000E+00  0.00000000000E+00  0.51869307042E+03  0.51869307042E+03  0.00000000000E+00 0. -1.
          1   -1    0    0  501    0 -0.00000000000E+00 -0.00000000000E+00 -0.16502195138E+03  0.16502195138E+03  0.00000000000E+00 0. -1.
         25    2    1    2    0    0  0.40522905625E+02 -0.10600342929E+02  0.10379268445E+03  0.16778888952E+03  0.12500286777E+03 0.  0.
          2    1    1    2  501    0  0.32374543432E+02  0.92317031843E+02 -0.10560707192E+03  0.14395624013E+03  0.00000000000E+00 0. -1.
          1    1    1    2  502    0 -0.72897449057E+02 -0.81716688914E+02  0.35548550651E+03  0.37196989215E+03  0.00000000000E+00 0. -1.
         22    1    3    3    0    0 -0.34934950969E+01  0.34744104412E+01 -0.27843867260E+02  0.28276438600E+02  0.00000000000E+00 0.  1.
         22    1    3    3    0    0  0.44016400722E+02 -0.14074753370E+02  0.13163655171E+03  0.13951245092E+03  0.00000000000E+00 0.  1.
</event>
<event>
 7    1  0.6219721E-006  0.6547572E+02  0.7818608E-02  0.1439081E+00
          2   -1    0    0  502    0  0.00000000000E+00  0.00000000000E+00  0.56384709827E+03  0.56384709827E+03  0.00000000000E+00 0. -1.
          1   -1    0    0  501    0 -0.00000000000E+00 -0.00000000000E+00 -0.48021301941E+03  0.48021301941E+03  0.00000000000E+00 0. -1.
         25    2    1    2    0    0  0.18978790635E+02  0.76971921147E+02 -0.12057252230E+03  0.19091379248E+03  0.12500188752E+03 0.  0.
          2    1    1    2  501    0 -0.45246697603E+02 -0.46799070672E+02 -0.32043579340E+03  0.32698090824E+03  0.00000000000E+00 0. -1.
          1    1    1    2  502    0  0.26267906968E+02 -0.30172850475E+02  0.52464239457E+03  0.52616541697E+03  0.00000000000E+00 0. -1.
         22    1    3    3    0    0 -0.70824998765E+01 -0.18475194344E+02  0.13742830737E+02  0.24090662242E+02  0.00000000000E+00 0. -1.
         22    1    3    3    0    0  0.26061290511E+02  0.95447115491E+02 -0.13431535304E+03  0.16682313024E+03  0.00000000000E+00 0. -1.
</event>
<event>
 7    1  0.6219721E-006  0.7713015E+02  0.7818608E-02  0.1393527E+00
          2   -1    0    0  502    0  0.00000000000E+00  0.00000000000E+00  0.29799833605E+04  0.29799833605E+04  0.00000000000E+00 0. -1.
          1   -1    0    0  501    0 -0.00000000000E+00 -0.00000000000E+00 -0.16620024014E+02  0.16620024014E+02  0.00000000000E+00 0. -1.
         25    2    1    2    0    0  0.74365840661E+02 -0.20794525726E+02  0.64290257564E+03  0.65948242738E+03  0.12502263673E+03 0.  0.
          2    1    1    2  501    0 -0.10942513351E+01  0.48290605161E+02  0.68593997161E+02  0.83894674321E+02  0.00000000000E+00 0. -1.
          1    1    1    2  502    0 -0.73271589326E+02 -0.27496079435E+02  0.22518667637E+04  0.22532262828E+04  0.00000000000E+00 0. -1.
         22    1    3    3    0    0  0.29546173193E+02  0.33677610334E+02  0.47840105708E+03  0.48049425512E+03  0.00000000000E+00 0. -1.
         22    1    3    3    0    0  0.44819667468E+02 -0.54472136060E+02  0.16450151856E+03  0.17898817225E+03  0.00000000000E+00 0. -1.
</event>
<event>
 7    1  0.6219721E-006  0.9313067E+02  0.7818608E-02  0.1390575E+00
          2   -1    0    0  502    0  0.00000000000E+00  0.00000000000E+00  0.19672863788E+03  0.19672863788E+03  0.00000000000E+00 0. -1.
          1   -1    0    0  501    0 -0.00000000000E+00 -0.00000000000E+00 -0.36133163478E+03  0.36133163478E+03  0.00000000000E+00 0. -1.
         25    2    1    2    0    0 -0.11395084689E+02 -0.60410696317E+02 -0.47379365013E+02  0.14713622781E+03  0.12499986049E+03 0.  0.
          2    1    1    2  501    0 -0.13842013806E+01  0.99327967049E+02 -0.25156961950E+03  0.27047224351E+03  0.00000000000E+00 0. -1.
          1    1    1    2  502    0  0.12779286070E+02 -0.38917270732E+02  0.13434598761E+03  0.14045180134E+03  0.00000000000E+00 0. -1.
         22    1    3    3    0    0 -0.22104506703E+02 -0.50283601195E+02 -0.88105469860E+02  0.10382496610E+03  0.00000000000E+00 0.  1.
         22    1    3    3    0    0  0.10709422014E+02 -0.10127095122E+02  0.40726104847E+02  0.43311261717E+02  0.00000000000E+00 0.  1.
</event>
<event>
 7    1  0.6219721E-006  0.2173429E+03  0.7818608E-02  0.1246750E+00
          2   -1    0    0  502    0  0.00000000000E+00  0.00000000000E+00  0.17022703065E+04  0.17022703065E+04  0.00000000000E+00 0. -1.
          1   -1    0    0  501    0 -0.00000000000E+00 -0.00000000000E+00 -0.18132622541E+04  0.18132622541E+04  0.00000000000E+00 0. -1.
         25    2    1    2    0    0  0.18670746085E+01 -0.27719791940E+03  0.81608163856E+01  0.30419396079E+03  0.12500077748E+03 0.  0.
          2    1    1    2  501    0  0.95099137222E+01  0.63148894462E+02 -0.16571982849E+04  0.16584282851E+04  0.00000000000E+00 0. -1.
          1    1    1    2  502    0 -0.11376988331E+02  0.21404902493E+03  0.15380455209E+04  0.15529103147E+04  0.00000000000E+00 0. -1.
         22    1    3    3    0    0  0.30172061279E+02 -0.24855901945E+03 -0.25544077242E+02  0.25168321222E+03  0.00000000000E+00 0. -1.
         22    1    3    3    0    0 -0.28304986670E+02 -0.28638899947E+02  0.33704893627E+02  0.52510748566E+02  0.00000000000E+00 0. -1.
</event>
<event>
 7    1  0.6219721E-006  0.8203980E+02  0.7818608E-02  0.1337687E+00
          2   -1    0    0  502    0  0.00000000000E+00  0.00000000000E+00  0.40769116857E+03  0.40769116857E+03  0.00000000000E+00 0. -1.
          1   -1    0    0  501    0 -0.00000000000E+00 -0.00000000000E+00 -0.79955835157E+03  0.79955835157E+03  0.00000000000E+00 0. -1.
         25    2    1    2    0    0  0.61958737713E+02 -0.95081367721E+02 -0.14762813779E+03  0.22427954493E+03  0.12501158163E+03 0.  0.
          2    1    1    2  501    0 -0.71023591829E+02  0.13700929306E+02 -0.60689214634E+03  0.61118748625E+03  0.00000000000E+00 0. -1.
          1    1    1    2  502    0  0.90648541155E+01  0.81380438414E+02  0.36265310113E+03  0.37178248896E+03  0.00000000000E+00 0. -1.
         22    1    3    3    0    0 -0.33832383086E+02 -0.30702404872E+02 -0.14160797498E+02  0.47830910465E+02  0.00000000000E+00 0. -1.
         22    1    3    3    0    0  0.95791120799E+02 -0.64378962849E+02 -0.13346734029E+03  0.17644863447E+03  0.00000000000E+00 0. -1.
</event>
<event>
 7    1  0.6219721E-006  0.7831130E+02  0.7818608E-02  0.1386830E+00
          2   -1    0    0  502    0  0.00000000000E+00  0.00000000000E+00  0.64454717963E+03  0.64454717963E+03  0.00000000000E+00 0. -1.
          1   -1    0    0  501    0 -0.00000000000E+00 -0.00000000000E+00 -0.40081241274E+03  0.40081241274E+03  0.00000000000E+00 0. -1.
         25    2    1    2    0    0 -0.47387678341E+02 -0.97168183466E+02 -0.35239952305E+02  0.16898559230E+03  0.12500811266E+03 0.  0.
          2    1    1    2  501    0  0.59554087786E+02  0.48460413177E+02 -0.29264721478E+03  0.30255163747E+03  0.00000000000E+00 0. -1.
          1    1    1    2  502    0 -0.12166409445E+02  0.48707770289E+02  0.57162193398E+03  0.57382236259E+03  0.00000000000E+00 0. -1.
         22    1    3    3    0    0 -0.64746339576E+00 -0.58485665602E+02 -0.75994925408E+02  0.95896928927E+02  0.00000000000E+00 0.  1.
         22    1    3    3    0    0 -0.46740214945E+02 -0.38682517864E+02  0.40754973103E+02  0.73088663376E+02  0.00000000000E+00 0.  1.
</event>
<event>
 7    1  0.6219721E-006  0.6281559E+02  0.7818608E-02  0.1541678E+00
          2   -1    0    0  502    0  0.00000000000E+00  0.00000000000E+00  0.61286519894E+03  0.61286519894E+03  0.00000000000E+00 0. -1.
          1   -1    0    0  501    0 -0.00000000000E+00 -0.00000000000E+00 -0.17842030384E+03  0.17842030384E+03  0.00000000000E+00 0. -1.
         25    2    1    2    0    0 -0.34170991193E+02 -0.27634617768E+02  0.18836604872E+03  0.23031287279E+03  0.12502368705E+03 0.  0.
          2    1    1    2  501    0  0.53581347379E+02  0.33892242859E+02 -0.15079189254E+03  0.16357823746E+03  0.00000000000E+00 0. -1.
          1    1    1    2  502    0 -0.19410356187E+02 -0.62576250914E+01  0.39687073892E+03  0.39739439253E+03  0.00000000000E+00 0. -1.
         22    1    3    3    0    0  0.41228316837E+02  0.67375202213E+01  0.29521795276E+02  0.51153735780E+02  0.00000000000E+00 0. -1.
         22    1    3    3    0    0 -0.75399308029E+02 -0.34372137989E+02  0.15884425345E+03  0.17915913701E+03  0.00000000000E+00 0. -1.
</event>
<event>
 7    1  0.6219721E-006  0.1425251E+03  0.7818608E-02  0.1363147E+00
          2   -1    0    0  502    0  0.00000000000E+00  0.00000000000E+00  0.56595339353E+03  0.56595339353E+03  0.00000000000E+00 0. -1.
          1   -1    0    0  501    0 -0.00000000000E+00 -0.00000000000E+00 -0.16544851363E+04  0.16544851363E+04  0.00000000000E+00 0. -1.
         25    2    1    2    0    0 -0.13087173359E+03  0.45592334701E+01  0.16629407174E+03  0.24582001630E+03  0.12500225940E+03 0.  0.
          2    1    1    2  501    0 -0.12518719796E+02  0.31084776801E+02 -0.15993742459E+04  0.15997252765E+04  0.00000000000E+00 0. -1.
          1    1    1    2  502    0  0.14339045338E+03 -0.35644010271E+02  0.34454843142E+03  0.37489323704E+03  0.00000000000E+00 0. -1.
         22    1    3    3    0    0 -0.49611384174E+01 -0.12177833976E+02  0.10312712692E+03  0.10396209329E+03  0.00000000000E+00 0. -1.
         22    1    3    3    0    0 -0.12591059517E+03  0.16737067446E+02  0.63166944820E+02  0.14185792301E+03  0.00000000000E+00 0. -1.
</event>
<event>
 7    1  0.6219721E-006  0.1550468E+03  0.7818608E-02  0.1356801E+00
          2   -1    0    0  502    0  0.00000000000E+00  0.00000000000E+00  0.75630301088E+03  0.75630301088E+03  0.00000000000E+00 0. -1.
          1   -1    0    0  501    0 -0.00000000000E+00 -0.00000000000E+00 -0.11645834886E+03  0.11645834886E+03  0.00000000000E+00 0. -1.
         25    2    1    2    0    0 -0.13041096353E+03  0.91869382916E+02  0.17316277562E+03  0.26656547895E+03  0.12499921912E+03 0.  0.
          2    1    1    2  501    0  0.14150767250E+03 -0.61331092016E+02  0.16796616067E+02  0.15513881054E+03  0.00000000000E+00 0. -1.
          1    1    1    2  502    0 -0.11096708969E+02 -0.30538290901E+02  0.44988527033E+03  0.45105707025E+03  0.00000000000E+00 0. -1.
         22    1    3    3    0    0 -0.14969852924E+03  0.56495919467E+02  0.12073919291E+03  0.20044797649E+03  0.00000000000E+00 0. -1.
         22    1    3    3    0    0  0.19287565713E+02  0.35373463450E+02  0.52423582708E+02  0.66117502460E+02  0.00000000000E+00 0. -1.
</event>
<event>
 7    1  0.6678292E-006  0.1048324E+03  0.7818608E-02  0.1271219E+00
          2   -1    0    0  502    0  0.00000000000E+00  0.00000000000E+00  0.13256146441E+04  0.13256146441E+04  0.00000000000E+00 0. -1.
          1   -1    0    0  501    0 -0.00000000000E+00 -0.00000000000E+00 -0.28956048580E+04  0.28956048580E+04  0.00000000000E+00 0. -1.
         25    2    1    2    0    0  0.64078021737E+02  0.16199998833E+02 -0.25821644468E+03  0.29439518268E+03  0.12499743378E+03 0.  0.
          2    1    1    2  501    0 -0.16240451121E+02 -0.10860938906E+03 -0.26160749501E+04  0.26183788680E+04  0.00000000000E+00 0. -1.
          1    1    1    2  502    0 -0.47837570615E+02  0.92409390228E+02  0.13043011810E+04  0.13084454514E+04  0.00000000000E+00 0. -1.
         22    1    3    3    0    0  0.81005400873E+00 -0.23481522550E+02 -0.19539982711E+03  0.19680734367E+03  0.00000000000E+00 0.  1.
         22    1    3    3    0    0  0.63267967728E+02  0.39681521383E+02 -0.62816617572E+02  0.97587839011E+02  0.00000000000E+00 0.  1.
</event>
<event>
 7    1  0.6219721E-006  0.7816549E+02  0.7818608E-02  0.1338150E+00
          2   -1    0    0  502    0  0.00000000000E+00  0.00000000000E+00  0.58488290290E+03  0.58488290290E+03  0.00000000000E+00 0. -1.
          1   -1    0    0  501    0 -0.00000000000E+00 -0.00000000000E+00 -0.14889160155E+03  0.14889160155E+03  0.00000000000E+00 0. -1.
         25    2    1    2    0    0 -0.65169197157E+02 -0.47378293874E+02  0.10123059237E+03  0.17989974788E+03  0.12499823786E+03 0.  0.
          2    1    1    2  501    0  0.76758147314E+02 -0.27341751126E+02 -0.90596736370E+02  0.12184889484E+03  0.00000000000E+00 0. -1.
          1    1    1    2  502    0 -0.11588950158E+02  0.74720044999E+02  0.42535744534E+03  0.43202586173E+03  0.00000000000E+00 0. -1.
         22    1    3    3    0    0 -0.47540988269E+02  0.35436319913E+02  0.20031940516E+02  0.62587194980E+02  0.00000000000E+00 0.  1.
         22    1    3    3    0    0 -0.17628208888E+02 -0.82814613787E+02  0.81198651856E+02  0.11731255290E+03  0.00000000000E+00 0.  1.
</event>
<event>
 7    1  0.6219721E-006  0.8326237E+02  0.7818608E-02  0.1449777E+00
          2   -1    0    0  502    0  0.00000000000E+00  0.00000000000E+00  0.62452938848E+03  0.62452938848E+03  0.00000000000E+00 0. -1.
          1   -1    0    0  501    0 -0.00000000000E+00 -0.00000000000E+00 -0.17159295993E+04  0.17159295993E+04  0.00000000000E+00 0. -1.
         25    2    1    2    0    0 -0.33123368491E+02 -0.82149518509E+02  0.12303100475E+03  0.19648727991E+03  0.12499968841E+03 0.  0.
          2    1    1    2  501    0  0.40839507193E+01  0.83159273301E+02 -0.16777139583E+04  0.16797786369E+04  0.00000000000E+00 0. -1.
          1    1    1    2  502    0  0.29039417772E+02 -0.10097547921E+01  0.46328274270E+03  0.46419307090E+03  0.00000000000E+00 0. -1.
         22    1    3    3    0    0  0.97158506201E+01  0.42908257373E+00  0.10023520709E+03  0.10070590154E+03  0.00000000000E+00 0. -1.
         22    1    3    3    0    0 -0.42839219111E+02 -0.82578601083E+02  0.22795797666E+02  0.95781378368E+02  0.00000000000E+00 0. -1.
</event>
<event>
 7    1  0.6219721E-006  0.3011071E+02  0.7818608E-02  0.1607472E+00
          2   -1    0    0  502    0  0.00000000000E+00  0.00000000000E+00  0.94132078899E+03  0.94132078899E+03  0.00000000000E+00 0. -1.
          1   -1    0    0  501    0 -0.00000000000E+00 -0.00000000000E+00 -0.87340238864E+02  0.87340238864E+02  0.00000000000E+00 0. -1.
         25    2    1    2    0    0  0.64674702263E+00  0.29482147862E+02 -0.24275513271E+01  0.12844107781E+03  0.12498640782E+03 0.  0.
          2    1    1    2  501    0  0.24874923790E+02 -0.13400227844E+02 -0.12423107768E+02  0.30865215801E+02  0.00000000000E+00 0. -1.
          1    1    1    2  502    0 -0.25521670813E+02 -0.16081920017E+02  0.86883120922E+03  0.86935473425E+03  0.00000000000E+00 0. -1.
         22    1    3    3    0    0 -0.22743115185E+02  0.15150573116E+02 -0.59302734614E+02  0.65296274677E+02  0.00000000000E+00 0. -1.
         22    1    3    3    0    0  0.23389862207E+02  0.14331574746E+02  0.56875183286E+02  0.63144803132E+02  0.00000000000E+00 0. -1.
</event>
<event>
 7    1  0.6219721E-006  0.5786738E+02  0.7818608E-02  0.1448416E+00
          2   -1    0    0  502    0  0.00000000000E+00  0.00000000000E+00  0.10040868562E+04  0.10040868562E+04  0.00000000000E+00 0. -1.
          1   -1    0    0  501    0 -0.00000000000E+00 -0.00000000000E+00 -0.90588712062E+02  0.90588712062E+02  0.00000000000E+00 0. -1.
         25    2    1    2    0    0 -0.79159653952E+01 -0.77742514565E+02  0.52031402731E+03  0.54079443018E+03  0.12500147045E+03 0.  0.
          2    1    1    2  501    0 -0.25406315836E+02  0.51799763880E+02 -0.68902979099E+02  0.89868331192E+02  0.00000000000E+00 0. -1.
          1    1    1    2  502    0  0.33322281231E+02  0.25942750685E+02  0.46208709589E+03  0.46401280686E+03  0.00000000000E+00 0. -1.
         22    1    3    3    0    0  0.50518552944E+02 -0.41491854086E+01  0.23496542280E+03  0.24037073416E+03  0.00000000000E+00 0.  1.
         22    1    3    3    0    0 -0.58434518339E+02 -0.73593329156E+02  0.28534860451E+03  0.30042369601E+03  0.00000000000E+00 0.  1.
</event>
<event>
 7    1  0.6219721E-006  0.2800203E+02  0.7818608E-02  0.1659998E+00
          2   -1    0    0  502    0  0.00000000000E+00  0.00000000000E+00  0.80432261580E+03  0.80432261580E+03  0.00000000000E+00 0. -1.
          1   -1    0    0  501    0 -0.00000000000E+00 -0.00000000000E+00 -0.30576336432E+03  0.30576336432E+03  0.00000000000E+00 0. -1.
         25    2    1    2    0    0 -0.26552907704E+02  0.37326690972E+02  0.14553283075E+03  0.19723935223E+03  0.12500087389E+03 0.  0.
          2    1    1    2  501    0  0.19945443373E+02 -0.10293577183E+02 -0.27915355174E+03  0.28005443023E+03  0.00000000000E+00 0. -1.
          1    1    1    2  502    0  0.66074643309E+01 -0.27033113789E+02  0.63217997246E+03  0.63279219765E+03  0.00000000000E+00 0. -1.
         22    1    3    3    0    0  0.10018417005E+02 -0.69306964714E+01  0.13891354528E+03  0.13944667904E+03  0.00000000000E+00 0.  1.
         22    1    3    3    0    0 -0.36571324709E+02  0.44257387443E+02  0.66192854767E+01  0.57792673190E+02  0.00000000000E+00 0.  1.
</event>
<event>
 7    1  0.6219721E-006  0.6913764E+02  0.7818608E-02  0.1377643E+00
          2   -1    0    0  502    0  0.00000000000E+00  0.00000000000E+00  0.30552532716E+04  0.30552532716E+04  0.00000000000E+00 0. -1.
          1   -1    0    0  501    0 -0.00000000000E+00 -0.00000000000E+00 -0.90227183972E+01  0.90227183972E+01  0.00000000000E+00 0. -1.
         25    2    1    2    0    0 -0.20744816307E+02 -0.94371362790E+01  0.98365561804E+03  0.99182832133E+03  0.12500254854E+03 0.  0.
          2    1    1    2  501    0 -0.23954929646E+02 -0.56397911660E+02  0.22628569242E+03  0.23443501805E+03  0.00000000000E+00 0. -1.
          1    1    1    2  502    0  0.44699745953E+02  0.65835047939E+02  0.18362892427E+04  0.18380126506E+04  0.00000000000E+00 0. -1.
         22    1    3    3    0    0 -0.93323165855E+01  0.22704275250E+02  0.36078321953E+02  0.43637387209E+02  0.00000000000E+00 0.  1.
         22    1    3    3    0    0 -0.11412499721E+02 -0.32141411529E+02  0.94757729609E+03  0.94819093412E+03  0.00000000000E+00 0.  1.
</event>
<event>
 7    1  0.6219721E-006  0.6471232E+02  0.7818608E-02  0.1467537E+00
          2   -1    0    0  502    0  0.00000000000E+00  0.00000000000E+00  0.95636017440E+03  0.95636017440E+03  0.00000000000E+00 0. -1.
          1   -1    0    0  501    0 -0.00000000000E+00 -0.00000000000E+00 -0.93582595186E+03  0.93582595186E+03  0.00000000000E+00 0. -1.
         25    2    1    2    0    0  0.32425945165E+02  0.10632555018E+02  0.29515947990E+02  0.13289460161E+03  0.12500116322E+03 0.  0.
          2    1    1    2  501    0  0.24164536116E+02  0.22257874336E+02 -0.88260672043E+03  0.88321795766E+03  0.00000000000E+00 0. -1.
          1    1    1    2  502    0 -0.56590481281E+02 -0.32890429354E+02  0.87362499498E+03  0.87607356699E+03  0.00000000000E+00 0. -1.
         22    1    3    3    0    0  0.53497726481E+02  0.52982352029E+02 -0.32310272588E+01  0.75362961077E+02  0.00000000000E+00 0.  1.
         22    1    3    3    0    0 -0.21071781315E+02 -0.42349797011E+02  0.32746975249E+02  0.57531640534E+02  0.00000000000E+00 0.  1.
</event>
<event>
 7    1  0.6219721E-006  0.5953108E+02  0.7818608E-02  0.1410582E+00
          2   -1    0    0  502    0  0.00000000000E+00  0.00000000000E+00  0.37786551345E+04  0.37786551345E+04  0.00000000000E+00 0. -1.
          1   -1    0    0  501    0 -0.00000000000E+00 -0.00000000000E+00 -0.22877880381E+03  0.22877880381E+03  0.00000000000E+00 0. -1.
         25    2    1    2    0    0 -0.17810788642E+01  0.81892633619E+02 -0.20245052664E+02  0.15081460938E+03  0.12500243423E+03 0.  0.
          2    1    1    2  501    0 -0.38537486517E+02 -0.44927341173E+02 -0.13692404421E+03  0.14917036480E+03  0.00000000000E+00 0. -1.
          1    1    1    2  502    0  0.40318565381E+02 -0.36965292447E+02  0.37070454275E+04  0.37074489641E+04  0.00000000000E+00 0. -1.
         22    1    3    3    0    0  0.56040636578E+02  0.12517013828E+02 -0.19034401759E+02  0.60494107428E+02  0.00000000000E+00 0.  1.
         22    1    3    3    0    0 -0.57821715442E+02  0.69375619792E+02 -0.12106509054E+01  0.90320501957E+02  0.00000000000E+00 0.  1.
</event>
<event>
 7    1  0.6219721E-006  0.2658342E+03  0.7818608E-02  0.1217506E+00
          2   -1    0    0  502    0  0.00000000000E+00  0.00000000000E+00  0.12046358153E+04  0.12046358153E+04  0.00000000000E+00 0. -1.
          1   -1    0    0  501    0 -0.00000000000E+00 -0.00000000000E+00 -0.84886649600E+03  0.84886649600E+03  0.00000000000E+00 0. -1.
         25    2    1    2    0    0  0.17513897102E+03 -0.24291415681E+03 -0.40815697571E+03  0.52144501956E+03  0.12502737640E+03 0.  0.
          2    1    1    2  501    0 -0.10894015629E+03  0.21854146664E+03 -0.34401615930E+03  0.42187136446E+03  0.00000000000E+00 0. -1.
          1    1    1    2  502    0 -0.66198814730E+02  0.24372690171E+02  0.11079424543E+04  0.11101859273E+04  0.00000000000E+00 0. -1.
         22    1    3    3    0    0  0.69343671662E+01  0.12333163986E+02 -0.39997345660E+01  0.14703409758E+02  0.00000000000E+00 0.  1.
         22    1    3    3    0    0  0.16820460386E+03 -0.25524732080E+03 -0.40415724114E+03  0.50674160980E+03  0.00000000000E+00 0.  1.
</event>
<event>
 7    1  0.6219721E-006  0.5410017E+02  0.7818608E-02  0.1430300E+00
          2   -1    0    0  502    0  0.00000000000E+00  0.00000000000E+00  0.22969809927E+04  0.22969809927E+04  0.00000000000E+00 0. -1.
          1   -1    0    0  501    0 -0.00000000000E+00 -0.00000000000E+00 -0.69083209653E+02  0.69083209653E+02  0.00000000000E+00 0. -1.
         25    2    1    2    0    0 -0.24727993870E+02 -0.22840379433E+02  0.94193827758E+03  0.95079380190E+03  0.12501191276E+03 0.  0.
          2    1    1    2  501    0 -0.32082097682E+02  0.40574896356E+02 -0.53542367187E+02  0.74447083824E+02  0.00000000000E+00 0. -1.
          1    1    1    2  502    0  0.56810091552E+02 -0.17734516923E+02  0.13395018726E+04  0.13408233166E+04  0.00000000000E+00 0. -1.
         22    1    3    3    0    0  0.30941744257E+02 -0.21702615908E+02  0.98225176376E+02  0.10524533410E+03  0.00000000000E+00 0. -1.
         22    1    3    3    0    0 -0.55669738127E+02 -0.11377635256E+01  0.84371310121E+03  0.84554846780E+03  0.00000000000E+00 0. -1.
</event>
<event>
 7    1  0.6219721E-006  0.9682597E+02  0.7818608E-02  0.1378730E+00
          2   -1    0    0  502    0  0.00000000000E+00  0.00000000000E+00  0.57832449919E+03  0.57832449919E+03  0.00000000000E+00 0. -1.
          1   -1    0    0  501    0 -0.00000000000E+00 -0.00000000000E+00 -0.20179399429E+03  0.20179399429E+03  0.00000000000E+00 0. -1.
         25    2    1    2    0    0 -0.67697751424E+02 -0.11854767197E+03 -0.43609970230E+02  0.19016593727E+03  0.12499887246E+03 0.  0.
          2    1    1    2  501    0  0.10960073840E+02  0.41957445648E+02 -0.74505432680E+02  0.86206786060E+02  0.00000000000E+00 0. -1.
          1    1    1    2  502    0  0.56737677584E+02  0.76590226322E+02  0.49464590781E+03  0.50374577014E+03  0.00000000000E+00 0. -1.
         22    1    3    3    0    0 -0.10401692970E+03 -0.78013414438E+02 -0.37952455465E+02  0.13544741922E+03  0.00000000000E+00 0. -1.
         22    1    3    3    0    0  0.36319178278E+02 -0.40534257532E+02 -0.56575147657E+01  0.54718518052E+02  0.00000000000E+00 0. -1.
</event>
<event>
 7    1  0.6219721E-006  0.3354708E+02  0.7818608E-02  0.1606376E+00
          2   -1    0    0  502    0  0.00000000000E+00  0.00000000000E+00  0.19654769587E+04  0.19654769587E+04  0.00000000000E+00 0. -1.
          1   -1    0    0  501    0 -0.00000000000E+00 -0.00000000000E+00 -0.25187416295E+02  0.25187416295E+02  0.00000000000E+00 0. -1.
         25    2    1    2    0    0 -0.44893288333E+02 -0.37733762949E+02  0.91351144551E+03  0.92388700663E+03  0.12499918296E+03 0.  0.
          2    1    1    2  501    0  0.24596846621E+02  0.22252527719E+02 -0.59801138995E+01  0.33703732966E+02  0.00000000000E+00 0. -1.
          1    1    1    2  502    0  0.20296441713E+02  0.15481235230E+02  0.10327582108E+04  0.10330736354E+04  0.00000000000E+00 0. -1.
         22    1    3    3    0    0  0.15132283598E+02  0.30254366353E+02  0.46895955386E+03  0.47017802570E+03  0.00000000000E+00 0.  1.
         22    1    3    3    0    0 -0.60025571932E+02 -0.67988129302E+02  0.44455189165E+03  0.45370898093E+03  0.00000000000E+00 0.  1.
</event>
<event>
 7    1  0.6219721E-006  0.7961951E+02  0.7818608E-02  0.1507419E+00
          2   -1    0    0  502    0  0.00000000000E+00  0.00000000000E+00  0.95044469203E+03  0.95044469203E+03  0.00000000000E+00 0. -1.
          1   -1    0    0  501    0 -0.00000000000E+00 -0.00000000000E+00 -0.13919332037E+03  0.13919332037E+03  0.00000000000E+00 0. -1.
         25    2    1    2    0    0 -0.37132087922E+02 -0.69541551313E+02  0.75571943980E+02  0.16598382101E+03  0.12499876322E+03 0.  0.
          2    1    1    2  501    0  0.18544450357E+02 -0.80192310771E+01 -0.90959599241E+02  0.93176463768E+02  0.00000000000E+00 0. -1.
          1    1    1    2  502    0  0.18587637565E+02  0.77560782390E+02  0.82663902693E+03  0.83047772762E+03  0.00000000000E+00 0. -1.
         22    1    3    3    0    0  0.42806831065E+02 -0.49348716074E+02  0.34037267142E+02  0.73663125907E+02  0.00000000000E+00 0. -1.
         22    1    3    3    0    0 -0.79938918987E+02 -0.20192835239E+02  0.41534676838E+02  0.92320695100E+02  0.00000000000E+00 0. -1.
</event>
<event>
 7    1  0.6219721E-006  0.7401891E+02  0.7818608E-02  0.1393298E+00
          2   -1    0    0  502    0  0.00000000000E+00  0.00000000000E+00  0.21167933188E+04  0.21167933188E+04  0.00000000000E+00 0. -1.
          1   -1    0    0  501    0 -0.00000000000E+00 -0.00000000000E+00 -0.79618610756E+02  0.79618610756E+02  0.00000000000E+00 0. -1.
         25    2    1    2    0    0  0.40934005985E+02 -0.34884076196E+01  0.11764802957E+03  0.17650359772E+03  0.12499879725E+03 0.  0.
          2    1    1    2  501    0 -0.75953761214E+02 -0.32793518453E+02 -0.15545971612E+02  0.84178773621E+02  0.00000000000E+00 0. -1.
          1    1    1    2  502    0  0.35019755229E+02  0.36281926072E+02  0.19350726500E+04  0.19357295582E+04  0.00000000000E+00 0. -1.
         22    1    3    3    0    0  0.25987678590E+02  0.41039018138E+02 -0.13264658252E+01  0.48593414778E+02  0.00000000000E+00 0.  1.
         22    1    3    3    0    0  0.14946327395E+02 -0.44527425757E+02  0.11897449539E+03  0.12791018295E+03  0.00000000000E+00 0.  1.
</event>
<event>
 7    1  0.6219721E-006  0.9562043E+02  0.7818608E-02  0.1396446E+00
          2   -1    0    0  502    0  0.00000000000E+00  0.00000000000E+00  0.56650136377E+02  0.56650136377E+02  0.00000000000E+00 0. -1.
          1   -1    0    0  501    0 -0.00000000000E+00 -0.00000000000E+00 -0.84397286480E+03  0.84397286480E+03  0.00000000000E+00 0. -1.
         25    2    1    2    0    0 -0.33842387025E+02  0.53357994640E+02 -0.51586206710E+03  0.53453829022E+03  0.12500051474E+03 0.  0.
          2    1    1    2  501    0 -0.32077103192E+02  0.20495768923E+02 -0.26408744288E+03  0.26681678092E+03  0.00000000000E+00 0. -1.
          1    1    1    2  502    0  0.65919490217E+02 -0.73853763563E+02 -0.73732184377E+01  0.99267930033E+02  0.00000000000E+00 0. -1.
         22    1    3    3    0    0  0.33163039428E+02  0.44158668118E+02 -0.36571811662E+03  0.36986418586E+03  0.00000000000E+00 0.  1.
         22    1    3    3    0    0 -0.67005426452E+02  0.91993265217E+01 -0.15014395048E+03  0.16467410437E+03  0.00000000000E+00 0.  1.
</event>
<event>
 7    1  0.6219721E-006  0.7530532E+02  0.7818608E-02  0.1462613E+00
          2   -1    0    0  502    0  0.00000000000E+00  0.00000000000E+00  0.91949845528E+02  0.91949845528E+02  0.00000000000E+00 0. -1.
          1   -1    0    0  501    0 -0.00000000000E+00 -0.00000000000E+00 -0.12917049860E+04  0.12917049860E+04  0.00000000000E+00 0. -1.
         25    2    1    2    0    0  0.45301070358E+02 -0.45951684786E+02 -0.31790721663E+03  0.34764205960E+03  0.12500503553E+03 0.  0.
          2    1    1    2  501    0 -0.70381167796E+02  0.30895471161E+02 -0.95455348110E+03  0.95764314189E+03  0.00000000000E+00 0. -1.
          1    1    1    2  502    0  0.25080097438E+02  0.15056213625E+02  0.72705557260E+02  0.78369630041E+02  0.00000000000E+00 0. -1.
         22    1    3    3    0    0  0.68748126518E+01 -0.76870503019E+02 -0.11271312110E+03  0.13660375160E+03  0.00000000000E+00 0. -1.
         22    1    3    3    0    0  0.38426257706E+02  0.30918818233E+02 -0.20519409554E+03  0.21103830801E+03  0.00000000000E+00 0. -1.
</event>
<event>
 7    1  0.6219721E-006  0.6776600E+02  0.7818608E-02  0.1403906E+00
          2   -1    0    0  502    0  0.00000000000E+00  0.00000000000E+00  0.12592755398E+04  0.12592755398E+04  0.00000000000E+00 0. -1.
          1   -1    0    0  501    0 -0.00000000000E+00 -0.00000000000E+00 -0.23625361075E+02  0.23625361075E+02  0.00000000000E+00 0. -1.
         25    2    1    2    0    0  0.26062592274E+02 -0.40944333077E+02  0.56339804961E+03  0.57913446883E+03  0.12499469413E+03 0.  0.
          2    1    1    2  501    0 -0.70726410705E+02  0.17095132987E+02  0.75447719779E+02  0.10481806697E+03  0.00000000000E+00 0. -1.
          1    1    1    2  502    0  0.44663818431E+02  0.23849200091E+02  0.59680440937E+03  0.59894836511E+03  0.00000000000E+00 0. -1.
         22    1    3    3    0    0 -0.88213418917E+01 -0.62670383272E+02  0.13874835407E+03  0.15250081564E+03  0.00000000000E+00 0.  1.
         22    1    3    3    0    0  0.34883934166E+02  0.21726050195E+02  0.42464969553E+03  0.42663365319E+03  0.00000000000E+00 0.  1.
</event>
<event>
 7    1  0.6219721E-006  0.4262747E+02  0.7818608E-02  0.1532828E+00
          2   -1    0    0  502    0  0.00000000000E+00  0.00000000000E+00  0.80799902013E+03  0.80799902013E+03  0.00000000000E+00 0. -1.
          1   -1    0    0  501    0 -0.00000000000E+00 -0.00000000000E+00 -0.18361510245E+03  0.18361510245E+03  0.00000000000E+00 0. -1.
         25    2    1    2    0    0  0.44691402005E+02 -0.80224237443E+01  0.86750449105E+02  0.15879620276E+03  0.12501565060E+03 0.  0.
          2    1    1    2  501    0 -0.36339134071E+02 -0.22703880977E+02 -0.14410286500E+03  0.15033840021E+03  0.00000000000E+00 0. -1.
          1    1    1    2  502    0 -0.83522679337E+01  0.30726304722E+02  0.68173633357E+03  0.68247951961E+03  0.00000000000E+00 0. -1.
         22    1    3    3    0    0  0.54559447992E+02 -0.42923212338E+02  0.98647894990E+02  0.12062563040E+03  0.00000000000E+00 0.  1.
         22    1    3    3    0    0 -0.98680459870E+01  0.34900788593E+02 -0.11897445885E+02  0.38170572365E+02  0.00000000000E+00 0.  1.
</event>
<event>
 7    1  0.6219721E-006  0.1203870E+03  0.7818608E-02  0.1319161E+00
          2   -1    0    0  502    0  0.00000000000E+00  0.00000000000E+00  0.83709257884E+02  0.83709257884E+02  0.00000000000E+00 0. -1.
          1   -1    0    0  501    0 -0.00000000000E+00 -0.00000000000E+00 -0.92581289036E+03  0.92581289036E+03  0.00000000000E+00 0. -1.
         25    2    1    2    0    0  0.12270751106E+03  0.12073802895E+03 -0.46212438461E+03  0.50874306888E+03  0.12500303349E+03 0.  0.
          2    1    1    2  501    0 -0.37858421280E+02 -0.43993341150E+02 -0.38196964970E+03  0.38635409591E+03  0.00000000000E+00 0. -1.
          1    1    1    2  502    0 -0.84849089775E+02 -0.76744687798E+02  0.19904018318E+01  0.11442498346E+03  0.00000000000E+00 0. -1.
         22    1    3    3    0    0  0.12769635248E+02  0.38330996101E+02 -0.26734982015E+03  0.27038538270E+03  0.00000000000E+00 0.  1.
         22    1    3    3    0    0  0.10993787581E+03  0.82407032846E+02 -0.19477456446E+03  0.23835768618E+03  0.00000000000E+00 0.  1.
</event>
<event>
 7    1  0.6219721E-006  0.1607843E+03  0.7818608E-02  0.1316888E+00
          2   -1    0    0  502    0  0.00000000000E+00  0.00000000000E+00  0.77702584971E+03  0.77702584971E+03  0.00000000000E+00 0. -1.
          1   -1    0    0  501    0 -0.00000000000E+00 -0.00000000000E+00 -0.81183356906E+03  0.81183356906E+03  0.00000000000E+00 0. -1.
         25    2    1    2    0    0  0.12099716806E+03 -0.74393731939E+02  0.24393875678E+02  0.19077214432E+03  0.12499683135E+03 0.  0.
          2    1    1    2  501    0 -0.11221479850E+03  0.11786755944E+03 -0.71880336052E+03  0.73699606082E+03  0.00000000000E+00 0. -1.
          1    1    1    2  502    0 -0.87823695611E+01 -0.43473827497E+02  0.65960176549E+03  0.66109121362E+03  0.00000000000E+00 0. -1.
         22    1    3    3    0    0  0.12807294083E+03 -0.79502874699E+02 -0.14006848514E+02  0.15139213012E+03  0.00000000000E+00 0.  1.
         22    1    3    3    0    0 -0.70757727659E+01  0.51091427597E+01  0.38400724193E+02  0.39380014201E+02  0.00000000000E+00 0.  1.
</event>
<event>
 7    1  0.6219721E-006  0.2804175E+02  0.7818608E-02  0.1635795E+00
          2   -1    0    0  502    0  0.00000000000E+00  0.00000000000E+00  0.86439573293E+02  0.86439573293E+02  0.00000000000E+00 0. -1.
          1   -1    0    0  501    0 -0.00000000000E+00 -0.00000000000E+00 -0.18921467818E+04  0.18921467818E+04  0.00000000000E+00 0. -1.
         25    2    1    2    0    0  0.21102103719E+02 -0.21088295388E+01 -0.14116372812E+04  0.14173189506E+04  0.12499379236E+03 0.  0.
          2    1    1    2  501    0 -0.10007311758E+02 -0.23677057313E+02 -0.47495477284E+03  0.47564985606E+03  0.00000000000E+00 0. -1.
          1    1    1    2  502    0 -0.11094791961E+02  0.25785886851E+02  0.80884845508E+02  0.85617548448E+02  0.00000000000E+00 0. -1.
         22    1    3    3    0    0  0.46202516219E+02 -0.15075172600E+02 -0.21817805899E+03  0.22352538728E+03  0.00000000000E+00 0. -1.
         22    1    3    3    0    0 -0.25100412500E+02  0.12966343061E+02 -0.11934592222E+04  0.11937935633E+04  0.00000000000E+00 0. -1.
</event>
<event>
 7    1  0.6219721E-006  0.6539988E+02  0.7818608E-02  0.1432779E+00
          2   -1    0    0  502    0  0.00000000000E+00  0.00000000000E+00  0.78278540534E+03  0.78278540534E+03  0.00000000000E+00 0. -1.
          1   -1    0    0  501    0 -0.00000000000E+00 -0.00000000000E+00 -0.55630179378E+02  0.55630179378E+02  0.00000000000E+00 0. -1.
         25    2    1    2    0    0  0.42075472188E+02  0.46828177236E+02  0.38892414677E+03  0.41334026699E+03  0.12499984330E+03 0.  0.
          2    1    1    2  501    0 -0.35992883726E+02  0.21633812732E+02 -0.29278957335E+02  0.51193426090E+02  0.00000000000E+00 0. -1.
          1    1    1    2  502    0 -0.60825884623E+01 -0.68461989968E+02  0.36751003653E+03  0.37388189165E+03  0.00000000000E+00 0. -1.
         22    1    3    3    0    0 -0.13816655053E+02 -0.25545695184E+02  0.25696116937E+02  0.38778511123E+02  0.00000000000E+00 0. -1.
         22    1    3    3    0    0  0.55892127240E+02  0.72373872421E+02  0.36322802984E+03  0.37456175586E+03  0.00000000000E+00 0. -1.
</event>
<event>
 7    1  0.6219721E-006  0.3332315E+02  0.7818608E-02  0.1567297E+00
          2   -1    0    0  502    0  0.00000000000E+00  0.00000000000E+00  0.92493799478E+03  0.92493799478E+03  0.00000000000E+00 0. -1.
          1   -1    0    0  501    0 -0.00000000000E+00 -0.00000000000E+00 -0.50512748865E+02  0.50512748865E+02  0.00000000000E+00 0. -1.
         25    2    1    2    0    0 -0.60848168316E+02 -0.14895133975E+02  0.22757769600E+03  0.26709761098E+03  0.12500064588E+03 0.  0.
          2    1    1    2  501    0  0.32596737944E+02 -0.17277656036E+01 -0.21574465483E+02  0.39127868067E+02  0.00000000000E+00 0. -1.
          1    1    1    2  502    0  0.28251430372E+02  0.16622899579E+02  0.66842201541E+03  0.66922526461E+03  0.00000000000E+00 0. -1.
         22    1    3    3    0    0  0.25918554788E+02  0.12906221759E+02  0.13165169394E+03  0.13479803619E+03  0.00000000000E+00 0. -1.
         22    1    3    3    0    0 -0.86766723104E+02 -0.27801355734E+02  0.95926002055E+02  0.13229957479E+03  0.00000000000E+00 0. -1.
</event>
<event>
 7    1  0.6219721E-006  0.6114212E+02  0.7818608E-02  0.1454325E+00
          2   -1    0    0  502    0  0.00000000000E+00  0.00000000000E+00  0.58229765048E+03  0.58229765048E+03  0.00000000000E+00 0. -1.
          1   -1    0    0  501    0 -0.00000000000E+00 -0.00000000000E+00 -0.19596151656E+03  0.19596151656E+03  0.00000000000E+00 0. -1.
         25    2    1    2    0    0  0.75544751569E+01  0.58702041752E+02  0.10165086307E+03  0.17164781462E+03  0.12500829772E+03 0.  0.
          2    1    1    2  501    0 -0.43001408936E+02 -0.44278297602E+02 -0.15418256200E+03  0.16607814797E+03  0.00000000000E+00 0. -1.
          1    1    1    2  502    0  0.35446933780E+02 -0.14423744150E+02  0.43886783285E+03  0.44053320445E+03  0.00000000000E+00 0. -1.
         22    1    3    3    0    0 -0.10951070974E+02 -0.24449280479E+02  0.79120678931E+02  0.83533077915E+02  0.00000000000E+00 0. -1.
         22    1    3    3    0    0  0.18505546131E+02  0.83151322231E+02  0.22530184137E+02  0.88114736700E+02  0.00000000000E+00 0. -1.
</event>
<event>
 7    1  0.6219721E-006  0.9220643E+02  0.7818608E-02  0.1334486E+00
          2   -1    0    0  502    0  0.00000000000E+00  0.00000000000E+00  0.18651085410E+04  0.18651085410E+04  0.00000000000E+00 0. -1.
          1   -1    0    0  501    0 -0.00000000000E+00 -0.00000000000E+00 -0.63626707744E+02  0.63626707744E+02  0.00000000000E+00 0. -1.
         25    2    1    2    0    0  0.12551712759E+03  0.72300588860E+02  0.21951264773E+03  0.29119204276E+03  0.12500031514E+03 0.  0.
          2    1    1    2  501    0 -0.66056967145E+02 -0.39965499300E+01  0.14867708412E+02  0.67827310673E+02  0.00000000000E+00 0. -1.
          1    1    1    2  502    0 -0.59460160445E+02 -0.68304038930E+02  0.15671014771E+04  0.15697158953E+04  0.00000000000E+00 0. -1.
         22    1    3    3    0    0 -0.21691443971E+02  0.30424836256E+02  0.55040796946E+02  0.66525774938E+02  0.00000000000E+00 0. -1.
         22    1    3    3    0    0  0.14720857156E+03  0.41875752605E+02  0.16447185079E+03  0.22466626782E+03  0.00000000000E+00 0. -1.
</event>
<event>
 7    1  0.6219721E-006  0.1820826E+03  0.7818608E-02  0.1184211E+00
          2   -1    0    0  502    0  0.00000000000E+00  0.00000000000E+00  0.25733850382E+04  0.25733850382E+04  0.00000000000E+00 0. -1.
          1   -1    0    0  501    0 -0.00000000000E+00 -0.00000000000E+00 -0.89413694135E+02  0.89413694135E+02  0.00000000000E+00 0. -1.
         25    2    1    2    0    0 -0.12937788878E+03 -0.27954534133E+03  0.72985592372E+03  0.80199670317E+03  0.12499922617E+03 0.  0.
          2    1    1    2  501    0  0.92138868612E+02  0.11554386625E+03  0.61856000777E+02  0.16020649478E+03  0.00000000000E+00 0. -1.
          1    1    1    2  502    0  0.37239020171E+02  0.16400147507E+03  0.16922594195E+04  0.17005955343E+04  0.00000000000E+00 0. -1.
         22    1    3    3    0    0 -0.59824702586E+02 -0.14535379543E+03  0.52094902686E+03  0.54414576124E+03  0.00000000000E+00 0.  1.
         22    1    3    3    0    0 -0.69553186197E+02 -0.13419154590E+03  0.20890689686E+03  0.25785094194E+03  0.00000000000E+00 0.  1.
</event>
<event>
 7    1  0.6219721E-006  0.3623568E+02  0.7818608E-02  0.1605013E+00
          2   -1    0    0  502    0  0.00000000000E+00  0.00000000000E+00  0.16205574804E+03  0.16205574804E+03  0.00000000000E+00 0. -1.
          1   -1    0    0  501    0 -0.00000000000E+00 -0.00000000000E+00 -0.19250790951E+03  0.19250790951E+03  0.00000000000E+00 0. -1.
         25    2    1    2    0    0  0.34935996635E+02 -0.39158743511E+02 -0.20422473147E+02  0.13709908262E+03  0.12500059996E+03 0.  0.
          2    1    1    2  501    0 -0.27227691652E+01  0.23669845874E+02 -0.10934621522E+03  0.11191188435E+03  0.00000000000E+00 0. -1.
          1    1    1    2  502    0 -0.32213227470E+02  0.15488897637E+02  0.99316526902E+02  0.10555269059E+03  0.00000000000E+00 0. -1.
         22    1    3    3    0    0 -0.38979522185E+02 -0.40234343614E+02 -0.28290984394E+02  0.62758149700E+02  0.00000000000E+00 0. -1.
         22    1    3    3    0    0  0.73915518820E+02  0.10756001024E+01  0.78685112469E+01  0.74340932919E+02  0.00000000000E+00 0. -1.
</event>
<event>
 7    1  0.6219721E-006  0.1315035E+03  0.7818608E-02  0.1288397E+00
          2   -1    0    0  502    0  0.00000000000E+00  0.00000000000E+00  0.32989981929E+03  0.32989981929E+03  0.00000000000E+00 0. -1.
          1   -1    0    0  501    0 -0.00000000000E+00 -0.00000000000E+00 -0.68211679980E+03  0.68211679980E+03  0.00000000000E+00 0. -1.
         25    2    1    2    0    0 -0.13118577555E+03 -0.12117554378E+03  0.76370427850E+01  0.21812153235E+03  0.12500183333E+03 0.  0.
          2    1    1    2  501    0  0.61151846915E+02  0.11362941539E+03 -0.56366928802E+03  0.57825103431E+03  0.00000000000E+00 0. -1.
          1    1    1    2  502    0  0.70033928633E+02  0.75461283952E+01  0.20381526472E+03  0.21564405243E+03  0.00000000000E+00 0. -1.
         22    1    3    3    0    0 -0.12997329619E+03 -0.11970299126E+03  0.43689837815E+02  0.18201831163E+03  0.00000000000E+00 0.  1.
         22    1    3    3    0    0 -0.12124793559E+01 -0.14725525208E+01 -0.36052795030E+02  0.36103220724E+02  0.00000000000E+00 0.  1.
</event>
<event>
 7    1  0.6219721E-006  0.1476779E+03  0.7818608E-02  0.1410353E+00
          2   -1    0    0  502    0  0.00000000000E+00  0.00000000000E+00  0.41956532568E+04  0.41956532568E+04  0.00000000000E+00 0. -1.
          1   -1    0    0  501    0 -0.00000000000E+00 -0.00000000000E+00 -0.51329896607E+02  0.51329896607E+02  0.00000000000E+00 0. -1.
         25    2    1    2    0    0 -0.73836512494E+02 -0.10484275755E+03  0.17511628879E+03  0.25047053918E+03  0.12500376798E+03 0.  0.
          2    1    1    2  501    0 -0.35122867242E+01 -0.21808577765E+02 -0.23224972978E+01  0.22211353311E+02  0.00000000000E+00 0. -1.
          1    1    1    2  502    0  0.77348799219E+02  0.12665133532E+03  0.39715295687E+04  0.39743012609E+04  0.00000000000E+00 0. -1.
         22    1    3    3    0    0 -0.46816092792E+02 -0.13241516596E+03  0.13552785613E+03  0.19517510730E+03  0.00000000000E+00 0.  1.
         22    1    3    3    0    0 -0.27020419703E+02  0.27572408412E+02  0.39588432659E+02  0.55295431882E+02  0.00000000000E+00 0.  1.
</event>
<event>
 7    1  0.6219721E-006  0.3603280E+02  0.7818608E-02  0.1569312E+00
          2   -1    0    0  502    0  0.00000000000E+00  0.00000000000E+00  0.69078774579E+03  0.69078774579E+03  0.00000000000E+00 0. -1.
          1   -1    0    0  501    0 -0.00000000000E+00 -0.00000000000E+00 -0.33934580672E+03  0.33934580672E+03  0.00000000000E+00 0. -1.
         25    2    1    2    0    0 -0.91812031680E+01 -0.44811647722E+01  0.29382820491E+03  0.31947250113E+03  0.12499315839E+03 0.  0.
          2    1    1    2  501    0  0.34139254063E+02 -0.11817897940E+02 -0.32494280722E+03  0.32694491790E+03  0.00000000000E+00 0. -1.
          1    1    1    2  502    0 -0.24958050895E+02  0.16299062713E+02  0.38255654137E+03  0.38371613348E+03  0.00000000000E+00 0. -1.
         22    1    3    3    0    0 -0.26063016942E+00 -0.63597852219E+02  0.17988887203E+03  0.19080031713E+03  0.00000000000E+00 0.  1.
         22    1    3    3    0    0 -0.89205729985E+01  0.59116687447E+02  0.11393933288E+03  0.12867218400E+03  0.00000000000E+00 0.  1.
</event>
<event>
 7    1  0.6219721E-006  0.3953727E+03  0.7818608E-02  0.1147608E+00
          2   -1    0    0  502    0  0.00000000000E+00  0.00000000000E+00  0.13252100746E+04  0.13252100746E+04  0.00000000000E+00 0. -1.
          1   -1    0    0  501    0 -0.00000000000E+00 -0.00000000000E+00 -0.18712187880E+04  0.18712187880E+04  0.00000000000E+00 0. -1.
         25    2    1    2    0    0  0.29815521597E+03  0.17950459304E+03 -0.68553326270E+03  0.77890921063E+03  0.12500108956E+03 0.  0.
          2    1    1    2  501    0 -0.17379978552E+02  0.10229787907E+03 -0.11055658565E+04  0.11104245958E+04  0.00000000000E+00 0. -1.
          1    1    1    2  502    0 -0.28077523742E+03 -0.28180247211E+03  0.12450904059E+04  0.13070950562E+04  0.00000000000E+00 0. -1.
         22    1    3    3    0    0  0.30101201457E+03  0.18645859871E+03 -0.62846803128E+03  0.72135089124E+03  0.00000000000E+00 0.  1.
         22    1    3    3    0    0 -0.28567986049E+01 -0.69540056714E+01 -0.57065231421E+02  0.57558319383E+02  0.00000000000E+00 0.  1.
</event>
<event>
 7    1  0.6219721E-006  0.4515299E+02  0.7818608E-02  0.1479053E+00
          2   -1    0    0  502    0  0.00000000000E+00  0.00000000000E+00  0.91540245371E+02  0.91540245371E+02  0.00000000000E+00 0. -1.
          1   -1    0    0  501    0 -0.00000000000E+00 -0.00000000000E+00 -0.12036158641E+04  0.12036158641E+04  0.00000000000E+00 0. -1.
         25    2    1    2    0    0  0.11935012012E+01  0.69927349724E+01 -0.69556025989E+02  0.14322459287E+03  0.12499968186E+03 0.  0.
          2    1    1    2  501    0 -0.19527369614E+02  0.38728450946E+02 -0.10856149439E+04  0.10864810249E+04  0.00000000000E+00 0. -1.
          1    1    1    2  502    0  0.18333868412E+02 -0.45721185918E+02  0.43095351150E+02  0.65450491697E+02  0.00000000000E+00 0. -1.
         22    1    3    3    0    0 -0.59346546051E+02  0.11341848200E+02 -0.16562323416E+02  0.62649506029E+02  0.00000000000E+00 0. -1.
         22    1    3    3    0    0  0.60540047252E+02 -0.43491132275E+01 -0.52993702574E+02  0.80575086842E+02  0.00000000000E+00 0. -1.
</event>
<event>
 7    1  0.6219721E-006  0.9165528E+02  0.7818608E-02  0.1374522E+00
          2   -1    0    0  502    0  0.00000000000E+00  0.00000000000E+00  0.17957026204E+03  0.17957026204E+03  0.00000000000E+00 0. -1.
          1   -1    0    0  501    0 -0.00000000000E+00 -0.00000000000E+00 -0.78177289407E+03  0.78177289407E+03  0.00000000000E+00 0. -1.
         25    2    1    2    0    0  0.98159446567E-01 -0.52880189022E+02 -0.28244845814E+03  0.31336644392E+03  0.12500029057E+03 0.  0.
          2    1    1    2  501    0  0.32019365019E+02 -0.34976163852E+02 -0.46924294945E+03  0.47163282051E+03  0.00000000000E+00 0. -1.
          1    1    1    2  502    0 -0.32117524466E+02  0.87856352874E+02  0.14948877555E+03  0.17634389168E+03  0.00000000000E+00 0. -1.
         22    1    3    3    0    0 -0.59376152036E+01  0.40859396091E+02 -0.99073259599E+02  0.10733245684E+03  0.00000000000E+00 0.  1.
         22    1    3    3    0    0  0.60357746502E+01 -0.93739585112E+02 -0.18337519854E+03  0.20603398708E+03  0.00000000000E+00 0.  1.
</event>
<event>
 7    1  0.6219721E-006  0.3190217E+03  0.7818608E-02  0.1210540E+00
          2   -1    0    0  502    0  0.00000000000E+00  0.00000000000E+00  0.19186238893E+04  0.19186238893E+04  0.00000000000E+00 0. -1.
          1   -1    0    0  501    0 -0.00000000000E+00 -0.00000000000E+00 -0.12648936197E+04  0.12648936197E+04  0.00000000000E+00 0. -1.
         25    2    1    2    0    0  0.22120779656E+03 -0.16819492257E+03 -0.71441568954E+03  0.77668359054E+03  0.12500080445E+03 0.  0.
          2    1    1    2  501    0 -0.50609256547E+00 -0.63286901913E+02 -0.50380107549E+03  0.50776078201E+03  0.00000000000E+00 0. -1.
          1    1    1    2  502    0 -0.22070170399E+03  0.23148182448E+03  0.18719470346E+04  0.18990731364E+04  0.00000000000E+00 0. -1.
         22    1    3    3    0    0  0.22605047392E+03 -0.12525119754E+03 -0.64584299098E+03  0.69562910250E+03  0.00000000000E+00 0.  1.
         22    1    3    3    0    0 -0.48426773645E+01 -0.42943725030E+02 -0.68572698565E+02  0.81054488043E+02  0.00000000000E+00 0.  1.
</event>
<event>
 7    1  0.6219721E-006  0.9038896E+02  0.7818608E-02  0.1447807E+00
          2   -1    0    0  502    0  0.00000000000E+00  0.00000000000E+00  0.14166776440E+04  0.14166776440E+04  0.00000000000E+00 0. -1.
          1   -1    0    0  501    0 -0.00000000000E+00 -0.00000000000E+00 -0.33845447552E+03  0.33845447552E+03  0.00000000000E+00 0. -1.
         25    2    1    2    0    0 -0.36877411517E+02  0.10610531797E+03 -0.12407489081E+02  0.16851574415E+03  0.12500131303E+03 0.  0.
          2    1    1    2  501    0 -0.54156681044E+01 -0.26612484654E+02 -0.24572971118E+03  0.24722589823E+03  0.00000000000E+00 0. -1.
          1    1    1    2  502    0  0.42293079621E+02 -0.79492833314E+02  0.13363603687E+04  0.13393904771E+04  0.00000000000E+00 0. -1.
         22    1    3    3    0    0  0.33068923576E+02 -0.81411753949E+01 -0.40676124491E+01  0.34298366059E+02  0.00000000000E+00 0. -1.
         22    1    3    3    0    0 -0.69946335093E+02  0.11424649336E+03 -0.83398766314E+01  0.13421737809E+03  0.00000000000E+00 0. -1.
</event>
<event>
 7    1  0.6219721E-006  0.8643889E+02  0.7818608E-02  0.1371305E+00
          2   -1    0    0  502    0  0.00000000000E+00  0.00000000000E+00  0.20879661238E+03  0.20879661238E+03  0.00000000000E+00 0. -1.
          1   -1    0    0  501    0 -0.00000000000E+00 -0.00000000000E+00 -0.13902306218E+04  0.13902306218E+04  0.00000000000E+00 0. -1.
         25    2    1    2    0    0  0.14916487860E+02 -0.36021125031E+02 -0.11181594650E+03  0.17218385452E+03  0.12499780321E+03 0.  0.
          2    1    1    2  501    0  0.11122527652E+02 -0.50419654211E+02 -0.12362499156E+04  0.12373276470E+04  0.00000000000E+00 0. -1.
          1    1    1    2  502    0 -0.26039015512E+02  0.86440779241E+02  0.16663185262E+03  0.18951573273E+03  0.00000000000E+00 0. -1.
         22    1    3    3    0    0  0.68127630960E+02 -0.87982002677E+01 -0.76260472830E+02  0.10263743052E+03  0.00000000000E+00 0.  1.
         22    1    3    3    0    0 -0.53211143100E+02 -0.27222924763E+02 -0.35555473668E+02  0.69546423994E+02  0.00000000000E+00 0.  1.
</event>
<event>
 7    1  0.6219721E-006  0.9888094E+02  0.7818608E-02  0.1295305E+00
          2   -1    0    0  502    0  0.00000000000E+00  0.00000000000E+00  0.97399333172E+03  0.97399333172E+03  0.00000000000E+00 0. -1.
          1   -1    0    0  501    0 -0.00000000000E+00 -0.00000000000E+00 -0.25781864003E+03  0.25781864003E+03  0.00000000000E+00 0. -1.
         25    2    1    2    0    0 -0.18386578922E+02  0.79646922311E+00  0.15970625790E+03  0.20364139954E+03  0.12500012058E+03 0.  0.
          2    1    1    2  501    0  0.64108702606E+01  0.98672898564E+02 -0.22213436859E+03  0.24314834541E+03  0.00000000000E+00 0. -1.
          1    1    1    2  502    0  0.11975708661E+02 -0.99469367787E+02  0.77860280237E+03  0.78502222681E+03  0.00000000000E+00 0. -1.
         22    1    3    3    0    0  0.78695880410E+01 -0.17539835883E+01 -0.20232189438E+02  0.21779540027E+02  0.00000000000E+00 0.  1.
         22    1    3    3    0    0 -0.26256166963E+02  0.25504528114E+01  0.17993844734E+03  0.18186185951E+03  0.00000000000E+00 0.  1.
</event>
<event>
 7    1  0.6219721E-006  0.5885520E+02  0.7818608E-02  0.1481577E+00
          2   -1    0    0  502    0  0.00000000000E+00  0.00000000000E+00  0.15243196340E+04  0.15243196340E+04  0.00000000000E+00 0. -1.
          1   -1    0    0  501    0 -0.00000000000E+00 -0.00000000000E+00 -0.27901003552E+03  0.27901003552E+03  0.00000000000E+00 0. -1.
         25    2    1    2    0    0 -0.81431007490E+02  0.36570850530E+02  0.18846503429E+01  0.15361838974E+03  0.12500648652E+03 0.  0.
          2    1    1    2  501    0  0.49800091104E+02 -0.28327608360E+02 -0.19891466552E+03  0.20700132035E+03  0.00000000000E+00 0. -1.
          1    1    1    2  502    0  0.31630916385E+02 -0.82432421706E+01  0.14423396136E+04  0.14427099594E+04  0.00000000000E+00 0. -1.
         22    1    3    3    0    0 -0.24664705903E+02 -0.33047857047E+02 -0.37310564563E+02  0.55611031286E+02  0.00000000000E+00 0.  1.
         22    1    3    3    0    0 -0.56766301586E+02  0.69618707577E+02  0.39195214906E+02  0.98007358459E+02  0.00000000000E+00 0.  1.
</event>
<event>
 7    1  0.6219721E-006  0.2994875E+02  0.7818608E-02  0.1645783E+00
          2   -1    0    0  502    0  0.00000000000E+00  0.00000000000E+00  0.99860517273E+02  0.99860517273E+02  0.00000000000E+00 0. -1.
          1   -1    0    0  501    0 -0.00000000000E+00 -0.00000000000E+00 -0.32340758790E+03  0.32340758790E+03  0.00000000000E+00 0. -1.
         25    2    1    2    0    0 -0.22022105795E+02 -0.18942884883E+02 -0.43373050752E+02  0.13546281962E+03  0.12500059174E+03 0.  0.
          2    1    1    2  501    0  0.30057396366E+02 -0.23230904350E+01 -0.23056295252E+03  0.23252552312E+03  0.00000000000E+00 0. -1.
          1    1    1    2  502    0 -0.80352905713E+01  0.21265975318E+02  0.50388932653E+02  0.55279762433E+02  0.00000000000E+00 0. -1.
         22    1    3    3    0    0  0.22005617828E+01  0.50514236663E+02 -0.10007277543E+01  0.50572047950E+02  0.00000000000E+00 0. -1.
         22    1    3    3    0    0 -0.24222667578E+02 -0.69457121546E+02 -0.42372322998E+02  0.84890771667E+02  0.00000000000E+00 0. -1.
</event>
<event>
 7    1  0.6219721E-006  0.2437384E+03  0.7818608E-02  0.1245970E+00
          2   -1    0    0  502    0  0.00000000000E+00  0.00000000000E+00  0.92186331887E+03  0.92186331887E+03  0.00000000000E+00 0. -1.
          1   -1    0    0  501    0 -0.00000000000E+00 -0.00000000000E+00 -0.54978685714E+03  0.54978685714E+03  0.00000000000E+00 0. -1.
         25    2    1    2    0    0  0.37150071183E+02 -0.23423399641E+03 -0.16858748890E+02  0.26861619780E+03  0.12499900577E+03 0.  0.
          2    1    1    2  501    0  0.18920973405E+02  0.24648354374E+03 -0.36832945542E+03  0.44359748455E+03  0.00000000000E+00 0. -1.
          1    1    1    2  502    0 -0.56071044588E+02 -0.12249547332E+02  0.75726466605E+03  0.75943649365E+03  0.00000000000E+00 0. -1.
         22    1    3    3    0    0 -0.34532545616E+02 -0.95284171983E+02  0.29469682198E+02  0.10554635146E+03  0.00000000000E+00 0. -1.
         22    1    3    3    0    0  0.71682616799E+02 -0.13894982443E+03 -0.46328431088E+02  0.16306984634E+03  0.00000000000E+00 0. -1.
</event>
<event>
 7    1  0.6219721E-006  0.9580747E+02  0.7818608E-02  0.1344346E+00
          2   -1    0    0  502    0  0.00000000000E+00  0.00000000000E+00  0.16606884689E+04  0.16606884689E+04  0.00000000000E+00 0. -1.
          1   -1    0    0  501    0 -0.00000000000E+00 -0.00000000000E+00 -0.13855326176E+04  0.13855326176E+04  0.00000000000E+00 0. -1.
         25    2    1    2    0    0  0.34440291237E+02 -0.22394813350E+02  0.43632136909E+03  0.45572451071E+03  0.12498332373E+03 0.  0.
          2    1    1    2  501    0 -0.59944581525E+02  0.75011147265E+02 -0.13734501794E+04  0.13768026076E+04  0.00000000000E+00 0. -1.
          1    1    1    2  502    0  0.25504290289E+02 -0.52616333915E+02  0.12122846616E+04  0.12136939681E+04  0.00000000000E+00 0. -1.
         22    1    3    3    0    0  0.76159215719E+02  0.11314884462E+02  0.22999644900E+03  0.24254199493E+03  0.00000000000E+00 0.  1.
         22    1    3    3    0    0 -0.41718924482E+02 -0.33709697812E+02  0.20632492009E+03  0.21318251578E+03  0.00000000000E+00 0.  1.
</event>
<event>
 7    1  0.6219721E-006  0.6945463E+02  0.7818608E-02  0.1390066E+00
          2   -1    0    0  502    0  0.00000000000E+00  0.00000000000E+00  0.34396866042E+03  0.34396866042E+03  0.00000000000E+00 0. -1.
          1   -1    0    0  501    0 -0.00000000000E+00 -0.00000000000E+00 -0.11074533834E+04  0.11074533834E+04  0.00000000000E+00 0. -1.
         25    2    1    2    0    0  0.51357722358E+02  0.12562230461E+02 -0.68654150934E+03  0.69982850910E+03  0.12500109130E+03 0.  0.
          2    1    1    2  501    0 -0.78599950949E+02  0.35389204225E+02 -0.40747483643E+03  0.41649260544E+03  0.00000000000E+00 0. -1.
          1    1    1    2  502    0  0.27242228591E+02 -0.47951434686E+02  0.33053162281E+03  0.33510092925E+03  0.00000000000E+00 0. -1.
         22    1    3    3    0    0 -0.58599873038E+01 -0.14062141556E+02 -0.60097422977E+01  0.16376821390E+02  0.00000000000E+00 0.  1.
         22    1    3    3    0    0  0.57217709662E+02  0.26624372017E+02 -0.68053176704E+03  0.68345168772E+03  0.00000000000E+00 0.  1.
</event>
<event>
 7    1  0.6219721E-006  0.1798300E+03  0.7818608E-02  0.1322875E+00
          2   -1    0    0  502    0  0.00000000000E+00  0.00000000000E+00  0.45734361071E+03  0.45734361071E+03  0.00000000000E+00 0. -1.
          1   -1    0    0  501    0 -0.00000000000E+00 -0.00000000000E+00 -0.58108822880E+03  0.58108822880E+03  0.00000000000E+00 0. -1.
         25    2    1    2    0    0 -0.94991561443E+02  0.14831806151E+03  0.56907952891E+02  0.22334972938E+03  0.12499976958E+03 0.  0.
          2    1    1    2  501    0  0.63658578462E+02 -0.16908320485E+03 -0.48026352095E+03  0.51312239702E+03  0.00000000000E+00 0. -1.
          1    1    1    2  502    0  0.31332982981E+02  0.20765143337E+02  0.29961094997E+03  0.30195971311E+03  0.00000000000E+00 0. -1.
         22    1    3    3    0    0 -0.14386375529E+02  0.85323157488E+02  0.80698628034E+02  0.11831854280E+03  0.00000000000E+00 0. -1.
         22    1    3    3    0    0 -0.80605185915E+02  0.62994904024E+02 -0.23790675142E+02  0.10503118657E+03  0.00000000000E+00 0. -1.
</event>
<event>
 7    1  0.6219721E-006  0.6323462E+02  0.7818608E-02  0.1491442E+00
          2   -1    0    0  502    0  0.00000000000E+00  0.00000000000E+00  0.36060049553E+04  0.36060049553E+04  0.00000000000E+00 0. -1.
          1   -1    0    0  501    0 -0.00000000000E+00 -0.00000000000E+00 -0.32591085447E+03  0.32591085447E+03  0.00000000000E+00 0. -1.
         25    2    1    2    0    0  0.48181929861E+02  0.77717883155E+02 -0.69272375291E+02  0.16966313742E+03  0.12500140196E+03 0.  0.
          2    1    1    2  501    0 -0.16762530900E+02 -0.22917522963E+02 -0.20518485469E+03  0.20714009727E+03  0.00000000000E+00 0. -1.
          1    1    1    2  502    0 -0.31419398961E+02 -0.54800360192E+02  0.35545513308E+04  0.35551125751E+04  0.00000000000E+00 0. -1.
         22    1    3    3    0    0  0.54089766122E+02 -0.16894885520E-02 -0.73902313472E+02  0.91581956402E+02  0.00000000000E+00 0. -1.
         22    1    3    3    0    0 -0.59078362602E+01  0.77719572643E+02  0.46299381811E+01  0.78081181015E+02  0.00000000000E+00 0. -1.
</event>
<event>
 7    1  0.6219721E-006  0.1024385E+03  0.7818608E-02  0.1386947E+00
          2   -1    0    0  502    0  0.00000000000E+00  0.00000000000E+00  0.15795859206E+03  0.15795859206E+03  0.00000000000E+00 0. -1.
          1   -1    0    0  501    0 -0.00000000000E+00 -0.00000000000E+00 -0.42712975813E+03  0.42712975813E+03  0.00000000000E+00 0. -1.
         25    2    1    2    0    0 -0.53227446336E+02  0.76662909966E+02 -0.27782306100E+03  0.31862247346E+03  0.12499705820E+03 0.  0.
          2    1    1    2  501    0  0.29808825621E+02  0.24117207193E+02 -0.10558930326E+03  0.11233568769E+03  0.00000000000E+00 0. -1.
          1    1    1    2  502    0  0.23418620715E+02 -0.10078011716E+03  0.11424119819E+03  0.15413018904E+03  0.00000000000E+00 0. -1.
         22    1    3    3    0    0 -0.92110115138E+02  0.71175464270E+02 -0.21635464979E+03  0.24568181559E+03  0.00000000000E+00 0. -1.
         22    1    3    3    0    0  0.38882668802E+02  0.54874456964E+01 -0.61468411209E+02  0.72940657866E+02  0.00000000000E+00 0. -1.
</event>
<event>
 7    1  0.6219721E-006  0.1049785E+03  0.7818608E-02  0.1350977E+00
          2   -1    0    0  502    0  0.00000000000E+00  0.00000000000E+00  0.10528763785E+04  0.10528763785E+04  0.00000000000E+00 0. -1.
          1   -1    0    0  501    0 -0.00000000000E+00 -0.00000000000E+00 -0.46719081577E+03  0.46719081577E+03  0.00000000000E+00 0. -1.
         25    2    1    2    0    0  0.12338418759E+02  0.15074238714E+03  0.40032266499E+02  0.20025625733E+03  0.12499792950E+03 0.  0.
          2    1    1    2  501    0  0.90059112427E+01 -0.49607479939E+02 -0.38255609483E+03  0.38586419139E+03  0.00000000000E+00 0. -1.
          1    1    1    2  502    0 -0.21344330002E+02 -0.10113490720E+03  0.92820939102E+03  0.93394674552E+03  0.00000000000E+00 0. -1.
         22    1    3    3    0    0  0.45082931485E+02  0.25849313884E+02 -0.22699588817E+02  0.56709162153E+02  0.00000000000E+00 0. -1.
         22    1    3    3    0    0 -0.32744512726E+02  0.12489307326E+03  0.62731855316E+02  0.14354709517E+03  0.00000000000E+00 0. -1.
</event>
<event>
 7    1  0.6219721E-006  0.1739330E+03  0.7818608E-02  0.1377261E+00
          2   -1    0    0  502    0  0.00000000000E+00  0.00000000000E+00  0.10604302136E+04  0.10604302136E+04  0.00000000000E+00 0. -1.
          1   -1    0    0  501    0 -0.00000000000E+00 -0.00000000000E+00 -0.35062216098E+03  0.35062216098E+03  0.00000000000E+00 0. -1.
         25    2    1    2    0    0  0.17642052400E+03 -0.41356513619E+02  0.39102031939E+03  0.44872499775E+03  0.12499068335E+03 0.  0.
          2    1    1    2  501    0 -0.16240145040E+03  0.61366920250E+02 -0.29809291891E+03  0.34496306802E+03  0.00000000000E+00 0. -1.
          1    1    1    2  502    0 -0.14019073594E+02 -0.20010406631E+02  0.61688065216E+03  0.61736430882E+03  0.00000000000E+00 0. -1.
         22    1    3    3    0    0  0.45031079893E+01  0.23691231092E+02  0.11223654775E+03  0.11479806211E+03  0.00000000000E+00 0. -1.
         22    1    3    3    0    0  0.17191741601E+03 -0.65047744711E+02  0.27878377163E+03  0.33392693564E+03  0.00000000000E+00 0. -1.
</event>
<event>
 7    1  0.6219721E-006  0.1536638E+03  0.7818608E-02  0.1220325E+00
          2   -1    0    0  502    0  0.00000000000E+00  0.00000000000E+00  0.22392663019E+04  0.22392663019E+04  0.00000000000E+00 0. -1.
          1   -1    0    0  501    0 -0.00000000000E+00 -0.00000000000E+00 -0.90062998289E+02  0.90062998289E+02  0.00000000000E+00 0. -1.
         25    2    1    2    0    0  0.78440564605E+02  0.18773624425E+03  0.79504565140E+03  0.83013303153E+03  0.12500177058E+03 0.  0.
          2    1    1    2  501    0 -0.12889011903E+03 -0.80542371159E+02  0.12698231981E+02  0.15251551210E+03  0.00000000000E+00 0. -1.
          1    1    1    2  502    0  0.50449554421E+02 -0.10719387309E+03  0.13414594202E+04  0.13466807565E+04  0.00000000000E+00 0. -1.
         22    1    3    3    0    0  0.10365290527E+03  0.18012200877E+03  0.64082970052E+03  0.67368432361E+03  0.00000000000E+00 0.  1.
         22    1    3    3    0    0 -0.25212340661E+02  0.76142354791E+01  0.15421595088E+03  0.15644870792E+03  0.00000000000E+00 0.  1.
</event>
<event>
 7    1  0.6219721E-006  0.9051479E+02  0.7818608E-02  0.1325362E+00
          2   -1    0    0  502    0  0.00000000000E+00  0.00000000000E+00  0.23466747761E+04  0.23466747761E+04  0.00000000000E+00 0. -1.
          1   -1    0    0  501    0 -0.00000000000E+00 -0.00000000000E+00 -0.13656583488E+03  0.13656583488E+03  0.00000000000E+00 0. -1.
         25    2    1    2    0    0  0.62851761947E+01 -0.49178608330E+01  0.81405210608E+03  0.82363202012E+03  0.12500073742E+03 0.  0.
          2    1    1    2  501    0 -0.20155267979E+02 -0.88242236825E+02 -0.11459094789E+03  0.14602743758E+03  0.00000000000E+00 0. -1.
          1    1    1    2  502    0  0.13870091784E+02  0.93160097658E+02  0.15106477830E+04  0.15135811532E+04  0.00000000000E+00 0. -1.
         22    1    3    3    0    0  0.12437142694E+02  0.36611865725E+02  0.71506755575E+03  0.71611222620E+03  0.00000000000E+00 0.  1.
         22    1    3    3    0    0 -0.61519664994E+01 -0.41529726558E+02  0.98984550331E+02  0.10751979392E+03  0.00000000000E+00 0.  1.
</event>
<event>
 7    1  0.6219721E-006  0.1259204E+03  0.7818608E-02  0.1330374E+00
          2   -1    0    0  502    0  0.00000000000E+00  0.00000000000E+00  0.65583683933E+03  0.65583683933E+03  0.00000000000E+00 0. -1.
          1   -1    0    0  501    0 -0.00000000000E+00 -0.00000000000E+00 -0.96305363445E+03  0.96305363445E+03  0.00000000000E+00 0. -1.
         25    2    1    2    0    0  0.12301432586E+03 -0.65766624898E+02 -0.12378573835E+03  0.22451114493E+03  0.12499828743E+03 0.  0.
          2    1    1    2  501    0 -0.12443791494E+03  0.15549203064E+02 -0.78286413352E+03  0.79284476661E+03  0.00000000000E+00 0. -1.
          1    1    1    2  502    0  0.14235890756E+01  0.50217421834E+02  0.59943307676E+03  0.60153456224E+03  0.00000000000E+00 0. -1.
         22    1    3    3    0    0  0.33457474904E+02 -0.64962986448E+02 -0.16929663814E+01  0.73092122492E+02  0.00000000000E+00 0.  1.
         22    1    3    3    0    0  0.89556850957E+02 -0.80363845033E+00 -0.12209277197E+03  0.15141902244E+03  0.00000000000E+00 0.  1.
</event>
<event>
 7    1  0.6219721E-006  0.4886199E+02  0.7818608E-02  0.1571550E+00
          2   -1    0    0  502    0  0.00000000000E+00  0.00000000000E+00  0.28197132692E+02  0.28197132692E+02  0.00000000000E+00 0. -1.
          1   -1    0    0  501    0 -0.00000000000E+00 -0.00000000000E+00 -0.11584499967E+04  0.11584499967E+04  0.00000000000E+00 0. -1.
         25    2    1    2    0    0  0.35440887840E+02  0.18436005764E+02 -0.28548023590E+03  0.31419642012E+03  0.12499792994E+03 0.  0.
          2    1    1    2  501    0 -0.39039983322E+01  0.21322298693E+02 -0.81145287920E+03  0.81174235863E+03  0.00000000000E+00 0. -1.
          1    1    1    2  502    0 -0.31536889508E+02 -0.39758304457E+02 -0.33319748956E+02  0.60708350690E+02  0.00000000000E+00 0. -1.
         22    1    3    3    0    0  0.24985014462E+02 -0.29391536082E+01  0.24575700595E+01  0.25277049317E+02  0.00000000000E+00 0. -1.
         22    1    3    3    0    0  0.10455873378E+02  0.21375159372E+02 -0.28793780596E+03  0.28891937080E+03  0.00000000000E+00 0. -1.
</event>
<event>
 7    1  0.6219721E-006  0.1882719E+03  0.7818608E-02  0.1236351E+00
          2   -1    0    0  502    0  0.00000000000E+00  0.00000000000E+00  0.29778398478E+04  0.29778398478E+04  0.00000000000E+00 0. -1.
          1   -1    0    0  501    0 -0.00000000000E+00 -0.00000000000E+00 -0.92959743108E+03  0.92959743108E+03  0.00000000000E+00 0. -1.
         25    2    1    2    0    0  0.74534122140E+02  0.87005740009E+02  0.29992569051E+02  0.17219134458E+03  0.12499988317E+03 0.  0.
          2    1    1    2  501    0 -0.12855728236E+03 -0.14857605298E+03 -0.84666392151E+03  0.86916144321E+03  0.00000000000E+00 0. -1.
          1    1    1    2  502    0  0.54023160217E+02  0.61570312967E+02  0.28649137691E+04  0.28660844911E+04  0.00000000000E+00 0. -1.
         22    1    3    3    0    0  0.84861465156E+02  0.30445306119E+01  0.12952474615E+02  0.85898219037E+02  0.00000000000E+00 0.  1.
         22    1    3    3    0    0 -0.10327343016E+02  0.83961209397E+02  0.17040094436E+02  0.86293125541E+02  0.00000000000E+00 0.  1.
</event>
<event>
 7    1  0.6219721E-006  0.1052768E+03  0.7818608E-02  0.1373897E+00
          2   -1    0    0  502    0  0.00000000000E+00  0.00000000000E+00  0.78350012132E+03  0.78350012132E+03  0.00000000000E+00 0. -1.
          1   -1    0    0  501    0 -0.00000000000E+00 -0.00000000000E+00 -0.14162717833E+04  0.14162717833E+04  0.00000000000E+00 0. -1.
         25    2    1    2    0    0 -0.27929168066E+02 -0.59628576092E+02 -0.99638632806E+02  0.17288488806E+03  0.12500288739E+03 0.  0.
          2    1    1    2  501    0 -0.27132638657E+02 -0.31397106445E+02 -0.12758827282E+04  0.12765573604E+04  0.00000000000E+00 0. -1.
          1    1    1    2  502    0  0.55061806722E+02  0.91025682537E+02  0.74274969903E+03  0.75032965612E+03  0.00000000000E+00 0. -1.
         22    1    3    3    0    0  0.14239608432E+02  0.34868682236E+02 -0.23216114182E+02  0.44244540984E+02  0.00000000000E+00 0. -1.
         22    1    3    3    0    0 -0.42168776497E+02 -0.94497258328E+02 -0.76422518624E+02  0.12864034707E+03  0.00000000000E+00 0. -1.
</event>
<event>
 7    1  0.6219721E-006  0.1197188E+03  0.7818608E-02  0.1293587E+00
          2   -1    0    0  502    0  0.00000000000E+00  0.00000000000E+00  0.10980437394E+03  0.10980437394E+03  0.00000000000E+00 0. -1.
          1   -1    0    0  501    0 -0.00000000000E+00 -0.00000000000E+00 -0.10432322745E+04  0.10432322745E+04  0.00000000000E+00 0. -1.
         25    2    1    2    0    0 -0.99029820808E+02 -0.58095099843E+02 -0.26804424107E+03  0.31726067660E+03  0.12499870284E+03 0.  0.
          2    1    1    2  501    0 -0.23901913147E+02  0.69725326664E+02 -0.70287497155E+03  0.70672919019E+03  0.00000000000E+00 0. -1.
          1    1    1    2  502    0  0.12293173395E+03 -0.11630226822E+02  0.37491312008E+02  0.12904678169E+03  0.00000000000E+00 0. -1.
         22    1    3    3    0    0 -0.30147898606E+02  0.36852560625E+02 -0.46361642568E+02  0.66456067568E+02  0.00000000000E+00 0. -1.
         22    1    3    3    0    0 -0.68881922201E+02 -0.94947660468E+02 -0.22168259850E+03  0.25080460903E+03  0.00000000000E+00 0. -1.
</event>
<event>
 7    1  0.6219721E-006  0.4731454E+02  0.7818608E-02  0.1481804E+00
          2   -1    0    0  502    0  0.00000000000E+00  0.00000000000E+00  0.10157467239E+04  0.10157467239E+04  0.00000000000E+00 0. -1.
          1   -1    0    0  501    0 -0.00000000000E+00 -0.00000000000E+00 -0.43032249896E+02  0.43032249896E+02  0.00000000000E+00 0. -1.
         25    2    1    2    0    0 -0.71948168996E+01 -0.19106144673E+02  0.25000383702E+03  0.28025642796E+03  0.12499974693E+03 0.  0.
          2    1    1    2  501    0  0.34001962973E+02 -0.22177689330E+02 -0.11869510243E+02  0.42295019369E+02  0.00000000000E+00 0. -1.
          1    1    1    2  502    0 -0.26807146073E+02  0.41283834003E+02  0.73458014725E+03  0.73622752650E+03  0.00000000000E+00 0. -1.
         22    1    3    3    0    0 -0.19019277445E+02 -0.44989898737E+02  0.24683771491E+03  0.25162408749E+03  0.00000000000E+00 0. -1.
         22    1    3    3    0    0  0.11824460545E+02  0.25883754064E+02  0.31661221128E+01  0.28632340471E+02  0.00000000000E+00 0. -1.
</event>
<event>
 7    1  0.6219721E-006  0.1875999E+03  0.7818608E-02  0.1283479E+00
          2   -1    0    0  502    0  0.00000000000E+00  0.00000000000E+00  0.19079291141E+04  0.19079291141E+04  0.00000000000E+00 0. -1.
          1   -1    0    0  501    0 -0.00000000000E+00 -0.00000000000E+00 -0.54831259328E+03  0.54831259328E+03  0.00000000000E+00 0. -1.
         25    2    1    2    0    0  0.60496214257E+02 -0.19157804073E+03  0.60413956869E+03  0.64882306646E+03  0.12499926193E+03 0.  0.
          2    1    1    2  501    0 -0.51282895778E+02  0.67064013760E+01 -0.51799200555E+03  0.52056760275E+03  0.00000000000E+00 0. -1.
          1    1    1    2  502    0 -0.92133184796E+01  0.18487163935E+03  0.12734689577E+04  0.12868510382E+04  0.00000000000E+00 0. -1.
         22    1    3    3    0    0  0.26388552913E+02 -0.11646512108E+02  0.23487834334E+03  0.23664283876E+03  0.00000000000E+00 0. -1.
         22    1    3    3    0    0  0.34107661344E+02 -0.17993152862E+03  0.36926122536E+03  0.41218022770E+03  0.00000000000E+00 0. -1.
</event>
<event>
 7    1  0.6219721E-006  0.7417637E+02  0.7818608E-02  0.1410853E+00
          2   -1    0    0  502    0  0.00000000000E+00  0.00000000000E+00  0.21362442740E+04  0.21362442740E+04  0.00000000000E+00 0. -1.
          1   -1    0    0  501    0 -0.00000000000E+00 -0.00000000000E+00 -0.10875965771E+04  0.10875965771E+04  0.00000000000E+00 0. -1.
         25    2    1    2    0    0 -0.20262298573E+02  0.44299776241E+02  0.25676457863E+03  0.28969905391E+03  0.12499784831E+03 0.  0.
          2    1    1    2  501    0 -0.12606510657E+02 -0.73259824186E+02 -0.10695815889E+04  0.10721616955E+04  0.00000000000E+00 0. -1.
          1    1    1    2  502    0  0.32868809230E+02  0.28960047945E+02  0.18614647072E+04  0.18619801017E+04  0.00000000000E+00 0. -1.
         22    1    3    3    0    0 -0.71109772230E+01  0.27213892516E+02  0.26509610446E+03  0.26658414533E+03  0.00000000000E+00 0.  1.
         22    1    3    3    0    0 -0.13151321350E+02  0.17085883725E+02 -0.83315258346E+01  0.23114908579E+02  0.00000000000E+00 0.  1.
</event>
<event>
 7    1  0.6219721E-006  0.5972025E+02  0.7818608E-02  0.1490850E+00
          2   -1    0    0  502    0  0.00000000000E+00  0.00000000000E+00  0.83753359093E+02  0.83753359093E+02  0.00000000000E+00 0. -1.
          1   -1    0    0  501    0 -0.00000000000E+00 -0.00000000000E+00 -0.20597666323E+04  0.20597666323E+04  0.00000000000E+00 0. -1.
         25    2    1    2    0    0  0.82972506382E+02  0.22946735144E+02 -0.31935125235E+03  0.35358327039E+03  0.12499966902E+03 0.  0.
          2    1    1    2  501    0 -0.30074292742E+02  0.26238855817E+01 -0.17101892298E+04  0.17104556556E+04  0.00000000000E+00 0. -1.
          1    1    1    2  502    0 -0.52898213640E+02 -0.25570620726E+02  0.53527209011E+02  0.79481065388E+02  0.00000000000E+00 0. -1.
         22    1    3    3    0    0  0.74315478581E+02 -0.42594356175E+02 -0.17835080180E+03  0.19785367835E+03  0.00000000000E+00 0.  1.
         22    1    3    3    0    0  0.86570278004E+01  0.65541091319E+02 -0.14100045055E+03  0.15572959204E+03  0.00000000000E+00 0.  1.
</event>
<event>
 7    1  0.6219721E-006  0.1074117E+03  0.7818608E-02  0.1293674E+00
          2   -1    0    0  502    0  0.00000000000E+00  0.00000000000E+00  0.83341914101E+02  0.83341914101E+02  0.00000000000E+00 0. -1.
          1   -1    0    0  501    0 -0.00000000000E+00 -0.00000000000E+00 -0.80378028194E+03  0.80378028194E+03  0.00000000000E+00 0. -1.
         25    2    1    2    0    0 -0.15702976738E+03 -0.28902593342E+02 -0.24988241406E+03  0.32181200884E+03  0.12501216112E+03 0.  0.
          2    1    1    2  501    0  0.97706535383E+02 -0.27834316586E+02 -0.47240132390E+03  0.48320215961E+03  0.00000000000E+00 0. -1.
          1    1    1    2  502    0  0.59323232002E+02  0.56736909928E+02  0.18453701222E+01  0.82108027587E+02  0.00000000000E+00 0. -1.
         22    1    3    3    0    0 -0.52770923185E+02  0.24155631858E+01 -0.19074543201E+03  0.19792530185E+03  0.00000000000E+00 0. -1.
         22    1    3    3    0    0 -0.10425884420E+03 -0.31318156528E+02 -0.59136982050E+02  0.12388670699E+03  0.00000000000E+00 0. -1.
</event>
<event>
 7    1  0.6219721E-006  0.1202389E+03  0.7818608E-02  0.1330266E+00
          2   -1    0    0  502    0  0.00000000000E+00  0.00000000000E+00  0.60170469445E+03  0.60170469445E+03  0.00000000000E+00 0. -1.
          1   -1    0    0  501    0 -0.00000000000E+00 -0.00000000000E+00 -0.92274714414E+02  0.92274714414E+02  0.00000000000E+00 0. -1.
         25    2    1    2    0    0  0.11351677866E+03 -0.11473484270E+03  0.10364210160E+03  0.22894547081E+03  0.12499680081E+03 0.  0.
          2    1    1    2  501    0 -0.18870355067E+02  0.49164279238E+02  0.10999765378E+02  0.53797876275E+02  0.00000000000E+00 0. -1.
          1    1    1    2  502    0 -0.94646423598E+02  0.65570563466E+02  0.39478811306E+03  0.41123606178E+03  0.00000000000E+00 0. -1.
         22    1    3    3    0    0  0.49456779181E+02 -0.11574602077E+01 -0.15983628590E+02  0.51988355466E+02  0.00000000000E+00 0.  1.
         22    1    3    3    0    0  0.64059999484E+02 -0.11357738250E+03  0.11962573019E+03  0.17695711535E+03  0.00000000000E+00 0.  1.
</event>
<event>
 7    1  0.6395587E-006  0.3091377E+02  0.7818608E-02  0.1589511E+00
          2   -1    0    0  502    0  0.00000000000E+00  0.00000000000E+00  0.15696166926E+04  0.15696166926E+04  0.00000000000E+00 0. -1.
          1   -1    0    0  501    0 -0.00000000000E+00 -0.00000000000E+00 -0.71947954333E+03  0.71947954333E+03  0.00000000000E+00 0. -1.
         25    2    1    2    0    0  0.23718650911E+02  0.23697080239E+01 -0.20091615619E+03  0.23782413997E+03  0.12499931927E+03 0.  0.
          2    1    1    2  501    0 -0.15114152606E+02  0.27322441742E+02 -0.49946780319E+03  0.50044284375E+03  0.00000000000E+00 0. -1.
          1    1    1    2  502    0 -0.86044983041E+01 -0.29692149766E+02  0.15505211086E+04  0.15508292522E+04  0.00000000000E+00 0. -1.
         22    1    3    3    0    0 -0.44934805805E+02  0.10597674273E+02 -0.34559067815E+02  0.57669546912E+02  0.00000000000E+00 0.  1.
         22    1    3    3    0    0  0.68653456716E+02 -0.82279662493E+01 -0.16635708837E+03  0.18015459306E+03  0.00000000000E+00 0.  1.
</event>
<event>
 7    1  0.6219721E-006  0.2597242E+02  0.7818608E-02  0.1680939E+00
          2   -1    0    0  502    0  0.00000000000E+00  0.00000000000E+00  0.41443614393E+03  0.41443614393E+03  0.00000000000E+00 0. -1.
          1   -1    0    0  501    0 -0.00000000000E+00 -0.00000000000E+00 -0.15763486165E+03  0.15763486165E+03  0.00000000000E+00 0. -1.
         25    2    1    2    0    0 -0.73384453495E+00 -0.46351950474E+02 -0.34610145819E+02  0.13775470386E+03  0.12501781633E+03 0.  0.
          2    1    1    2  501    0 -0.46636246926E+01  0.21053807539E+02 -0.69351728753E+02  0.72626954281E+02  0.00000000000E+00 0. -1.
          1    1    1    2  502    0  0.53974692276E+01  0.25298142935E+02  0.36076315685E+03  0.36168934744E+03  0.00000000000E+00 0. -1.
         22    1    3    3    0    0 -0.49270943359E+02 -0.63235316098E+02 -0.31948290386E+02  0.86296143135E+02  0.00000000000E+00 0. -1.
         22    1    3    3    0    0  0.48537098824E+02  0.16883365624E+02 -0.26618554329E+01  0.51458560720E+02  0.00000000000E+00 0. -1.
</event>
<event>
 7    1  0.6219721E-006  0.1304447E+03  0.7818608E-02  0.1302745E+00
          2   -1    0    0  502    0  0.00000000000E+00  0.00000000000E+00  0.14320957671E+04  0.14320957671E+04  0.00000000000E+00 0. -1.
          1   -1    0    0  501    0 -0.00000000000E+00 -0.00000000000E+00 -0.26254057704E+03  0.26254057704E+03  0.00000000000E+00 0. -1.
         25    2    1    2    0    0  0.47555287106E+02 -0.11023900556E+03 -0.15907816844E+02  0.17404759819E+03  0.12500145646E+03 0.  0.
          2    1    1    2  501    0  0.55202076645E+02  0.28567986913E+02 -0.15848928926E+03  0.17024175149E+03  0.00000000000E+00 0. -1.
          1    1    1    2  502    0 -0.10275736375E+03  0.81671018650E+02  0.13439522961E+04  0.13503469944E+04  0.00000000000E+00 0. -1.
         22    1    3    3    0    0  0.19844632365E+02 -0.62628618018E+02 -0.70587462352E+02  0.96429990510E+02  0.00000000000E+00 0.  1.
         22    1    3    3    0    0  0.27710654741E+02 -0.47610387545E+02  0.54679645508E+02  0.77617607675E+02  0.00000000000E+00 0.  1.
</event>
<event>
 7    1  0.6219721E-006  0.6219711E+02  0.7818608E-02  0.1519137E+00
          2   -1    0    0  502    0  0.00000000000E+00  0.00000000000E+00  0.30889049105E+04  0.30889049105E+04  0.00000000000E+00 0. -1.
          1   -1    0    0  501    0 -0.00000000000E+00 -0.00000000000E+00 -0.57208953470E+02  0.57208953470E+02  0.00000000000E+00 0. -1.
         25    2    1    2    0    0 -0.48592117182E+02 -0.58486390239E+02  0.11566343791E+03  0.18651317953E+03  0.12500913396E+03 0.  0.
          2    1    1    2  501    0 -0.28630382654E+01  0.23725252151E+02 -0.14800822921E+02  0.28109587989E+02  0.00000000000E+00 0. -1.
          1    1    1    2  502    0  0.51455155447E+02  0.34761138088E+02  0.29308333420E+04  0.29314910964E+04  0.00000000000E+00 0. -1.
         22    1    3    3    0    0  0.21571223590E+02  0.16808274630E+02 -0.51271583305E+01  0.27823075598E+02  0.00000000000E+00 0.  1.
         22    1    3    3    0    0 -0.70163340772E+02 -0.75294664869E+02  0.12079059624E+03  0.15869010393E+03  0.00000000000E+00 0.  1.
</event>
<event>
 7    1  0.6219721E-006  0.7280474E+02  0.7818608E-02  0.1425622E+00
          2   -1    0    0  502    0  0.00000000000E+00  0.00000000000E+00  0.28624047015E+03  0.28624047015E+03  0.00000000000E+00 0. -1.
          1   -1    0    0  501    0 -0.00000000000E+00 -0.00000000000E+00 -0.12682901518E+04  0.12682901518E+04  0.00000000000E+00 0. -1.
         25    2    1    2    0    0 -0.36854165983E+02 -0.49210480665E+02 -0.12732895564E+03  0.18872195846E+03  0.12499365465E+03 0.  0.
          2    1    1    2  501    0  0.69002847579E+02  0.25699382148E+02 -0.11074827761E+04  0.11099279033E+04  0.00000000000E+00 0. -1.
          1    1    1    2  502    0 -0.32148681596E+02  0.23511098517E+02  0.25276205007E+03  0.25588076019E+03  0.00000000000E+00 0. -1.
         22    1    3    3    0    0  0.41112713341E+02  0.81946149932E+01 -0.46399866701E+02  0.62532827723E+02  0.00000000000E+00 0. -1.
         22    1    3    3    0    0 -0.77966879324E+02 -0.57405095658E+02 -0.80929088939E+02  0.12618913073E+03  0.00000000000E+00 0. -1.
</event>
<event>
 7    1  0.6219721E-006  0.1618687E+03  0.7818608E-02  0.1290530E+00
          2   -1    0    0  502    0  0.00000000000E+00  0.00000000000E+00  0.13830506558E+04  0.13830506558E+04  0.00000000000E+00 0. -1.
          1   -1    0    0  501    0 -0.00000000000E+00 -0.00000000000E+00 -0.29147271810E+04  0.29147271810E+04  0.00000000000E+00 0. -1.
         25    2    1    2    0    0  0.21216333943E+03 -0.43477575069E+02 -0.45181190203E+02  0.25410348471E+03  0.12499463533E+03 0.  0.
          2    1    1    2  501    0 -0.15808583414E+03  0.28575969066E+02 -0.27621346257E+04  0.27668023795E+04  0.00000000000E+00 0. -1.
          1    1    1    2  502    0 -0.54077505296E+02  0.14901606003E+02  0.12756392907E+04  0.12768719726E+04  0.00000000000E+00 0. -1.
         22    1    3    3    0    0  0.14307301346E+03  0.26343733298E+02 -0.54688219164E+02  0.15541776212E+03  0.00000000000E+00 0.  1.
         22    1    3    3    0    0  0.69090325967E+02 -0.69821308367E+02  0.95070289613E+01  0.98685722594E+02  0.00000000000E+00 0.  1.
</event>
<event>
 7    1  0.6219721E-006  0.1010606E+03  0.7818608E-02  0.1376739E+00
          2   -1    0    0  502    0  0.00000000000E+00  0.00000000000E+00  0.73991778880E+03  0.73991778880E+03  0.00000000000E+00 0. -1.
          1   -1    0    0  501    0 -0.00000000000E+00 -0.00000000000E+00 -0.14778055155E+04  0.14778055155E+04  0.00000000000E+00 0. -1.
         25    2    1    2    0    0 -0.70501360309E+02 -0.76035344515E+02  0.34920762899E+01  0.16244487884E+03  0.12499731455E+03 0.  0.
          2    1    1    2  501    0 -0.22488192267E+02  0.35744976336E+02 -0.13940991108E+04  0.13947385967E+04  0.00000000000E+00 0. -1.
          1    1    1    2  502    0  0.92989552575E+02  0.40290368178E+02  0.65271930783E+03  0.66053982883E+03  0.00000000000E+00 0. -1.
         22    1    3    3    0    0 -0.43718042340E+02 -0.40803585489E+02 -0.60221076941E+02  0.84869181230E+02  0.00000000000E+00 0.  1.
         22    1    3    3    0    0 -0.26783317969E+02 -0.35231759026E+02  0.63713153231E+02  0.77575697613E+02  0.00000000000E+00 0.  1.
</event>
<event>
 7    1  0.6219721E-006  0.1201991E+03  0.7818608E-02  0.1269888E+00
          2   -1    0    0  502    0  0.00000000000E+00  0.00000000000E+00  0.18613355667E+04  0.18613355667E+04  0.00000000000E+00 0. -1.
          1   -1    0    0  501    0 -0.00000000000E+00 -0.00000000000E+00 -0.41891838321E+03  0.41891838321E+03  0.00000000000E+00 0. -1.
         25    2    1    2    0    0  0.18403613708E+02  0.25905769238E+02  0.22465391175E+03  0.25904586317E+03  0.12500230912E+03 0.  0.
          2    1    1    2  501    0 -0.69077021919E+02 -0.10260640665E+03 -0.39085759544E+03  0.40996264410E+03  0.00000000000E+00 0. -1.
          1    1    1    2  502    0  0.50673408211E+02  0.76700637413E+02  0.16086208672E+04  0.16112454426E+04  0.00000000000E+00 0. -1.
         22    1    3    3    0    0  0.85472887660E+01  0.72364106488E+02  0.17859205932E+03  0.19288531231E+03  0.00000000000E+00 0.  1.
         22    1    3    3    0    0  0.98563249425E+01 -0.46458337250E+02  0.46061852431E+02  0.66160550865E+02  0.00000000000E+00 0.  1.
</event>
<event>
 7    1  0.6219721E-006  0.2876098E+02  0.7818608E-02  0.1618727E+00
          2   -1    0    0  502    0  0.00000000000E+00  0.00000000000E+00  0.13158207380E+03  0.13158207380E+03  0.00000000000E+00 0. -1.
          1   -1    0    0  501    0 -0.00000000000E+00 -0.00000000000E+00 -0.55098160384E+03  0.55098160384E+03  0.00000000000E+00 0. -1.
         25    2    1    2    0    0 -0.43806723627E+02  0.93325079596E+01  0.67122444946E+01  0.13295594482E+03  0.12500441711E+03 0.  0.
          2    1    1    2  501    0  0.17983575545E+02 -0.21035828074E+02 -0.48418928556E+03  0.48497956586E+03  0.00000000000E+00 0. -1.
          1    1    1    2  502    0  0.25823148081E+02  0.11703320114E+02  0.58077511019E+02  0.64628166961E+02  0.00000000000E+00 0. -1.
         22    1    3    3    0    0 -0.63590283366E+02 -0.32383853040E+02 -0.26455663723E+02  0.76107425520E+02  0.00000000000E+00 0.  1.
         22    1    3    3    0    0  0.19783559740E+02  0.41716361000E+02  0.33167908217E+02  0.56848519300E+02  0.00000000000E+00 0.  1.
</event>
<event>
 7    1  0.6219721E-006  0.1710225E+03  0.7818608E-02  0.1334710E+00
          2   -1    0    0  502    0  0.00000000000E+00  0.00000000000E+00  0.11542433182E+04  0.11542433182E+04  0.00000000000E+00 0. -1.
          1   -1    0    0  501    0 -0.00000000000E+00 -0.00000000000E+00 -0.14553558740E+04  0.14553558740E+04  0.00000000000E+00 0. -1.
         25    2    1    2    0    0  0.15733164457E+03 -0.83606199943E+02 -0.10803010067E+03  0.24297509381E+03  0.12499260183E+03 0.  0.
          2    1    1    2  501    0 -0.25383972901E+02 -0.24974498060E+02 -0.12728855940E+04  0.12733836056E+04  0.00000000000E+00 0. -1.
          1    1    1    2  502    0 -0.13194767167E+03  0.10858069800E+03  0.10798031390E+04  0.10932404927E+04  0.00000000000E+00 0. -1.
         22    1    3    3    0    0 -0.14441910819E+01 -0.22689068575E+02  0.19863585308E+02  0.30190090129E+02  0.00000000000E+00 0.  1.
         22    1    3    3    0    0  0.15877583565E+03 -0.60917131367E+02 -0.12789368597E+03  0.21278500368E+03  0.00000000000E+00 0.  1.
</event>
<event>
 7    1  0.6219721E-006  0.2626899E+03  0.7818608E-02  0.1232836E+00
          2   -1    0    0  502    0  0.00000000000E+00  0.00000000000E+00  0.33544979673E+04  0.33544979673E+04  0.00000000000E+00 0. -1.
          1   -1    0    0  501    0 -0.00000000000E+00 -0.00000000000E+00 -0.52505590959E+02  0.52505590959E+02  0.00000000000E+00 0. -1.
         25    2    1    2    0    0 -0.23583399209E+03  0.14519818738E+03  0.15986607511E+04  0.16272805677E+04  0.12500265388E+03 0.  0.
          2    1    1    2  501    0  0.24578617044E+03 -0.85158225942E+02  0.41387212365E+03  0.48882808814E+03  0.00000000000E+00 0. -1.
          1    1    1    2  502    0 -0.99521783437E+01 -0.60039961443E+02  0.12894595016E+04  0.12908949024E+04  0.00000000000E+00 0. -1.
         22    1    3    3    0    0 -0.48054042465E+01 -0.19516371124E+02  0.10140787285E+03  0.10338054618E+03  0.00000000000E+00 0. -1.
         22    1    3    3    0    0 -0.23102858785E+03  0.16471455851E+03  0.14972528782E+04  0.15239000215E+04  0.00000000000E+00 0. -1.
</event>
<event>
 7    1  0.6219721E-006  0.1045625E+03  0.7818608E-02  0.1350879E+00
          2   -1    0    0  502    0  0.00000000000E+00  0.00000000000E+00  0.26756242704E+04  0.26756242704E+04  0.00000000000E+00 0. -1.
          1   -1    0    0  501    0 -0.00000000000E+00 -0.00000000000E+00 -0.53798533454E+03  0.53798533454E+03  0.00000000000E+00 0. -1.
         25    2    1    2    0    0  0.71446862566E+02 -0.29744764373E+02  0.10573469286E+04  0.10675166970E+04  0.12497986204E+03 0.  0.
          2    1    1    2  501    0 -0.10436908478E+03 -0.87609744758E+01 -0.52735136873E+03  0.53765149179E+03  0.00000000000E+00 0. -1.
          1    1    1    2  502    0  0.32922222214E+02  0.38505738849E+02  0.16076433760E+04  0.16084414161E+04  0.00000000000E+00 0. -1.
         22    1    3    3    0    0  0.90215549983E+01  0.31139017604E+02  0.65625945096E+03  0.65705973385E+03  0.00000000000E+00 0. -1.
         22    1    3    3    0    0  0.62425307568E+02 -0.60883781977E+02  0.40108747760E+03  0.41045696318E+03  0.00000000000E+00 0. -1.
</event>
<event>
 7    1  0.6219721E-006  0.2221737E+03  0.7818608E-02  0.1232016E+00
          2   -1    0    0  502    0  0.00000000000E+00  0.00000000000E+00  0.15861451676E+04  0.15861451676E+04  0.00000000000E+00 0. -1.
          1   -1    0    0  501    0 -0.00000000000E+00 -0.00000000000E+00 -0.16340067852E+03  0.16340067852E+03  0.00000000000E+00 0. -1.
         25    2    1    2    0    0 -0.13529745614E+03  0.22736142241E+03  0.58425613053E+03  0.65343625395E+03  0.12500037552E+03 0.  0.
          2    1    1    2  501    0  0.15010602256E+03 -0.15632173404E+03 -0.35071249354E+02  0.21954110110E+03  0.00000000000E+00 0. -1.
          1    1    1    2  502    0 -0.14808566414E+02 -0.71039688370E+02  0.87355960793E+03  0.87656849109E+03  0.00000000000E+00 0. -1.
         22    1    3    3    0    0  0.21782679058E+00 -0.14888596713E+02  0.34575657518E+02  0.37645635250E+02  0.00000000000E+00 0.  1.
         22    1    3    3    0    0 -0.13551528293E+03  0.24225001912E+03  0.54968047301E+03  0.61579061870E+03  0.00000000000E+00 0.  1.
</event>
<event>
 7    1  0.6219721E-006  0.8146745E+02  0.7818608E-02  0.1354843E+00
          2   -1    0    0  502    0  0.00000000000E+00  0.00000000000E+00  0.10883342412E+04  0.10883342412E+04  0.00000000000E+00 0. -1.
          1   -1    0    0  501    0 -0.00000000000E+00 -0.00000000000E+00 -0.87299315322E+02  0.87299315322E+02  0.00000000000E+00 0. -1.
         25    2    1    2    0    0  0.73429560315E+02  0.11135646595E+03  0.44024798211E+03  0.47669416317E+03  0.12500750625E+03 0.  0.
          2    1    1    2  501    0 -0.48147615329E+02 -0.40428585533E+02 -0.51972419023E+02  0.81570801940E+02  0.00000000000E+00 0. -1.
          1    1    1    2  502    0 -0.25281944986E+02 -0.70927880417E+02  0.61275936282E+03  0.61736859144E+03  0.00000000000E+00 0. -1.
         22    1    3    3    0    0  0.31265174031E+02 -0.23637556240E+02  0.12897964646E+03  0.13480353992E+03  0.00000000000E+00 0. -1.
         22    1    3    3    0    0  0.42164386284E+02  0.13499402219E+03  0.31126833564E+03  0.34189062326E+03  0.00000000000E+00 0. -1.
</event>
<event>
 7    1  0.6219721E-006  0.1723372E+03  0.7818608E-02  0.1247801E+00
          2   -1    0    0  502    0  0.00000000000E+00  0.00000000000E+00  0.16554115495E+04  0.16554115495E+04  0.00000000000E+00 0. -1.
          1   -1    0    0  501    0 -0.00000000000E+00 -0.00000000000E+00 -0.29240109966E+03  0.29240109966E+03  0.00000000000E+00 0. -1.
         25    2    1    2    0    0 -0.95015758233E+02 -0.14751246356E+03  0.22922736363E+03  0.31457843250E+03  0.12500593881E+03 0.  0.
          2    1    1    2  501    0  0.14924809303E+03  0.89118221320E+02 -0.21815908759E+03  0.27894522427E+03  0.00000000000E+00 0. -1.
          1    1    1    2  502    0 -0.54232334796E+02  0.58394242238E+02  0.13519421738E+04  0.13542889924E+04  0.00000000000E+00 0. -1.
         22    1    3    3    0    0 -0.78562423104E+02 -0.16953273209E+03  0.20964596311E+03  0.28082882940E+03  0.00000000000E+00 0. -1.
         22    1    3    3    0    0 -0.16453335129E+02  0.22020268530E+02  0.19581400521E+02  0.33749603100E+02  0.00000000000E+00 0. -1.
</event>
<event>
 7    1  0.6219721E-006  0.1112688E+03  0.7818608E-02  0.1388347E+00
          2   -1    0    0  502    0  0.00000000000E+00  0.00000000000E+00  0.37616949310E+03  0.37616949310E+03  0.00000000000E+00 0. -1.
          1   -1    0    0  501    0 -0.00000000000E+00 -0.00000000000E+00 -0.17737023991E+03  0.17737023991E+03  0.00000000000E+00 0. -1.
         25    2    1    2    0    0  0.94114573586E+02  0.10194662119E+03  0.30562829118E+02  0.18923366945E+03  0.12499851437E+03 0.  0.
          2    1    1    2  501    0 -0.67180596014E+02 -0.79745926494E+02 -0.68663103703E+02  0.12484897710E+03  0.00000000000E+00 0. -1.
          1    1    1    2  502    0 -0.26933977573E+02 -0.22200694699E+02  0.23689952778E+03  0.23945708646E+03  0.00000000000E+00 0. -1.
         22    1    3    3    0    0  0.10458648632E+03  0.50190287233E+02 -0.18118834237E+02  0.11741247892E+03  0.00000000000E+00 0.  1.
         22    1    3    3    0    0 -0.10471912733E+02  0.51756333960E+02  0.48681663355E+02  0.71821190524E+02  0.00000000000E+00 0.  1.
</event>
<event>
 7    1  0.6219721E-006  0.7440106E+02  0.7818608E-02  0.1346144E+00
          2   -1    0    0  502    0  0.00000000000E+00  0.00000000000E+00  0.21079660142E+04  0.21079660142E+04  0.00000000000E+00 0. -1.
          1   -1    0    0  501    0 -0.00000000000E+00 -0.00000000000E+00 -0.34896218052E+03  0.34896218052E+03  0.00000000000E+00 0. -1.
         25    2    1    2    0    0 -0.31631687349E+02  0.63085734713E+02  0.90115787354E+02  0.16948780568E+03  0.12499955030E+03 0.  0.
          2    1    1    2  501    0  0.74131782365E+02 -0.11462137958E+01 -0.30410783247E+03  0.31301502957E+03  0.00000000000E+00 0. -1.
          1    1    1    2  502    0 -0.42500095015E+02 -0.61939520917E+02  0.19729958788E+04  0.19744253595E+04  0.00000000000E+00 0. -1.
         22    1    3    3    0    0 -0.15782791206E+02  0.33863156816E+02 -0.28060469404E+02  0.46724723979E+02  0.00000000000E+00 0. -1.
         22    1    3    3    0    0 -0.15848896144E+02  0.29222577897E+02  0.11817625676E+03  0.12276308170E+03  0.00000000000E+00 0. -1.
</event>
<event>
 7    1  0.6219721E-006  0.5379683E+02  0.7818608E-02  0.1433421E+00
          2   -1    0    0  502    0  0.00000000000E+00  0.00000000000E+00  0.54341384642E+03  0.54341384642E+03  0.00000000000E+00 0. -1.
          1   -1    0    0  501    0 -0.00000000000E+00 -0.00000000000E+00 -0.42465115162E+03  0.42465115162E+03  0.00000000000E+00 0. -1.
         25    2    1    2    0    0 -0.61653350880E+02 -0.52300114853E+02  0.11684163251E+03  0.18924556472E+03  0.12500191595E+03 0.  0.
          2    1    1    2  501    0  0.50804528402E+02  0.17783708603E+00 -0.38495716310E+03  0.38829518301E+03  0.00000000000E+00 0. -1.
          1    1    1    2  502    0  0.10848822478E+02  0.52122277767E+02  0.38687822539E+03  0.39052425030E+03  0.00000000000E+00 0. -1.
         22    1    3    3    0    0  0.27666312055E+02  0.14630974109E+02  0.58502635979E+01  0.31838904036E+02  0.00000000000E+00 0.  1.
         22    1    3    3    0    0 -0.89319662935E+02 -0.66931088962E+02  0.11099136891E+03  0.15740666069E+03  0.00000000000E+00 0.  1.
</event>
<event>
 7    1  0.6219721E-006  0.1556539E+03  0.7818608E-02  0.1314842E+00
          2   -1    0    0  502    0  0.00000000000E+00  0.00000000000E+00  0.21221106581E+04  0.21221106581E+04  0.00000000000E+00 0. -1.
          1   -1    0    0  501    0 -0.00000000000E+00 -0.00000000000E+00 -0.87578313158E+03  0.87578313158E+03  0.00000000000E+00 0. -1.
         25    2    1    2    0    0  0.16858790443E+03  0.53061915272E+02  0.60030875614E+03  0.63814802730E+03  0.12499941471E+03 0.  0.
          2    1    1    2  501    0 -0.13204371066E+03 -0.82080791940E+02 -0.84944385969E+03  0.86355524936E+03  0.00000000000E+00 0. -1.
          1    1    1    2  502    0 -0.36544193774E+02  0.29018876667E+02  0.14954626301E+04  0.14961905131E+04  0.00000000000E+00 0. -1.
         22    1    3    3    0    0  0.63445823167E+02 -0.39647876312E+02  0.24569595090E+03  0.25683424005E+03  0.00000000000E+00 0.  1.
         22    1    3    3    0    0  0.10514208126E+03  0.92709791584E+02  0.35461280524E+03  0.38131378725E+03  0.00000000000E+00 0.  1.
</event>
<event>
 7    1  0.6219721E-006  0.5861388E+02  0.7818608E-02  0.1438044E+00
          2   -1    0    0  502    0  0.00000000000E+00  0.00000000000E+00  0.45669276462E+03  0.45669276462E+03  0.00000000000E+00 0. -1.
          1   -1    0    0  501    0 -0.00000000000E+00 -0.00000000000E+00 -0.16910038761E+03  0.16910038761E+03  0.00000000000E+00 0. -1.
         25    2    1    2    0    0  0.42234447662E+01  0.60502432931E+02 -0.15602509290E+02  0.13981054137E+03  0.12500066922E+03 0.  0.
          2    1    1    2  501    0 -0.44789677438E+02 -0.40940573005E+02 -0.79854645114E+02  0.10029461635E+03  0.00000000000E+00 0. -1.
          1    1    1    2  502    0  0.40566232671E+02 -0.19561859925E+02  0.38304953141E+03  0.38568799451E+03  0.00000000000E+00 0. -1.
         22    1    3    3    0    0  0.51780997979E+02  0.19499490970E+02  0.29304634046E+02  0.62612007446E+02  0.00000000000E+00 0.  1.
         22    1    3    3    0    0 -0.47557553213E+02  0.41002941961E+02 -0.44907143336E+02  0.77198533922E+02  0.00000000000E+00 0.  1.
</event>
<event>
 7    1  0.6219721E-006  0.2832679E+03  0.7818608E-02  0.1186941E+00
          2   -1    0    0  502    0  0.00000000000E+00  0.00000000000E+00  0.46704983197E+03  0.46704983197E+03  0.00000000000E+00 0. -1.
          1   -1    0    0  501    0 -0.00000000000E+00 -0.00000000000E+00 -0.12031927717E+04  0.12031927717E+04  0.00000000000E+00 0. -1.
         25    2    1    2    0    0 -0.25541666895E+03 -0.81321466777E+02 -0.65856974132E+03  0.72193471576E+03  0.12499909561E+03 0.  0.
          2    1    1    2  501    0  0.31319205026E+03  0.95322263545E+01 -0.45908604544E+03  0.55582382173E+03  0.00000000000E+00 0. -1.
          1    1    1    2  502    0 -0.57775381306E+02  0.71789240422E+02  0.38151284704E+03  0.39248406615E+03  0.00000000000E+00 0. -1.
         22    1    3    3    0    0 -0.59210909144E+02 -0.48030671180E+01 -0.30224461145E+03  0.30802728185E+03  0.00000000000E+00 0. -1.
         22    1    3    3    0    0 -0.19620575981E+03 -0.76518399659E+02 -0.35632512987E+03  0.41390743391E+03  0.00000000000E+00 0. -1.
</event>
<event>
 7    1  0.6219721E-006  0.1033905E+03  0.7818608E-02  0.1345061E+00
          2   -1    0    0  502    0  0.00000000000E+00  0.00000000000E+00  0.14165358245E+04  0.14165358245E+04  0.00000000000E+00 0. -1.
          1   -1    0    0  501    0 -0.00000000000E+00 -0.00000000000E+00 -0.20880571044E+02  0.20880571044E+02  0.00000000000E+00 0. -1.
         25    2    1    2    0    0 -0.23495542766E+01  0.85459367255E+02  0.44466499883E+03  0.46974552152E+03  0.12500027982E+03 0.  0.
          2    1    1    2  501    0  0.51882536995E+02  0.14427204397E+02  0.15901235252E+03  0.16788350165E+03  0.00000000000E+00 0. -1.
          1    1    1    2  502    0 -0.49532982719E+02 -0.99886571652E+02  0.79197790212E+03  0.79978737238E+03  0.00000000000E+00 0. -1.
         22    1    3    3    0    0  0.43287966985E+02  0.91896795104E+02  0.35022288397E+03  0.36465728773E+03  0.00000000000E+00 0. -1.
         22    1    3    3    0    0 -0.45637521262E+02 -0.64374278495E+01  0.94442114852E+02  0.10508823379E+03  0.00000000000E+00 0. -1.
</event>
<event>
 7    1  0.6219721E-006  0.9065492E+02  0.7818608E-02  0.1317300E+00
          2   -1    0    0  502    0  0.00000000000E+00  0.00000000000E+00  0.59155241050E+03  0.59155241050E+03  0.00000000000E+00 0. -1.
          1   -1    0    0  501    0 -0.00000000000E+00 -0.00000000000E+00 -0.23516716153E+03  0.23516716153E+03  0.00000000000E+00 0. -1.
         25    2    1    2    0    0  0.25355642457E+02 -0.72981260903E+02 -0.85419727133E+02  0.16997383613E+03  0.12500160854E+03 0.  0.
          2    1    1    2  501    0 -0.94002837941E+02  0.13770806646E+02 -0.81788885276E+02  0.12536183794E+03  0.00000000000E+00 0. -1.
          1    1    1    2  502    0  0.68647195485E+02  0.59210454257E+02  0.52359386138E+03  0.53138389796E+03  0.00000000000E+00 0. -1.
         22    1    3    3    0    0 -0.13494553441E+02 -0.82034050734E+02 -0.97653241265E+02  0.12824914808E+03  0.00000000000E+00 0.  1.
         22    1    3    3    0    0  0.38850195897E+02  0.90527898315E+01  0.12233514132E+02  0.41724688052E+02  0.00000000000E+00 0.  1.
</event>
<event>
 7    1  0.6219721E-006  0.1214780E+03  0.7818608E-02  0.1404047E+00
          2   -1    0    0  502    0  0.00000000000E+00  0.00000000000E+00  0.58881698781E+03  0.58881698781E+03  0.00000000000E+00 0. -1.
          1   -1    0    0  501    0 -0.00000000000E+00 -0.00000000000E+00 -0.13894422321E+04  0.13894422321E+04  0.00000000000E+00 0. -1.
         25    2    1    2    0    0  0.10372754488E+03 -0.95552095055E+02 -0.72852647977E+03  0.75250630596E+03  0.12500120937E+03 0.  0.
          2    1    1    2  501    0 -0.29070690052E+01  0.28063644694E+02 -0.64223320371E+03  0.64285263253E+03  0.00000000000E+00 0. -1.
          1    1    1    2  502    0 -0.10082047587E+03  0.67488450362E+02  0.57013443920E+03  0.58290028140E+03  0.00000000000E+00 0. -1.
         22    1    3    3    0    0  0.24398203836E+02 -0.85082785702E+02 -0.21073529211E+03  0.22856884327E+03  0.00000000000E+00 0. -1.
         22    1    3    3    0    0  0.79329341041E+02 -0.10469309353E+02 -0.51779118767E+03  0.52393746269E+03  0.00000000000E+00 0. -1.
</event>
<event>
 7    1  0.6219721E-006  0.6555964E+02  0.7818608E-02  0.1451769E+00
          2   -1    0    0  502    0  0.00000000000E+00  0.00000000000E+00  0.15865614777E+04  0.15865614777E+04  0.00000000000E+00 0. -1.
          1   -1    0    0  501    0 -0.00000000000E+00 -0.00000000000E+00 -0.85604854396E+03  0.85604854396E+03  0.00000000000E+00 0. -1.
         25    2    1    2    0    0 -0.79496842078E+02 -0.61051115924E+02  0.27676359811E+03  0.31979218792E+03  0.12498786965E+03 0.  0.
          2    1    1    2  501    0  0.56595342034E+02  0.32802151204E+02 -0.83299510521E+03  0.83555960839E+03  0.00000000000E+00 0. -1.
          1    1    1    2  502    0  0.22901500044E+02  0.28248964719E+02  0.12867444409E+04  0.12872582254E+04  0.00000000000E+00 0. -1.
         22    1    3    3    0    0 -0.38947015269E+02 -0.96608907550E+02  0.15657961954E+03  0.18806203304E+03  0.00000000000E+00 0. -1.
         22    1    3    3    0    0 -0.40549826809E+02  0.35557791626E+02  0.12018397857E+03  0.13173015488E+03  0.00000000000E+00 0. -1.
</event>
<event>
 7    1  0.6219721E-006  0.3672832E+03  0.7818608E-02  0.1096675E+00
          2   -1    0    0  502    0  0.00000000000E+00  0.00000000000E+00  0.35113826362E+03  0.35113826362E+03  0.00000000000E+00 0. -1.
          1   -1    0    0  501    0 -0.00000000000E+00 -0.00000000000E+00 -0.22592014417E+04  0.22592014417E+04  0.00000000000E+00 0. -1.
         25    2    1    2    0    0 -0.23364298795E+03  0.23344967900E+03 -0.21484805455E+01  0.35315353022E+03  0.12500000598E+03 0.  0.
          2    1    1    2  501    0  0.36922425436E+03 -0.72131589690E+02 -0.19937159222E+04  0.20288993801E+04  0.00000000000E+00 0. -1.
          1    1    1    2  502    0 -0.13558126641E+03 -0.16131808931E+03  0.87801224605E+02  0.22828679503E+03  0.00000000000E+00 0. -1.
         22    1    3    3    0    0 -0.21390297691E+03  0.18735539582E+03  0.40631225559E+02  0.28724105619E+03  0.00000000000E+00 0. -1.
         22    1    3    3    0    0 -0.19740011044E+02  0.46094283181E+02 -0.42779706104E+02  0.65912474027E+02  0.00000000000E+00 0. -1.
</event>
<event>
 7    1  0.6219721E-006  0.6782655E+02  0.7818608E-02  0.1428638E+00
          2   -1    0    0  502    0  0.00000000000E+00  0.00000000000E+00  0.10287901187E+04  0.10287901187E+04  0.00000000000E+00 0. -1.
          1   -1    0    0  501    0 -0.00000000000E+00 -0.00000000000E+00 -0.12932740584E+04  0.12932740584E+04  0.00000000000E+00 0. -1.
         25    2    1    2    0    0 -0.90513746449E+02  0.14125880525E+02 -0.39656328394E+03  0.42576977354E+03  0.12500073236E+03 0.  0.
          2    1    1    2  501    0  0.55365042379E+02 -0.36715224193E+02 -0.88042528264E+03  0.88292806837E+03  0.00000000000E+00 0. -1.
          1    1    1    2  502    0  0.35148704069E+02  0.22589343669E+02  0.10125046269E+04  0.10133663352E+04  0.00000000000E+00 0. -1.
         22    1    3    3    0    0 -0.10380503417E+03  0.14275532932E+02 -0.17616955876E+03  0.20497558244E+03  0.00000000000E+00 0. -1.
         22    1    3    3    0    0  0.13291287726E+02 -0.14965240792E+00 -0.22039372518E+03  0.22079419110E+03  0.00000000000E+00 0. -1.
</event>
<event>
 7    1  0.6219721E-006  0.1145391E+03  0.7818608E-02  0.1350492E+00
          2   -1    0    0  502    0  0.00000000000E+00  0.00000000000E+00  0.35486081231E+03  0.35486081231E+03  0.00000000000E+00 0. -1.
          1   -1    0    0  501    0 -0.00000000000E+00 -0.00000000000E+00 -0.52490174794E+03  0.52490174794E+03  0.00000000000E+00 0. -1.
         25    2    1    2    0    0 -0.77932553808E+02 -0.12571121846E+03 -0.13960631686E+03  0.23872924214E+03  0.12499973582E+03 0.  0.
          2    1    1    2  501    0 -0.23601591929E+01  0.46341236358E+02 -0.32358436353E+03  0.32689435734E+03  0.00000000000E+00 0. -1.
          1    1    1    2  502    0  0.80292713001E+02  0.79369982098E+02  0.29314974476E+03  0.31413896077E+03  0.00000000000E+00 0. -1.
         22    1    3    3    0    0  0.22756012931E+02 -0.52991719372E+02 -0.87799342284E+01  0.58335629692E+02  0.00000000000E+00 0.  1.
         22    1    3    3    0    0 -0.10068856674E+03 -0.72719499084E+02 -0.13082638263E+03  0.18039361245E+03  0.00000000000E+00 0.  1.
</event>
<event>
 7    1  0.1743951E-005  0.1069649E+03  0.7818608E-02  0.1337026E+00
          2   -1    0    0  502    0  0.00000000000E+00  0.00000000000E+00  0.17072843554E+04  0.17072843554E+04  0.00000000000E+00 0. -1.
          1   -1    0    0  501    0 -0.00000000000E+00 -0.00000000000E+00 -0.82395739819E+03  0.82395739819E+03  0.00000000000E+00 0. -1.
         25    2    1    2    0    0  0.51512591751E+02 -0.34640750667E+01 -0.26327685568E+03  0.29598006069E+03  0.12499578659E+03 0.  0.
          2    1    1    2  501    0  0.55054260544E+02 -0.90786482490E+01 -0.54119079489E+03  0.54405961983E+03  0.00000000000E+00 0. -1.
          1    1    1    2  502    0 -0.10656685229E+03  0.12542723316E+02  0.16877946078E+04  0.16912020730E+04  0.00000000000E+00 0. -1.
         22    1    3    3    0    0  0.57896669482E+02  0.30972417110E+02 -0.57606109557E+02  0.87348605124E+02  0.00000000000E+00 0.  1.
         22    1    3    3    0    0 -0.63840777318E+01 -0.34436492176E+02 -0.20567074612E+03  0.20863145557E+03  0.00000000000E+00 0.  1.
</event>
<event>
 7    1  0.6219721E-006  0.6350715E+02  0.7818608E-02  0.1507997E+00
          2   -1    0    0  502    0  0.00000000000E+00  0.00000000000E+00  0.15170858031E+04  0.15170858031E+04  0.00000000000E+00 0. -1.
          1   -1    0    0  501    0 -0.00000000000E+00 -0.00000000000E+00 -0.25579455415E+02  0.25579455415E+02  0.00000000000E+00 0. -1.
         25    2    1    2    0    0  0.56883847846E+02  0.55916928187E+02  0.11150840242E+04  0.11248998473E+04  0.12499924190E+03 0.  0.
          2    1    1    2  501    0 -0.10562932122E+02 -0.22913294309E+02 -0.10029136997E+02  0.27151025395E+02  0.00000000000E+00 0. -1.
          1    1    1    2  502    0 -0.46320915724E+02 -0.33003633878E+02  0.38645146041E+03  0.39061438573E+03  0.00000000000E+00 0. -1.
         22    1    3    3    0    0  0.34251926597E+02 -0.26844932024E+02  0.15511307626E+03  0.16110217651E+03  0.00000000000E+00 0. -1.
         22    1    3    3    0    0  0.22631921248E+02  0.82761860211E+02  0.95997094797E+03  0.96379767083E+03  0.00000000000E+00 0. -1.
</event>
<event>
 7    1  0.6219721E-006  0.1053026E+03  0.7818608E-02  0.1349798E+00
          2   -1    0    0  502    0  0.00000000000E+00  0.00000000000E+00  0.11418754262E+03  0.11418754262E+03  0.00000000000E+00 0. -1.
          1   -1    0    0  501    0 -0.00000000000E+00 -0.00000000000E+00 -0.19809045212E+04  0.19809045212E+04  0.00000000000E+00 0. -1.
         25    2    1    2    0    0  0.13303748147E+03 -0.58520824224E+02 -0.39306942869E+03  0.43732143114E+03  0.12499119977E+03 0.  0.
          2    1    1    2  501    0 -0.82330109066E+02  0.61061303468E+02 -0.15568933384E+04  0.15602639510E+04  0.00000000000E+00 0. -1.
          1    1    1    2  502    0 -0.50707372405E+02 -0.25404792440E+01  0.83245788552E+02  0.97506681631E+02  0.00000000000E+00 0. -1.
         22    1    3    3    0    0  0.59654977323E+02 -0.92712553951E+02 -0.24192451636E+03  0.26586050026E+03  0.00000000000E+00 0.  1.
         22    1    3    3    0    0  0.73382504148E+02  0.34191729726E+02 -0.15114491233E+03  0.17146093088E+03  0.00000000000E+00 0.  1.
</event>
<event>
 7    1  0.6219721E-006  0.1276095E+03  0.7818608E-02  0.1354692E+00
          2   -1    0    0  502    0  0.00000000000E+00  0.00000000000E+00  0.13304666113E+03  0.13304666113E+03  0.00000000000E+00 0. -1.
          1   -1    0    0  501    0 -0.00000000000E+00 -0.00000000000E+00 -0.11068236571E+04  0.11068236571E+04  0.00000000000E+00 0. -1.
         25    2    1    2    0    0  0.83472834188E+02  0.64227909219E+02 -0.42620172358E+02  0.16892007788E+03  0.12499830098E+03 0.  0.
          2    1    1    2  501    0  0.38611856347E+02  0.11146331419E+02 -0.92652631138E+03  0.92739749936E+03  0.00000000000E+00 0. -1.
          1    1    1    2  502    0 -0.12208469053E+03 -0.75374240638E+02 -0.46305122760E+01  0.14355274103E+03  0.00000000000E+00 0. -1.
         22    1    3    3    0    0  0.81132838197E+01  0.83813527795E+02 -0.33099388979E+02  0.90477081996E+02  0.00000000000E+00 0. -1.
         22    1    3    3    0    0  0.75359550368E+02 -0.19585618576E+02 -0.95207833799E+01  0.78442995881E+02  0.00000000000E+00 0. -1.
</event>
<event>
 7    1  0.6219721E-006  0.1069511E+03  0.7818608E-02  0.1316588E+00
          2   -1    0    0  502    0  0.00000000000E+00  0.00000000000E+00  0.99256308019E+03  0.99256308019E+03  0.00000000000E+00 0. -1.
          1   -1    0    0  501    0 -0.00000000000E+00 -0.00000000000E+00 -0.13999950508E+04  0.13999950508E+04  0.00000000000E+00 0. -1.
         25    2    1    2    0    0 -0.50107750084E+01  0.54923214516E+02  0.13679203275E+03  0.19330887600E+03  0.12495836890E+03 0.  0.
          2    1    1    2  501    0 -0.47011890967E+02 -0.96915909615E+02 -0.13682661010E+04  0.13724995208E+04  0.00000000000E+00 0. -1.
          1    1    1    2  502    0  0.52022665975E+02  0.41992695099E+02  0.82404209767E+03  0.82674973417E+03  0.00000000000E+00 0. -1.
         22    1    3    3    0    0 -0.33101274138E+02  0.85934888103E+02  0.11070495502E+03  0.14400030003E+03  0.00000000000E+00 0.  1.
         22    1    3    3    0    0  0.28090499129E+02 -0.31011673587E+02  0.26087077732E+02  0.49308575974E+02  0.00000000000E+00 0.  1.
</event>
<event>
 7    1  0.6219721E-006  0.7046598E+02  0.7818608E-02  0.1425980E+00
          2   -1    0    0  502    0  0.00000000000E+00  0.00000000000E+00  0.59363574098E+03  0.59363574098E+03  0.00000000000E+00 0. -1.
          1   -1    0    0  501    0 -0.00000000000E+00 -0.00000000000E+00 -0.42032602866E+03  0.42032602866E+03  0.00000000000E+00 0. -1.
         25    2    1    2    0    0  0.22814874863E+02  0.31649520408E+02  0.13823056385E+03  0.19040867999E+03  0.12500226388E+03 0.  0.
          2    1    1    2  501    0 -0.96388002974E+01 -0.70515210565E+02 -0.39002867881E+03  0.39646900470E+03  0.00000000000E+00 0. -1.
          1    1    1    2  502    0 -0.13176074565E+02  0.38865690158E+02  0.42510782728E+03  0.42708408496E+03  0.00000000000E+00 0. -1.
         22    1    3    3    0    0 -0.24348819660E+01  0.60460622683E+02  0.16394042910E+02  0.62691149203E+02  0.00000000000E+00 0.  1.
         22    1    3    3    0    0  0.25249756829E+02 -0.28811102276E+02  0.12183652094E+03  0.12771753078E+03  0.00000000000E+00 0.  1.
</event>
<event>
 7    1  0.6219721E-006  0.5133956E+02  0.7818608E-02  0.1479994E+00
          2   -1    0    0  502    0  0.00000000000E+00  0.00000000000E+00  0.73062056101E+03  0.73062056101E+03  0.00000000000E+00 0. -1.
          1   -1    0    0  501    0 -0.00000000000E+00 -0.00000000000E+00 -0.84431409378E+03  0.84431409378E+03  0.00000000000E+00 0. -1.
         25    2    1    2    0    0 -0.89543099168E+01  0.37996209419E+02  0.45894457005E+02  0.13876563777E+03  0.12500283775E+03 0.  0.
          2    1    1    2  501    0 -0.35948821938E+02 -0.11983802843E+02 -0.79637249574E+03  0.79727352979E+03  0.00000000000E+00 0. -1.
          1    1    1    2  502    0  0.44903131855E+02 -0.26012406575E+02  0.63678450598E+03  0.63889548723E+03  0.00000000000E+00 0. -1.
         22    1    3    3    0    0  0.56088635186E+02  0.14732546266E+01  0.15447561630E+02  0.58195641044E+02  0.00000000000E+00 0. -1.
         22    1    3    3    0    0 -0.65042945103E+02  0.36522954792E+02  0.30446895375E+02  0.80569996725E+02  0.00000000000E+00 0. -1.
</event>
<event>
 7    1  0.6219721E-006  0.6858438E+02  0.7818608E-02  0.1513006E+00
          2   -1    0    0  502    0  0.00000000000E+00  0.00000000000E+00  0.94392346169E+03  0.94392346169E+03  0.00000000000E+00 0. -1.
          1   -1    0    0  501    0 -0.00000000000E+00 -0.00000000000E+00 -0.71423146265E+03  0.71423146265E+03  0.00000000000E+00 0. -1.
         25    2    1    2    0    0  0.42509089618E+02  0.77867656936E+02  0.12339525937E+03  0.19677595851E+03  0.12499597241E+03 0.  0.
          2    1    1    2  501    0 -0.24956473510E+02 -0.63657680378E+02 -0.67565263818E+03  0.67910353653E+03  0.00000000000E+00 0. -1.
          1    1    1    2  502    0 -0.17552616108E+02 -0.14209976558E+02  0.78194937786E+03  0.78227542931E+03  0.00000000000E+00 0. -1.
         22    1    3    3    0    0 -0.21538213015E+02  0.68186913096E+02  0.19120124047E+02  0.74019787091E+02  0.00000000000E+00 0. -1.
         22    1    3    3    0    0  0.64047302633E+02  0.96807438393E+01  0.10427513532E+03  0.12275617142E+03  0.00000000000E+00 0. -1.
</event>
<event>
 7    1  0.6219721E-006  0.1405974E+03  0.7818608E-02  0.1297544E+00
          2   -1    0    0  502    0  0.00000000000E+00  0.00000000000E+00  0.97096488123E+03  0.97096488123E+03  0.00000000000E+00 0. -1.
          1   -1    0    0  501    0 -0.00000000000E+00 -0.00000000000E+00 -0.89445656818E+03  0.89445656818E+03  0.00000000000E+00 0. -1.
         25    2    1    2    0    0 -0.11177833428E+03 -0.13863805831E+03 -0.20159279147E+03  0.29661397772E+03  0.12500116392E+03 0.  0.
          2    1    1    2  501    0  0.52805693975E+02  0.12513424221E+03 -0.63719739528E+03  0.65151173469E+03  0.00000000000E+00 0. -1.
          1    1    1    2  502    0  0.58972640301E+02  0.13503816101E+02  0.91529849981E+03  0.91729573700E+03  0.00000000000E+00 0. -1.
         22    1    3    3    0    0 -0.33060393352E+02  0.14536974968E+02 -0.70538563962E+01  0.36797692046E+02  0.00000000000E+00 0.  1.
         22    1    3    3    0    0 -0.78717940924E+02 -0.15317503328E+03 -0.19453893508E+03  0.25981628568E+03  0.00000000000E+00 0.  1.
</event>
<event>
 7    1  0.6219721E-006  0.7766657E+02  0.7818608E-02  0.1338145E+00
          2   -1    0    0  502    0  0.00000000000E+00  0.00000000000E+00  0.68212300430E+02  0.68212300430E+02  0.00000000000E+00 0. -1.
          1   -1    0    0  501    0 -0.00000000000E+00 -0.00000000000E+00 -0.20225565814E+04  0.20225565814E+04  0.00000000000E+00 0. -1.
         25    2    1    2    0    0 -0.37406090185E+02  0.75670416803E+02 -0.45775227162E+03  0.48196145393E+03  0.12499789333E+03 0.  0.
          2    1    1    2  501    0 -0.39830447535E+02 -0.67508696953E+02 -0.15243242480E+04  0.15263382004E+04  0.00000000000E+00 0. -1.
          1    1    1    2  502    0  0.77236537720E+02 -0.81617198498E+01  0.27732238684E+02  0.82469227547E+02  0.00000000000E+00 0. -1.
         22    1    3    3    0    0 -0.63676417337E+02  0.80196214174E+02 -0.21937327160E+03  0.24209657409E+03  0.00000000000E+00 0.  1.
         22    1    3    3    0    0  0.26270327152E+02 -0.45257973715E+01 -0.23837900002E+03  0.23986487984E+03  0.00000000000E+00 0.  1.
</event>
<event>
 7    1  0.7609811E-006  0.8260630E+02  0.7818608E-02  0.1360659E+00
          2   -1    0    0  502    0  0.00000000000E+00  0.00000000000E+00  0.12267607914E+04  0.12267607914E+04  0.00000000000E+00 0. -1.
          1   -1    0    0  501    0 -0.00000000000E+00 -0.00000000000E+00 -0.26585485241E+04  0.26585485241E+04  0.00000000000E+00 0. -1.
         25    2    1    2    0    0  0.40997911433E+02 -0.33447831898E+02 -0.64567556760E+03  0.65978959389E+03  0.12500313359E+03 0.  0.
          2    1    1    2  501    0 -0.88300942140E+02 -0.18751130029E+01 -0.20041284106E+04  0.20060735925E+04  0.00000000000E+00 0. -1.
          1    1    1    2  502    0  0.47303030707E+02  0.35322944901E+02  0.12180162456E+04  0.12194461290E+04  0.00000000000E+00 0. -1.
         22    1    3    3    0    0 -0.43065876527E+02 -0.27035250501E+02 -0.21398826264E+03  0.21994670045E+03  0.00000000000E+00 0.  1.
         22    1    3    3    0    0  0.84063787960E+02 -0.64125813971E+01 -0.43168730496E+03  0.43984289344E+03  0.00000000000E+00 0.  1.
</event>
<event>
 7    1  0.6219721E-006  0.6467704E+02  0.7818608E-02  0.1461017E+00
          2   -1    0    0  502    0  0.00000000000E+00  0.00000000000E+00  0.82287622682E+03  0.82287622682E+03  0.00000000000E+00 0. -1.
          1   -1    0    0  501    0 -0.00000000000E+00 -0.00000000000E+00 -0.10701857040E+04  0.10701857040E+04  0.00000000000E+00 0. -1.
         25    2    1    2    0    0 -0.15781286024E+02 -0.31791907219E+02  0.37707246098E+02  0.13534856235E+03  0.12505048008E+03 0.  0.
          2    1    1    2  501    0 -0.31706616674E+02 -0.13486135757E+02 -0.10196117904E+04  0.10201937995E+04  0.00000000000E+00 0. -1.
          1    1    1    2  502    0  0.47487902698E+02  0.45278042976E+02  0.73459506709E+03  0.73751956901E+03  0.00000000000E+00 0. -1.
         22    1    3    3    0    0  0.38802120314E+02  0.28542989477E+02  0.85616019372E+01  0.48924511412E+02  0.00000000000E+00 0. -1.
         22    1    3    3    0    0 -0.54583406338E+02 -0.60334896696E+02  0.29145644161E+02  0.86424050937E+02  0.00000000000E+00 0. -1.
</event>
<event>
 7    1  0.6219721E-006  0.7666282E+02  0.7818608E-02  0.1349967E+00
          2   -1    0    0  502    0  0.00000000000E+00  0.00000000000E+00  0.21558729021E+03  0.21558729021E+03  0.00000000000E+00 0. -1.
          1   -1    0    0  501    0 -0.00000000000E+00 -0.00000000000E+00 -0.18864040072E+04  0.18864040072E+04  0.00000000000E+00 0. -1.
         25    2    1    2    0    0 -0.40418280977E+02 -0.11951842938E+03 -0.21614468178E+03  0.27975661578E+03  0.12500779261E+03 0.  0.
          2    1    1    2  501    0 -0.14881653573E+02  0.68028833590E+02 -0.16299119623E+04  0.16313989060E+04  0.00000000000E+00 0. -1.
          1    1    1    2  502    0  0.55299934550E+02  0.51489595794E+02  0.17523992703E+03  0.19083577564E+03  0.00000000000E+00 0. -1.
         22    1    3    3    0    0  0.66066670487E+01 -0.56460618896E+02 -0.18768531682E+03  0.19610514446E+03  0.00000000000E+00 0.  1.
         22    1    3    3    0    0 -0.47024948026E+02 -0.63057810488E+02 -0.28459364965E+02  0.83651471324E+02  0.00000000000E+00 0.  1.
</event>
<event>
 7    1  0.6219721E-006  0.1160578E+03  0.7818608E-02  0.1252120E+00
          2   -1    0    0  502    0  0.00000000000E+00  0.00000000000E+00  0.17924537676E+04  0.17924537676E+04  0.00000000000E+00 0. -1.
          1   -1    0    0  501    0 -0.00000000000E+00 -0.00000000000E+00 -0.90866649945E+02  0.90866649945E+02  0.00000000000E+00 0. -1.
         25    2    1    2    0    0 -0.46534012050E+02  0.40701166646E+02  0.37155404204E+03  0.39686198163E+03  0.12500010825E+03 0.  0.
          2    1    1    2  501    0 -0.87019542601E+02 -0.72622195251E+02 -0.31801278844E+02  0.11771875540E+03  0.00000000000E+00 0. -1.
          1    1    1    2  502    0  0.13355355465E+03  0.31921028604E+02  0.13618343544E+04  0.13687396805E+04  0.00000000000E+00 0. -1.
         22    1    3    3    0    0  0.23138173254E+02  0.16490625991E+02  0.13806827163E+02  0.31590256147E+02  0.00000000000E+00 0.  1.
         22    1    3    3    0    0 -0.69672185304E+02  0.24210540656E+02  0.35774721488E+03  0.36527172549E+03  0.00000000000E+00 0.  1.
</event>
<event>
 7    1  0.6219721E-006  0.3724876E+03  0.7818608E-02  0.1071037E+00
          2   -1    0    0  502    0  0.00000000000E+00  0.00000000000E+00  0.16860067645E+04  0.16860067645E+04  0.00000000000E+00 0. -1.
          1   -1    0    0  501    0 -0.00000000000E+00 -0.00000000000E+00 -0.11321076938E+04  0.11321076938E+04  0.00000000000E+00 0. -1.
         25    2    1    2    0    0 -0.15398020081E+03 -0.55386381153E+03  0.98152697738E+02  0.59643429596E+03  0.12499957342E+03 0.  0.
          2    1    1    2  501    0 -0.57412810879E+02  0.35132588371E+03 -0.82994955119E+03  0.90307384246E+03  0.00000000000E+00 0. -1.
          1    1    1    2  502    0  0.21139301169E+03  0.20253792782E+03  0.12856959241E+04  0.13186063199E+04  0.00000000000E+00 0. -1.
         22    1    3    3    0    0 -0.16533675883E+02 -0.41598065588E+02  0.44869445719E+02  0.63380033590E+02  0.00000000000E+00 0. -1.
         22    1    3    3    0    0 -0.13744652493E+03 -0.51226574594E+03  0.53283252019E+02  0.53305426237E+03  0.00000000000E+00 0. -1.
</event>
<event>
 7    1  0.6219721E-006  0.9088274E+02  0.7818608E-02  0.1458543E+00
          2   -1    0    0  502    0  0.00000000000E+00  0.00000000000E+00  0.29311647368E+02  0.29311647368E+02  0.00000000000E+00 0. -1.
          1   -1    0    0  501    0 -0.00000000000E+00 -0.00000000000E+00 -0.89642377454E+03  0.89642377454E+03  0.00000000000E+00 0. -1.
         25    2    1    2    0    0 -0.86696553795E+02 -0.52483609044E+02 -0.69555715499E+03  0.71393005810E+03  0.12500220134E+03 0.  0.
          2    1    1    2  501    0  0.14328241608E+01  0.24924114524E+02 -0.79548305257E+02  0.83373840856E+02  0.00000000000E+00 0. -1.
          1    1    1    2  502    0  0.85263729634E+02  0.27559494520E+02 -0.92006666918E+02  0.12843152295E+03  0.00000000000E+00 0. -1.
         22    1    3    3    0    0 -0.64303977811E+02 -0.89177272902E+01 -0.62307672265E+03  0.62644962266E+03  0.00000000000E+00 0. -1.
         22    1    3    3    0    0 -0.22392575985E+02 -0.43565881754E+02 -0.72480432342E+02  0.87480435440E+02  0.00000000000E+00 0. -1.
</event>
<event>
 7    1  0.6219721E-006  0.5228977E+02  0.7818608E-02  0.1479670E+00
          2   -1    0    0  502    0  0.00000000000E+00  0.00000000000E+00  0.11915863645E+03  0.11915863645E+03  0.00000000000E+00 0. -1.
          1   -1    0    0  501    0 -0.00000000000E+00 -0.00000000000E+00 -0.43903139407E+03  0.43903139407E+03  0.00000000000E+00 0. -1.
         25    2    1    2    0    0  0.16234026690E+02  0.51518531308E+00 -0.11592791616E+02  0.12658020682E+03  0.12499738759E+03 0.  0.
          2    1    1    2  501    0 -0.53522829913E+02 -0.19404066659E+00 -0.36215471965E+03  0.36608847557E+03  0.00000000000E+00 0. -1.
          1    1    1    2  502    0  0.37288803223E+02 -0.32114464649E+00  0.53874753656E+02  0.65521348134E+02  0.00000000000E+00 0. -1.
         22    1    3    3    0    0  0.45586719337E+02  0.83172219032E+01  0.43572123328E+02  0.63607036493E+02  0.00000000000E+00 0.  1.
         22    1    3    3    0    0 -0.29352692647E+02 -0.78020365901E+01 -0.55164914944E+02  0.62973170330E+02  0.00000000000E+00 0.  1.
</event>
<event>
 7    1  0.6219721E-006  0.5675991E+02  0.7818608E-02  0.1487028E+00
          2   -1    0    0  502    0  0.00000000000E+00  0.00000000000E+00  0.18200133495E+04  0.18200133495E+04  0.00000000000E+00 0. -1.
          1   -1    0    0  501    0 -0.00000000000E+00 -0.00000000000E+00 -0.25326463763E+02  0.25326463763E+02  0.00000000000E+00 0. -1.
         25    2    1    2    0    0 -0.11177341657E+02 -0.31823255061E+02  0.25454426380E+03  0.28558001571E+03  0.12500204241E+03 0.  0.
          2    1    1    2  501    0  0.20863755475E+02 -0.25077141222E+02  0.19465540286E+02  0.37987715949E+02  0.00000000000E+00 0. -1.
          1    1    1    2  502    0 -0.96864138179E+01  0.56900396284E+02  0.15206770816E+04  0.15217720816E+04  0.00000000000E+00 0. -1.
         22    1    3    3    0    0 -0.18974378109E+02  0.36799696877E+02  0.31318329777E+02  0.51914183947E+02  0.00000000000E+00 0. -1.
         22    1    3    3    0    0  0.77970364517E+01 -0.68622951938E+02  0.22322593403E+03  0.23366583176E+03  0.00000000000E+00 0. -1.
</event>
<event>
 7    1  0.6219721E-006  0.8921438E+02  0.7818608E-02  0.1460177E+00
          2   -1    0    0  502    0  0.00000000000E+00  0.00000000000E+00  0.16208462116E+04  0.16208462116E+04  0.00000000000E+00 0. -1.
          1   -1    0    0  501    0 -0.00000000000E+00 -0.00000000000E+00 -0.97048049798E+03  0.97048049798E+03  0.00000000000E+00 0. -1.
         25    2    1    2    0    0 -0.64714120747E+01 -0.78623062758E+02  0.70922653020E+02  0.16394889207E+03  0.12500300528E+03 0.  0.
          2    1    1    2  501    0 -0.24537865189E+02 -0.54308833479E+01 -0.92246134658E+03  0.92280362876E+03  0.00000000000E+00 0. -1.
          1    1    1    2  502    0  0.31009277263E+02  0.84053946106E+02  0.15019044072E+04  0.15045741888E+04  0.00000000000E+00 0. -1.
         22    1    3    3    0    0  0.37310008637E+02  0.17131083929E+02  0.30595902652E+02  0.51201758174E+02  0.00000000000E+00 0. -1.
         22    1    3    3    0    0 -0.43781420711E+02 -0.95754146687E+02  0.40326750368E+02  0.11274713390E+03  0.00000000000E+00 0. -1.
</event>
<event>
 7    1  0.6219721E-006  0.2098704E+03  0.7818608E-02  0.1308853E+00
          2   -1    0    0  502    0  0.00000000000E+00  0.00000000000E+00  0.50864214162E+02  0.50864214162E+02  0.00000000000E+00 0. -1.
          1   -1    0    0  501    0 -0.00000000000E+00 -0.00000000000E+00 -0.17270800375E+04  0.17270800375E+04  0.00000000000E+00 0. -1.
         25    2    1    2    0    0  0.33453882465E+02 -0.21382882201E+03 -0.63480237383E+03  0.68223198310E+03  0.12499799026E+03 0.  0.
          2    1    1    2  501    0 -0.65979052546E+02  0.19718390713E+03 -0.10384422997E+04  0.10590548326E+04  0.00000000000E+00 0. -1.
          1    1    1    2  502    0  0.32525170081E+02  0.16644914881E+02 -0.29711497864E+01  0.36657435962E+02  0.00000000000E+00 0. -1.
         22    1    3    3    0    0  0.34838094123E+02 -0.40798545599E+02 -0.53672500275E+02  0.75887755342E+02  0.00000000000E+00 0.  1.
         22    1    3    3    0    0 -0.13842116575E+01 -0.17303027641E+03 -0.58112987356E+03  0.60634422776E+03  0.00000000000E+00 0.  1.
</event>
<event>
 7    1  0.6219721E-006  0.1084362E+03  0.7818608E-02  0.1328139E+00
          2   -1    0    0  502    0  0.00000000000E+00  0.00000000000E+00  0.96351090459E+03  0.96351090459E+03  0.00000000000E+00 0. -1.
          1   -1    0    0  501    0 -0.00000000000E+00 -0.00000000000E+00 -0.71538000539E+02  0.71538000539E+02  0.00000000000E+00 0. -1.
         25    2    1    2    0    0  0.56330116868E+02  0.10317385281E+03  0.24802623195E+03  0.30159672490E+03  0.12500258703E+03 0.  0.
          2    1    1    2  501    0  0.37033145522E+02 -0.46567465920E+02 -0.18313247527E+02  0.62252371717E+02  0.00000000000E+00 0. -1.
          1    1    1    2  502    0 -0.93363262390E+02 -0.56606386893E+02  0.66225991964E+03  0.67119980852E+03  0.00000000000E+00 0. -1.
         22    1    3    3    0    0 -0.21452569970E+02 -0.11118088385E+02  0.96224994839E+01  0.26008020762E+02  0.00000000000E+00 0.  1.
         22    1    3    3    0    0  0.77782686838E+02  0.11429194120E+03  0.23840373246E+03  0.27558870413E+03  0.00000000000E+00 0.  1.
</event>
<event>
 7    1  0.6219721E-006  0.1138091E+03  0.7818608E-02  0.1386247E+00
          2   -1    0    0  502    0  0.00000000000E+00  0.00000000000E+00  0.22959781158E+03  0.22959781158E+03  0.00000000000E+00 0. -1.
          1   -1    0    0  501    0 -0.00000000000E+00 -0.00000000000E+00 -0.76445801928E+03  0.76445801928E+03  0.00000000000E+00 0. -1.
         25    2    1    2    0    0 -0.78918616398E+02 -0.24226562144E+02 -0.20360717729E+03  0.25277782947E+03  0.12500269637E+03 0.  0.
          2    1    1    2  501    0 -0.34705446224E+02  0.42524029451E+00 -0.51920526013E+03  0.52036405619E+03  0.00000000000E+00 0. -1.
          1    1    1    2  502    0  0.11362406262E+03  0.23801321849E+02  0.18795222972E+03  0.22091394521E+03  0.00000000000E+00 0. -1.
         22    1    3    3    0    0  0.20660310952E+02 -0.40461921974E+02 -0.90136555271E+02  0.10093866541E+03  0.00000000000E+00 0.  1.
         22    1    3    3    0    0 -0.99578927350E+02  0.16235359830E+02 -0.11347062202E+03  0.15183916406E+03  0.00000000000E+00 0.  1.
</event>
<event>
 7    1  0.6219721E-006  0.1207569E+03  0.7818608E-02  0.1333686E+00
          2   -1    0    0  502    0  0.00000000000E+00  0.00000000000E+00  0.22447828714E+04  0.22447828714E+04  0.00000000000E+00 0. -1.
          1   -1    0    0  501    0 -0.00000000000E+00 -0.00000000000E+00 -0.35826549711E+03  0.35826549711E+03  0.00000000000E+00 0. -1.
         25    2    1    2    0    0 -0.66753728836E+02  0.85669284499E+02  0.13242212918E+03  0.21203108996E+03  0.12500510467E+03 0.  0.
          2    1    1    2  501    0  0.28228278118E+02 -0.11891401703E+03 -0.30640909057E+03  0.32988469185E+03  0.00000000000E+00 0. -1.
          1    1    1    2  502    0  0.38525450718E+02  0.33244732535E+02  0.20605043357E+04  0.20611325867E+04  0.00000000000E+00 0. -1.
         22    1    3    3    0    0 -0.73200997150E+02 -0.62287830226E+01  0.59577406730E+02  0.94586738576E+02  0.00000000000E+00 0. -1.
         22    1    3    3    0    0  0.64472683147E+01  0.91898067521E+02  0.72844722452E+02  0.11744435138E+03  0.00000000000E+00 0. -1.
</event>
<event>
 7    1  0.6219721E-006  0.6872702E+02  0.7818608E-02  0.1448957E+00
          2   -1    0    0  502    0  0.00000000000E+00  0.00000000000E+00  0.44551972168E+03  0.44551972168E+03  0.00000000000E+00 0. -1.
          1   -1    0    0  501    0 -0.00000000000E+00 -0.00000000000E+00 -0.15136161736E+04  0.15136161736E+04  0.00000000000E+00 0. -1.
         25    2    1    2    0    0 -0.23020925421E+02 -0.10046288521E+03 -0.14218918328E+03  0.21555896883E+03  0.12500060356E+03 0.  0.
          2    1    1    2  501    0  0.11697335275E+02  0.66906070858E+02 -0.13331089162E+04  0.13348380547E+04  0.00000000000E+00 0. -1.
          1    1    1    2  502    0  0.11323590145E+02  0.33556814355E+02  0.40720164754E+03  0.40873887171E+03  0.00000000000E+00 0. -1.
         22    1    3    3    0    0  0.52029870247E+02 -0.41415136004E+02 -0.56849589028E+02  0.87488265846E+02  0.00000000000E+00 0. -1.
         22    1    3    3    0    0 -0.75050795668E+02 -0.59047749209E+02 -0.85339594247E+02  0.12807070299E+03  0.00000000000E+00 0. -1.
</event>
<event>
 7    1  0.6219721E-006  0.8899350E+02  0.7818608E-02  0.1409682E+00
          2   -1    0    0  502    0  0.00000000000E+00  0.00000000000E+00  0.89577745863E+03  0.89577745863E+03  0.00000000000E+00 0. -1.
          1   -1    0    0  501    0 -0.00000000000E+00 -0.00000000000E+00 -0.12684540886E+03  0.12684540886E+03  0.00000000000E+00 0. -1.
         25    2    1    2    0    0 -0.64365276694E+02 -0.23614572179E+01  0.79072388994E+01  0.14083271889E+03  0.12499145954E+03 0.  0.
          2    1    1    2  501    0 -0.19068377303E+02 -0.31530930612E+02 -0.52033594053E+02  0.63759685603E+02  0.00000000000E+00 0. -1.
          1    1    1    2  502    0  0.83433653997E+02  0.33892387829E+02  0.81305840493E+03  0.81803046300E+03  0.00000000000E+00 0. -1.
         22    1    3    3    0    0  0.28398168857E+00 -0.44390135269E+02 -0.31310978900E+02  0.54322574999E+02  0.00000000000E+00 0. -1.
         22    1    3    3    0    0 -0.64649258383E+02  0.42028678051E+02  0.39218217799E+02  0.86510143888E+02  0.00000000000E+00 0. -1.
</event>
<event>
 7    1  0.6219721E-006  0.7764681E+02  0.7818608E-02  0.1476118E+00
          2   -1    0    0  502    0  0.00000000000E+00  0.00000000000E+00  0.13201761140E+04  0.13201761140E+04  0.00000000000E+00 0. -1.
          1   -1    0    0  501    0 -0.00000000000E+00 -0.00000000000E+00 -0.36694776647E+03  0.36694776647E+03  0.00000000000E+00 0. -1.
         25    2    1    2    0    0  0.68066120324E+02  0.21377827336E+02  0.19321539166E+03  0.24093045890E+03  0.12500116085E+03 0.  0.
          2    1    1    2  501    0 -0.62437349608E+02 -0.46507527116E+02 -0.33852063681E+03  0.34735802028E+03  0.00000000000E+00 0. -1.
          1    1    1    2  502    0 -0.56287707155E+01  0.25129699780E+02  0.10985335927E+04  0.10988354013E+04  0.00000000000E+00 0. -1.
         22    1    3    3    0    0  0.29694868376E+02  0.54954424123E+02  0.28787530025E+02  0.68778600041E+02  0.00000000000E+00 0.  1.
         22    1    3    3    0    0  0.38371251947E+02 -0.33576596786E+02  0.16442786163E+03  0.17215185886E+03  0.00000000000E+00 0.  1.
</event>
<event>
 7    1  0.6219721E-006  0.1669339E+03  0.7818608E-02  0.1371022E+00
          2   -1    0    0  502    0  0.00000000000E+00  0.00000000000E+00  0.16574008219E+04  0.16574008219E+04  0.00000000000E+00 0. -1.
          1   -1    0    0  501    0 -0.00000000000E+00 -0.00000000000E+00 -0.46663915139E+03  0.46663915139E+03  0.00000000000E+00 0. -1.
         25    2    1    2    0    0  0.40188367656E+02  0.18162255095E+03 -0.52509939255E+02  0.23018189765E+03  0.12499822549E+03 0.  0.
          2    1    1    2  501    0  0.12366928871E+02 -0.23773505616E+02 -0.32032074832E+03  0.32143973355E+03  0.00000000000E+00 0. -1.
          1    1    1    2  502    0 -0.52555296527E+02 -0.15784904533E+03  0.15635923581E+04  0.15724183421E+04  0.00000000000E+00 0. -1.
         22    1    3    3    0    0  0.40909400835E+02  0.50961621887E+02 -0.72938045796E+02  0.97931733909E+02  0.00000000000E+00 0. -1.
         22    1    3    3    0    0 -0.72103317827E+00  0.13066092906E+03  0.20428106541E+02  0.13225016374E+03  0.00000000000E+00 0. -1.
</event>
<event>
 7    1  0.6219721E-006  0.8627512E+02  0.7818608E-02  0.1411133E+00
          2   -1    0    0  502    0  0.00000000000E+00  0.00000000000E+00  0.14512651333E+04  0.14512651333E+04  0.00000000000E+00 0. -1.
          1   -1    0    0  501    0 -0.00000000000E+00 -0.00000000000E+00 -0.80907833300E+03  0.80907833300E+03  0.00000000000E+00 0. -1.
         25    2    1    2    0    0 -0.60949468066E+02  0.20044556854E+02  0.63388603968E+01  0.14065547378E+03  0.12500863664E+03 0.  0.
          2    1    1    2  501    0  0.86928094087E+02  0.71121307448E+01 -0.73909907432E+03  0.74422746362E+03  0.00000000000E+00 0. -1.
          1    1    1    2  502    0 -0.25978626021E+02 -0.27156687599E+02  0.13749470142E+04  0.13754605289E+04  0.00000000000E+00 0. -1.
         22    1    3    3    0    0 -0.30965208617E+02  0.71898421160E+02  0.16223608492E+02  0.79946435709E+02  0.00000000000E+00 0. -1.
         22    1    3    3    0    0 -0.29984259449E+02 -0.51853864306E+02 -0.98847480950E+01  0.60709038068E+02  0.00000000000E+00 0. -1.
</event>
<event>
 7    1  0.6219721E-006  0.1818466E+03  0.7818608E-02  0.1249120E+00
          2   -1    0    0  502    0  0.00000000000E+00  0.00000000000E+00  0.15931082010E+04  0.15931082010E+04  0.00000000000E+00 0. -1.
          1   -1    0    0  501    0 -0.00000000000E+00 -0.00000000000E+00 -0.60185860918E+03  0.60185860918E+03  0.00000000000E+00 0. -1.
         25    2    1    2    0    0  0.14880982892E+03  0.21328032264E+02  0.13132910632E+04  0.13277640856E+04  0.12499920085E+03 0.  0.
          2    1    1    2  501    0 -0.17584695504E+03  0.48130332711E+02 -0.57514671470E+03  0.60335099565E+03  0.00000000000E+00 0. -1.
          1    1    1    2  502    0  0.27037126110E+02 -0.69458364975E+02  0.25310524333E+03  0.26385172892E+03  0.00000000000E+00 0. -1.
         22    1    3    3    0    0  0.11833735503E+03  0.40786686666E+02  0.12372479565E+04  0.12435633435E+04  0.00000000000E+00 0.  1.
         22    1    3    3    0    0  0.30472473896E+02 -0.19458654402E+02  0.76043106630E+02  0.84200742053E+02  0.00000000000E+00 0.  1.
</event>
<event>
 7    1  0.6219721E-006  0.1339651E+03  0.7818608E-02  0.1308833E+00
          2   -1    0    0  502    0  0.00000000000E+00  0.00000000000E+00  0.10112141690E+03  0.10112141690E+03  0.00000000000E+00 0. -1.
          1   -1    0    0  501    0 -0.00000000000E+00 -0.00000000000E+00 -0.74812967130E+03  0.74812967130E+03  0.00000000000E+00 0. -1.
         25    2    1    2    0    0 -0.75116357167E+02 -0.86624814267E+02 -0.11797837237E+03  0.20661645828E+03  0.12500055569E+03 0.  0.
          2    1    1    2  501    0 -0.55313050037E+02  0.14762689673E+02 -0.48355181805E+03  0.48692897968E+03  0.00000000000E+00 0. -1.
          1    1    1    2  502    0  0.13042940720E+03  0.71862124594E+02 -0.45478063978E+02  0.15570565024E+03  0.00000000000E+00 0. -1.
         22    1    3    3    0    0  0.21502102564E+02 -0.66536993235E+02 -0.60151594369E+02  0.92237336196E+02  0.00000000000E+00 0.  1.
         22    1    3    3    0    0 -0.96618459731E+02 -0.20087821033E+02 -0.57826778006E+02  0.11437912209E+03  0.00000000000E+00 0.  1.
</event>
<event>
 7    1  0.6219721E-006  0.2418391E+03  0.7818608E-02  0.1314292E+00
          2   -1    0    0  502    0  0.00000000000E+00  0.00000000000E+00  0.20910237055E+04  0.20910237055E+04  0.00000000000E+00 0. -1.
          1   -1    0    0  501    0 -0.00000000000E+00 -0.00000000000E+00 -0.16705112481E+03  0.16705112481E+03  0.00000000000E+00 0. -1.
         25    2    1    2    0    0 -0.21104897707E+03 -0.70873333449E+02  0.74794126578E+03  0.79032065364E+03  0.12500359357E+03 0.  0.
          2    1    1    2  501    0 -0.28430036615E+02 -0.10138301012E+02 -0.13205562803E+03  0.13546121594E+03  0.00000000000E+00 0. -1.
          1    1    1    2  502    0  0.23947901368E+03  0.81011634461E+02  0.13080869430E+04  0.13322929608E+04  0.00000000000E+00 0. -1.
         22    1    3    3    0    0 -0.19277184439E+03 -0.47212274062E+02  0.72754062972E+03  0.75412555368E+03  0.00000000000E+00 0. -1.
         22    1    3    3    0    0 -0.18277132672E+02 -0.23661059387E+02  0.20400636056E+02  0.36195099966E+02  0.00000000000E+00 0. -1.
</event>
<event>
 7    1  0.6219721E-006  0.9436533E+02  0.7818608E-02  0.1332969E+00
          2   -1    0    0  502    0  0.00000000000E+00  0.00000000000E+00  0.81821799486E+03  0.81821799486E+03  0.00000000000E+00 0. -1.
          1   -1    0    0  501    0 -0.00000000000E+00 -0.00000000000E+00 -0.63961965798E+03  0.63961965798E+03  0.00000000000E+00 0. -1.
         25    2    1    2    0    0  0.27006266840E+02  0.19068963597E+02 -0.10083086198E+03  0.16396646116E+03  0.12500069534E+03 0.  0.
          2    1    1    2  501    0  0.28316081874E+02  0.59093617816E+02 -0.50217022198E+03  0.50642747556E+03  0.00000000000E+00 0. -1.
          1    1    1    2  502    0 -0.55322348713E+02 -0.78162581412E+02  0.78159942084E+03  0.78744371613E+03  0.00000000000E+00 0. -1.
         22    1    3    3    0    0 -0.16235551215E+02  0.55594777796E+01 -0.11517527511E+03  0.11644674711E+03  0.00000000000E+00 0. -1.
         22    1    3    3    0    0  0.43241818054E+02  0.13509485817E+02  0.14344413125E+02  0.47519714052E+02  0.00000000000E+00 0. -1.
</event>
<event>
 7    1  0.6219721E-006  0.9765202E+02  0.7818608E-02  0.1399993E+00
          2   -1    0    0  502    0  0.00000000000E+00  0.00000000000E+00  0.50706136737E+03  0.50706136737E+03  0.00000000000E+00 0. -1.
          1   -1    0    0  501    0 -0.00000000000E+00 -0.00000000000E+00 -0.14140756859E+04  0.14140756859E+04  0.00000000000E+00 0. -1.
         25    2    1    2    0    0  0.55017915115E+02  0.34102844475E+02  0.30605411387E+02  0.14409826200E+03  0.12505056145E+03 0.  0.
          2    1    1    2  501    0 -0.73618302563E+02 -0.65204315214E+02 -0.13547613374E+04  0.13583260060E+04  0.00000000000E+00 0. -1.
          1    1    1    2  502    0  0.18600387448E+02  0.31101470739E+02  0.41714160747E+03  0.41871278531E+03  0.00000000000E+00 0. -1.
         22    1    3    3    0    0  0.41322412907E+02  0.88954110295E+01 -0.45896021212E+02  0.62394830787E+02  0.00000000000E+00 0. -1.
         22    1    3    3    0    0  0.13695502208E+02  0.25207433446E+02  0.76501432599E+02  0.81703431209E+02  0.00000000000E+00 0. -1.
</event>
<event>
 7    1  0.6219721E-006  0.1363826E+03  0.7818608E-02  0.1257874E+00
          2   -1    0    0  502    0  0.00000000000E+00  0.00000000000E+00  0.18261917777E+04  0.18261917777E+04  0.00000000000E+00 0. -1.
          1   -1    0    0  501    0 -0.00000000000E+00 -0.00000000000E+00 -0.66485917026E+03  0.66485917026E+03  0.00000000000E+00 0. -1.
         25    2    1    2    0    0 -0.63565652842E+02  0.10689686533E+03  0.15454098804E+03  0.23447163923E+03  0.12500600218E+03 0.  0.
          2    1    1    2  501    0  0.85800157207E+02  0.30636376125E+02 -0.61857729097E+03  0.62525044536E+03  0.00000000000E+00 0. -1.
          1    1    1    2  502    0 -0.22234504365E+02 -0.13753324145E+03  0.16253689104E+04  0.16313288634E+04  0.00000000000E+00 0. -1.
         22    1    3    3    0    0 -0.34408537546E+02  0.97970269710E+02  0.17082105494E+03  0.19990486240E+03  0.00000000000E+00 0. -1.
         22    1    3    3    0    0 -0.29157115296E+02  0.89265956176E+01 -0.16280066902E+02  0.34566776825E+02  0.00000000000E+00 0. -1.
</event>
<event>
 7    1  0.6219721E-006  0.1752106E+03  0.7818608E-02  0.1280445E+00
          2   -1    0    0  502    0  0.00000000000E+00  0.00000000000E+00  0.93245731013E+03  0.93245731013E+03  0.00000000000E+00 0. -1.
          1   -1    0    0  501    0 -0.00000000000E+00 -0.00000000000E+00 -0.14566135177E+04  0.14566135177E+04  0.00000000000E+00 0. -1.
         25    2    1    2    0    0 -0.95585254413E+02 -0.15922264273E+03 -0.87068778691E+03  0.89900481853E+03  0.12499620253E+03 0.  0.
          2    1    1    2  501    0  0.55840706313E+02 -0.11404782436E+02 -0.56195667662E+03  0.56483941075E+03  0.00000000000E+00 0. -1.
          1    1    1    2  502    0  0.39744548100E+02  0.17062742516E+03  0.90848825599E+03  0.92522659852E+03  0.00000000000E+00 0. -1.
         22    1    3    3    0    0  0.25893144988E+02 -0.10257539415E+02 -0.17701826595E+03  0.17919581065E+03  0.00000000000E+00 0.  1.
         22    1    3    3    0    0 -0.12147839940E+03 -0.14896510331E+03 -0.69366952096E+03  0.71980900788E+03  0.00000000000E+00 0.  1.
</event>
<event>
 7    1  0.6219721E-006  0.7391958E+02  0.7818608E-02  0.1501331E+00
          2   -1    0    0  502    0  0.00000000000E+00  0.00000000000E+00  0.91941986684E+03  0.91941986684E+03  0.00000000000E+00 0. -1.
          1   -1    0    0  501    0 -0.00000000000E+00 -0.00000000000E+00 -0.67366427191E+02  0.67366427191E+02  0.00000000000E+00 0. -1.
         25    2    1    2    0    0 -0.32367591823E+02  0.44047590798E+02  0.18849221788E+03  0.23268419247E+03  0.12499906386E+03 0.  0.
          2    1    1    2  501    0  0.41362858696E+02 -0.64874025680E+02 -0.12252299047E+02  0.77907920775E+02  0.00000000000E+00 0. -1.
          1    1    1    2  502    0 -0.89952668732E+01  0.20826434883E+02  0.67581352081E+03  0.67619418079E+03  0.00000000000E+00 0. -1.
         22    1    3    3    0    0  0.24511871009E+02  0.29066831650E+01  0.15118700427E+03  0.15318874269E+03  0.00000000000E+00 0. -1.
         22    1    3    3    0    0 -0.56879462832E+02  0.41140907633E+02  0.37305213617E+02  0.79495449782E+02  0.00000000000E+00 0. -1.
</event>
<event>
 7    1  0.6219721E-006  0.2865102E+03  0.7818608E-02  0.1331093E+00
          2   -1    0    0  502    0  0.00000000000E+00  0.00000000000E+00  0.19522715502E+04  0.19522715502E+04  0.00000000000E+00 0. -1.
          1   -1    0    0  501    0 -0.00000000000E+00 -0.00000000000E+00 -0.10852777254E+04  0.10852777254E+04  0.00000000000E+00 0. -1.
         25    2    1    2    0    0 -0.26825738104E+03  0.37995033575E+02 -0.17736725902E+03  0.34709946257E+03  0.12495298030E+03 0.  0.
          2    1    1    2  501    0 -0.17816961449E+02 -0.12803539494E+02 -0.81185414205E+03  0.81215055421E+03  0.00000000000E+00 0. -1.
          1    1    1    2  502    0  0.28607434249E+03 -0.25191494081E+02  0.18562152259E+04  0.18782992588E+04  0.00000000000E+00 0. -1.
         22    1    3    3    0    0 -0.53623166134E+02  0.39560696372E+02  0.30483669067E+01  0.66706710191E+02  0.00000000000E+00 0.  1.
         22    1    3    3    0    0 -0.21463421491E+03 -0.15656627970E+01 -0.18041562593E+03  0.28039275238E+03  0.00000000000E+00 0.  1.
</event>
<event>
 7    1  0.6219721E-006  0.2724829E+03  0.7818608E-02  0.1142440E+00
          2   -1    0    0  502    0  0.00000000000E+00  0.00000000000E+00  0.33391835010E+04  0.33391835010E+04  0.00000000000E+00 0. -1.
          1   -1    0    0  501    0 -0.00000000000E+00 -0.00000000000E+00 -0.12327093599E+04  0.12327093599E+04  0.00000000000E+00 0. -1.
         25    2    1    2    0    0  0.28260875735E+03  0.10722615314E+03  0.29848349214E+03  0.44281180228E+03  0.12499895806E+03 0.  0.
          2    1    1    2  501    0 -0.11640007949E+03  0.11000034771E+03 -0.11486774893E+04  0.11597883554E+04  0.00000000000E+00 0. -1.
          1    1    1    2  502    0 -0.16620867785E+03 -0.21722650085E+03  0.29566681383E+04  0.29692927032E+04  0.00000000000E+00 0. -1.
         22    1    3    3    0    0  0.27786311558E+01  0.31490325945E+02  0.58397233463E+02  0.66404806267E+02  0.00000000000E+00 0.  1.
         22    1    3    3    0    0  0.27983012619E+03  0.75735827192E+02  0.24008625868E+03  0.37640699601E+03  0.00000000000E+00 0.  1.
</event>
<event>
 7    1  0.6219721E-006  0.3643820E+02  0.7818608E-02  0.1550906E+00
          2   -1    0    0  502    0  0.00000000000E+00  0.00000000000E+00  0.21831952014E+04  0.21831952014E+04  0.00000000000E+00 0. -1.
          1   -1    0    0  501    0 -0.00000000000E+00 -0.00000000000E+00 -0.58183634898E+02  0.58183634898E+02  0.00000000000E+00 0. -1.
         25    2    1    2    0    0  0.45224579355E+02  0.10573478756E+02  0.33472280596E+03  0.36030732852E+03  0.12499981252E+03 0.  0.
          2    1    1    2  501    0 -0.19193195436E+02 -0.31057352351E+02 -0.37875634609E+02  0.52607048797E+02  0.00000000000E+00 0. -1.
          1    1    1    2  502    0 -0.26031383919E+02  0.20483873595E+02  0.18281643951E+04  0.18284644589E+04  0.00000000000E+00 0. -1.
         22    1    3    3    0    0 -0.23828989756E+02  0.47391528231E+02  0.16709468796E+03  0.17531232828E+03  0.00000000000E+00 0. -1.
         22    1    3    3    0    0  0.69053569112E+02 -0.36818049475E+02  0.16762811799E+03  0.18499500025E+03  0.00000000000E+00 0. -1.
</event>
<event>
 7    1  0.6219721E-006  0.1300657E+03  0.7818608E-02  0.1280404E+00
          2   -1    0    0  502    0  0.00000000000E+00  0.00000000000E+00  0.26722801525E+03  0.26722801525E+03  0.00000000000E+00 0. -1.
          1   -1    0    0  501    0 -0.00000000000E+00 -0.00000000000E+00 -0.44497166102E+03  0.44497166102E+03  0.00000000000E+00 0. -1.
         25    2    1    2    0    0  0.31593205277E+02  0.11866995836E+03  0.34732954478E+02  0.17863995962E+03  0.12500066963E+03 0.  0.
          2    1    1    2  501    0 -0.10130486027E+03 -0.86431419427E+02 -0.35086551550E+03  0.37528612410E+03  0.00000000000E+00 0. -1.
          1    1    1    2  502    0  0.69711654994E+02 -0.32238538932E+02  0.13838891525E+03  0.15827359255E+03  0.00000000000E+00 0. -1.
         22    1    3    3    0    0  0.32826544889E+02  0.14505021939E+03  0.31678376528E+02  0.15205481818E+03  0.00000000000E+00 0. -1.
         22    1    3    3    0    0 -0.12333396116E+01 -0.26380261028E+02  0.30545779506E+01  0.26585141432E+02  0.00000000000E+00 0. -1.
</event>
<event>
 7    1  0.6219721E-006  0.6452381E+02  0.7818608E-02  0.1511003E+00
          2   -1    0    0  502    0  0.00000000000E+00  0.00000000000E+00  0.25166178196E+03  0.25166178196E+03  0.00000000000E+00 0. -1.
          1   -1    0    0  501    0 -0.00000000000E+00 -0.00000000000E+00 -0.17120064722E+04  0.17120064722E+04  0.00000000000E+00 0. -1.
         25    2    1    2    0    0 -0.30120371000E+01 -0.42612348165E+02 -0.49609091486E+03  0.51337802466E+03  0.12500366318E+03 0.  0.
          2    1    1    2  501    0  0.11241672174E+02 -0.21579401065E+02 -0.12028381454E+04  0.12030842239E+04  0.00000000000E+00 0. -1.
          1    1    1    2  502    0 -0.82296350745E+01  0.64191749230E+02  0.23858437005E+03  0.24720600558E+03  0.00000000000E+00 0. -1.
         22    1    3    3    0    0 -0.27828671276E+02  0.28702310521E+02 -0.69688193055E+02  0.80341158975E+02  0.00000000000E+00 0.  1.
         22    1    3    3    0    0  0.24816634176E+02 -0.71314658686E+02 -0.42640272181E+03  0.43303686568E+03  0.00000000000E+00 0.  1.
</event>
<event>
 7    1  0.6219721E-006  0.4831897E+02  0.7818608E-02  0.1464524E+00
          2   -1    0    0  502    0  0.00000000000E+00  0.00000000000E+00  0.28004320479E+04  0.28004320479E+04  0.00000000000E+00 0. -1.
          1   -1    0    0  501    0 -0.00000000000E+00 -0.00000000000E+00 -0.47926780034E+03  0.47926780034E+03  0.00000000000E+00 0. -1.
         25    2    1    2    0    0  0.32128772275E+02 -0.11805096428E+02  0.37969181351E+02  0.13504907587E+03  0.12499990341E+03 0.  0.
          2    1    1    2  501    0 -0.26492364810E+02 -0.36331342104E+02 -0.42933731008E+03  0.43168546146E+03  0.00000000000E+00 0. -1.
          1    1    1    2  502    0 -0.56364074643E+01  0.48136438532E+02  0.27125323763E+04  0.27129653109E+04  0.00000000000E+00 0. -1.
         22    1    3    3    0    0 -0.44093984727E+02 -0.63806070033E+00 -0.87426362913E+01  0.44956871554E+02  0.00000000000E+00 0. -1.
         22    1    3    3    0    0  0.76222757002E+02 -0.11167035727E+02  0.46711817643E+02  0.90092204321E+02  0.00000000000E+00 0. -1.
</event>
<event>
 7    1  0.6219721E-006  0.8360957E+02  0.7818608E-02  0.1329384E+00
          2   -1    0    0  502    0  0.00000000000E+00  0.00000000000E+00  0.23103424516E+04  0.23103424516E+04  0.00000000000E+00 0. -1.
          1   -1    0    0  501    0 -0.00000000000E+00 -0.00000000000E+00 -0.17345464683E+03  0.17345464683E+03  0.00000000000E+00 0. -1.
         25    2    1    2    0    0 -0.91340394145E+02  0.90037256287E+02  0.21264314356E+03  0.27801482412E+03  0.12500144321E+03 0.  0.
          2    1    1    2  501    0  0.75850926281E+02 -0.84674344178E+01 -0.12952291710E+03  0.15033710958E+03  0.00000000000E+00 0. -1.
          1    1    1    2  502    0  0.15489467863E+02 -0.81569821869E+02  0.20537675783E+04  0.20554451647E+04  0.00000000000E+00 0. -1.
         22    1    3    3    0    0 -0.11176029603E+03  0.56274379134E+02  0.10492919458E+03  0.16330127186E+03  0.00000000000E+00 0. -1.
         22    1    3    3    0    0  0.20419901886E+02  0.33762877153E+02  0.10771394899E+03  0.11471355226E+03  0.00000000000E+00 0. -1.
</event>
<event>
 7    1  0.6219721E-006  0.4266073E+02  0.7818608E-02  0.1521682E+00
          2   -1    0    0  502    0  0.00000000000E+00  0.00000000000E+00  0.65089042650E+03  0.65089042650E+03  0.00000000000E+00 0. -1.
          1   -1    0    0  501    0 -0.00000000000E+00 -0.00000000000E+00 -0.48712262662E+03  0.48712262662E+03  0.00000000000E+00 0. -1.
         25    2    1    2    0    0 -0.56652346341E+01  0.20359340545E+02  0.30313476704E+03  0.32859089208E+03  0.12503875295E+03 0.  0.
          2    1    1    2  501    0  0.39641198510E+02 -0.16008834038E+02 -0.47255155044E+03  0.47448148037E+03  0.00000000000E+00 0. -1.
          1    1    1    2  502    0 -0.33975963876E+02 -0.43505065063E+01  0.33318458328E+03  0.33494068067E+03  0.00000000000E+00 0. -1.
         22    1    3    3    0    0 -0.20416343588E+02 -0.33551838219E+02  0.29014125095E+02  0.48830035719E+02  0.00000000000E+00 0.  1.
         22    1    3    3    0    0  0.14751108954E+02  0.53911178763E+02  0.27412064194E+03  0.27976085636E+03  0.00000000000E+00 0.  1.
</event>
<event>
 7    1  0.6219721E-006  0.8563090E+02  0.7818608E-02  0.1444619E+00
          2   -1    0    0  502    0  0.00000000000E+00  0.00000000000E+00  0.15062375940E+04  0.15062375940E+04  0.00000000000E+00 0. -1.
          1   -1    0    0  501    0 -0.00000000000E+00 -0.00000000000E+00 -0.12003811539E+04  0.12003811539E+04  0.00000000000E+00 0. -1.
         25    2    1    2    0    0  0.59871790747E+02 -0.20888761630E+02  0.28124469027E+03  0.31423675269E+03  0.12500075697E+03 0.  0.
          2    1    1    2  501    0  0.14970037083E+02 -0.25247643807E+02 -0.11821036372E+04  0.11824679931E+04  0.00000000000E+00 0. -1.
          1    1    1    2  502    0 -0.74841827829E+02  0.46136405436E+02  0.12067153871E+04  0.12099140021E+04  0.00000000000E+00 0. -1.
         22    1    3    3    0    0  0.88195486501E+02  0.15243048515E+02  0.22142628081E+03  0.23883130490E+03  0.00000000000E+00 0. -1.
         22    1    3    3    0    0 -0.28323695755E+02 -0.36131810144E+02  0.59818409464E+02  0.75405447789E+02  0.00000000000E+00 0. -1.
</event>
<event>
 7    1  0.6219721E-006  0.7404871E+02  0.7818608E-02  0.1384361E+00
          2   -1    0    0  502    0  0.00000000000E+00  0.00000000000E+00  0.40012031635E+02  0.40012031635E+02  0.00000000000E+00 0. -1.
          1   -1    0    0  501    0 -0.00000000000E+00 -0.00000000000E+00 -0.24204285363E+04  0.24204285363E+04  0.00000000000E+00 0. -1.
         25    2    1    2    0    0  0.82628250260E+02  0.49243756051E+02 -0.86705278712E+03  0.88128163944E+03  0.12499766840E+03 0.  0.
          2    1    1    2  501    0 -0.72967361560E+02  0.40526562525E+01 -0.15224793662E+04  0.15242322921E+04  0.00000000000E+00 0. -1.
          1    1    1    2  502    0 -0.96608886996E+01 -0.53296412303E+02  0.91156486333E+01  0.54926636388E+02  0.00000000000E+00 0. -1.
         22    1    3    3    0    0  0.71146182905E+02  0.87998322985E+02 -0.71723675599E+03  0.72610884056E+03  0.00000000000E+00 0. -1.
         22    1    3    3    0    0  0.11482067355E+02 -0.38754566934E+02 -0.14981603113E+03  0.15517279888E+03  0.00000000000E+00 0. -1.
</event>
<event>
 7    1  0.6219721E-006  0.1016221E+03  0.7818608E-02  0.1371655E+00
          2   -1    0    0  502    0  0.00000000000E+00  0.00000000000E+00  0.43114191334E+03  0.43114191334E+03  0.00000000000E+00 0. -1.
          1   -1    0    0  501    0 -0.00000000000E+00 -0.00000000000E+00 -0.97637968957E+03  0.97637968957E+03  0.00000000000E+00 0. -1.
         25    2    1    2    0    0  0.43554754188E+02 -0.69801786422E+02  0.65466793584E+02  0.16333958681E+03  0.12499845421E+03 0.  0.
          2    1    1    2  501    0 -0.85270299922E+02  0.56480746311E+02 -0.92309156804E+03  0.92874062135E+03  0.00000000000E+00 0. -1.
          1    1    1    2  502    0  0.41715545734E+02  0.13321040112E+02  0.31238699823E+03  0.31544139476E+03  0.00000000000E+00 0. -1.
         22    1    3    3    0    0  0.62091195639E+02 -0.37240393786E+02 -0.15571976871E+02  0.74058422673E+02  0.00000000000E+00 0. -1.
         22    1    3    3    0    0 -0.18536441451E+02 -0.32561392637E+02  0.81038770455E+02  0.89281164133E+02  0.00000000000E+00 0. -1.
</event>
<event>
 7    1  0.6219721E-006  0.2277645E+03  0.7818608E-02  0.1237429E+00
          2   -1    0    0  502    0  0.00000000000E+00  0.00000000000E+00  0.56248870114E+03  0.56248870114E+03  0.00000000000E+00 0. -1.
          1   -1    0    0  501    0 -0.00000000000E+00 -0.00000000000E+00 -0.15584886287E+04  0.15584886287E+04  0.00000000000E+00 0. -1.
         25    2    1    2    0    0  0.10614322980E+03  0.22256833156E+03 -0.52226897360E+03  0.59092460668E+03  0.12499585014E+03 0.  0.
          2    1    1    2  501    0 -0.66953850536E+02  0.13443972598E+01 -0.97623270107E+03  0.97852690926E+03  0.00000000000E+00 0. -1.
          1    1    1    2  502    0 -0.39189379265E+02 -0.22391272882E+03  0.50250174710E+03  0.55152581391E+03  0.00000000000E+00 0. -1.
         22    1    3    3    0    0 -0.32185781777E+01  0.12532608758E+03 -0.18731398540E+03  0.22539635445E+03  0.00000000000E+00 0. -1.
         22    1    3    3    0    0  0.10936180798E+03  0.97242243976E+02 -0.33495498820E+03  0.36552825223E+03  0.00000000000E+00 0. -1.
</event>
<event>
 7    1  0.6219721E-006  0.8304928E+02  0.7818608E-02  0.1457319E+00
          2   -1    0    0  502    0  0.00000000000E+00  0.00000000000E+00  0.65696282296E+03  0.65696282296E+03  0.00000000000E+00 0. -1.
          1   -1    0    0  501    0 -0.00000000000E+00 -0.00000000000E+00 -0.13369765899E+04  0.13369765899E+04  0.00000000000E+00 0. -1.
         25    2    1    2    0    0  0.64948052207E+02 -0.72053639918E+02 -0.10514928978E+04  0.10633320103E+04  0.12501069382E+03 0.  0.
          2    1    1    2  501    0 -0.39991476247E+02  0.60349739412E+02 -0.27457819241E+03  0.28396230906E+03  0.00000000000E+00 0. -1.
          1    1    1    2  502    0 -0.24956575960E+02  0.11703900506E+02  0.64605732326E+03  0.64664509347E+03  0.00000000000E+00 0. -1.
         22    1    3    3    0    0  0.14015329277E+02 -0.90267927540E+02 -0.43600336919E+03  0.44547016302E+03  0.00000000000E+00 0. -1.
         22    1    3    3    0    0  0.50932722929E+02  0.18214287623E+02 -0.61548952858E+03  0.61786184728E+03  0.00000000000E+00 0. -1.
</event>
<event>
 7    1  0.6219721E-006  0.8991205E+02  0.7818608E-02  0.1415024E+00
          2   -1    0    0  502    0  0.00000000000E+00  0.00000000000E+00  0.11123108705E+03  0.11123108705E+03  0.00000000000E+00 0. -1.
          1   -1    0    0  501    0 -0.00000000000E+00 -0.00000000000E+00 -0.16153525846E+04  0.16153525846E+04  0.00000000000E+00 0. -1.
         25    2    1    2    0    0  0.58105221282E+02 -0.29721467642E+02 -0.84749566006E+02  0.16452095304E+03  0.12500029069E+03 0.  0.
          2    1    1    2  501    0  0.17859393790E+02 -0.30086567580E+02 -0.14576559152E+04  0.14580757616E+04  0.00000000000E+00 0. -1.
          1    1    1    2  502    0 -0.75964615072E+02  0.59808035222E+02  0.38283983648E+02  0.10398695699E+03  0.00000000000E+00 0. -1.
         22    1    3    3    0    0  0.22674733285E+02  0.14124690898E+02  0.27854572289E+02  0.38594398815E+02  0.00000000000E+00 0.  1.
         22    1    3    3    0    0  0.35430487997E+02 -0.43846158540E+02 -0.11260413829E+03  0.12592655423E+03  0.00000000000E+00 0.  1.
</event>
<event>
 7    1  0.6219721E-006  0.1620617E+03  0.7818608E-02  0.1230563E+00
          2   -1    0    0  502    0  0.00000000000E+00  0.00000000000E+00  0.24564853486E+03  0.24564853486E+03  0.00000000000E+00 0. -1.
          1   -1    0    0  501    0 -0.00000000000E+00 -0.00000000000E+00 -0.25948773311E+04  0.25948773311E+04  0.00000000000E+00 0. -1.
         25    2    1    2    0    0 -0.15681358697E+03 -0.47868700924E+02 -0.16291380432E+03  0.26277006650E+03  0.12500114648E+03 0.  0.
          2    1    1    2  501    0  0.55851479624E+02 -0.84133138894E+02 -0.23454748663E+04  0.23476477847E+04  0.00000000000E+00 0. -1.
          1    1    1    2  502    0  0.10096210735E+03  0.13200183982E+03  0.15915987435E+03  0.23010801472E+03  0.00000000000E+00 0. -1.
         22    1    3    3    0    0 -0.14146184597E+03 -0.81239570037E+02 -0.10438282474E+03  0.19366748748E+03  0.00000000000E+00 0.  1.
         22    1    3    3    0    0 -0.15351741008E+02  0.33370869113E+02 -0.58530979574E+02  0.69102579020E+02  0.00000000000E+00 0.  1.
</event>
<event>
 7    1  0.6219721E-006  0.6222127E+02  0.7818608E-02  0.1391940E+00
          2   -1    0    0  502    0  0.00000000000E+00  0.00000000000E+00  0.44295405444E+04  0.44295405444E+04  0.00000000000E+00 0. -1.
          1   -1    0    0  501    0 -0.00000000000E+00 -0.00000000000E+00 -0.17597683230E+03  0.17597683230E+03  0.00000000000E+00 0. -1.
         25    2    1    2    0    0  0.64508447497E+02  0.31960518481E+02  0.80498479577E+03  0.81780679390E+03  0.12499846469E+03 0.  0.
          2    1    1    2  501    0 -0.52752161524E+02  0.29911225930E+02 -0.16386067891E+03  0.17472204805E+03  0.00000000000E+00 0. -1.
          1    1    1    2  502    0 -0.11756285972E+02 -0.61871744411E+02  0.36124395953E+04  0.36129885348E+04  0.00000000000E+00 0. -1.
         22    1    3    3    0    0  0.19344835964E+02 -0.25261243733E+02  0.49700052234E+02  0.59012272499E+02  0.00000000000E+00 0.  1.
         22    1    3    3    0    0  0.45163611533E+02  0.57221762214E+02  0.75528474354E+03  0.75879452140E+03  0.00000000000E+00 0.  1.
</event>
<event>
 7    1  0.6219721E-006  0.2037564E+03  0.7818608E-02  0.1262239E+00
          2   -1    0    0  502    0  0.00000000000E+00  0.00000000000E+00  0.72419146738E+03  0.72419146738E+03  0.00000000000E+00 0. -1.
          1   -1    0    0  501    0 -0.00000000000E+00 -0.00000000000E+00 -0.18866781691E+04  0.18866781691E+04  0.00000000000E+00 0. -1.
         25    2    1    2    0    0 -0.17161701937E+02  0.23343219368E+03  0.41137221135E+03  0.48951222536E+03  0.12494002343E+03 0.  0.
          2    1    1    2  501    0 -0.17667572450E+02 -0.55685314001E+02 -0.18171264155E+04  0.18180652923E+04  0.00000000000E+00 0. -1.
          1    1    1    2  502    0  0.34829274388E+02 -0.17774687968E+03  0.24326750242E+03  0.30329211880E+03  0.00000000000E+00 0. -1.
         22    1    3    3    0    0 -0.68758342601E+02  0.14999811585E+03  0.28766275608E+03  0.33162781197E+03  0.00000000000E+00 0.  1.
         22    1    3    3    0    0  0.51596640664E+02  0.83434077829E+02  0.12370945526E+03  0.15788441339E+03  0.00000000000E+00 0.  1.
</event>
<event>
 7    1  0.6219721E-006  0.9794280E+02  0.7818608E-02  0.1347208E+00
          2   -1    0    0  502    0  0.00000000000E+00  0.00000000000E+00  0.76748401589E+03  0.76748401589E+03  0.00000000000E+00 0. -1.
          1   -1    0    0  501    0 -0.00000000000E+00 -0.00000000000E+00 -0.10775220293E+03  0.10775220293E+03  0.00000000000E+00 0. -1.
         25    2    1    2    0    0  0.54415466748E+02 -0.52951280343E+02  0.45395996587E+03  0.47693874050E+03  0.12500412181E+03 0.  0.
          2    1    1    2  501    0 -0.98206754904E+02  0.18354362544E+02 -0.66727692427E+02  0.12014172577E+03  0.00000000000E+00 0. -1.
          1    1    1    2  502    0  0.43791288156E+02  0.34596917798E+02  0.27249953952E+03  0.27815575255E+03  0.00000000000E+00 0. -1.
         22    1    3    3    0    0 -0.21175387168E+02 -0.30497235813E+02  0.31486439461E+03  0.31704584117E+03  0.00000000000E+00 0.  1.
         22    1    3    3    0    0  0.75590853916E+02 -0.22454044530E+02  0.13909557126E+03  0.15989289933E+03  0.00000000000E+00 0.  1.
</event>
<event>
 7    1  0.6219721E-006  0.1175324E+03  0.7818608E-02  0.1273515E+00
          2   -1    0    0  502    0  0.00000000000E+00  0.00000000000E+00  0.19949636433E+04  0.19949636433E+04  0.00000000000E+00 0. -1.
          1   -1    0    0  501    0 -0.00000000000E+00 -0.00000000000E+00 -0.68975244629E+03  0.68975244629E+03  0.00000000000E+00 0. -1.
         25    2    1    2    0    0 -0.15636313435E+03 -0.83525900151E+02  0.19894949282E+03  0.29433291888E+03  0.12499984266E+03 0.  0.
          2    1    1    2  501    0  0.11663986377E+03  0.18947839358E+01 -0.63557013409E+03  0.64618715816E+03  0.00000000000E+00 0. -1.
          1    1    1    2  502    0  0.39723270578E+02  0.81631116215E+02  0.17418318383E+04  0.17441960126E+04  0.00000000000E+00 0. -1.
         22    1    3    3    0    0 -0.17599932426E+03 -0.68417224434E+02  0.15681546840E+03  0.24545421135E+03  0.00000000000E+00 0.  1.
         22    1    3    3    0    0  0.19636189915E+02 -0.15108675717E+02  0.42134024417E+02  0.48878707530E+02  0.00000000000E+00 0.  1.
</event>
<event>
 7    1  0.6219721E-006  0.4957881E+02  0.7818608E-02  0.1510959E+00
          2   -1    0    0  502    0  0.00000000000E+00  0.00000000000E+00  0.27693354739E+04  0.27693354739E+04  0.00000000000E+00 0. -1.
          1   -1    0    0  501    0 -0.00000000000E+00 -0.00000000000E+00 -0.23624655860E+02  0.23624655860E+02  0.00000000000E+00 0. -1.
         25    2    1    2    0    0 -0.34102251277E+02 -0.51617146009E+02  0.59264686476E+03  0.60883716680E+03  0.12500038425E+03 0.  0.
          2    1    1    2  501    0 -0.10330966647E+02  0.29944025328E+02  0.12078991492E+01  0.31699093757E+02  0.00000000000E+00 0. -1.
          1    1    1    2  502    0  0.44433217924E+02  0.21673120681E+02  0.21518560541E+04  0.21524238692E+04  0.00000000000E+00 0. -1.
         22    1    3    3    0    0 -0.10454973696E+02  0.12147978294E+02  0.45523032267E+03  0.45551237802E+03  0.00000000000E+00 0.  1.
         22    1    3    3    0    0 -0.23647277581E+02 -0.63765124303E+02  0.13741654209E+03  0.15332478878E+03  0.00000000000E+00 0.  1.
</event>
<event>
 7    1  0.6219721E-006  0.4808466E+02  0.7818608E-02  0.1469059E+00
          2   -1    0    0  502    0  0.00000000000E+00  0.00000000000E+00  0.16743414104E+04  0.16743414104E+04  0.00000000000E+00 0. -1.
          1   -1    0    0  501    0 -0.00000000000E+00 -0.00000000000E+00 -0.12996844139E+03  0.12996844139E+03  0.00000000000E+00 0. -1.
         25    2    1    2    0    0  0.56536664626E+02 -0.36373969788E+02  0.98219488910E+03  0.99239869666E+03  0.12501565033E+03 0.  0.
          2    1    1    2  501    0 -0.42849582848E+02 -0.87465098647E+01 -0.12019862662E+03  0.12790738066E+03  0.00000000000E+00 0. -1.
          1    1    1    2  502    0 -0.13687081778E+02  0.45120479652E+02  0.68237670657E+03  0.68400377452E+03  0.00000000000E+00 0. -1.
         22    1    3    3    0    0  0.28583018629E+02 -0.12797707121E+02  0.46933785199E+02  0.56422960349E+02  0.00000000000E+00 0.  1.
         22    1    3    3    0    0  0.27953645997E+02 -0.23576262666E+02  0.93526110390E+03  0.93597573631E+03  0.00000000000E+00 0.  1.
</event>
<event>
 7    1  0.6219721E-006  0.1250413E+03  0.7818608E-02  0.1272075E+00
          2   -1    0    0  502    0  0.00000000000E+00  0.00000000000E+00  0.98623781629E+03  0.98623781629E+03  0.00000000000E+00 0. -1.
          1   -1    0    0  501    0 -0.00000000000E+00 -0.00000000000E+00 -0.58573408281E+03  0.58573408281E+03  0.00000000000E+00 0. -1.
         25    2    1    2    0    0  0.67684995636E+02 -0.13820739496E+03  0.21451526549E+03  0.29210315555E+03  0.12499964679E+03 0.  0.
          2    1    1    2  501    0  0.40213329987E+02  0.76609813968E+02 -0.53819464860E+03  0.54510517818E+03  0.00000000000E+00 0. -1.
          1    1    1    2  502    0 -0.10789832562E+03  0.61597580990E+02  0.72418311658E+03  0.73476356537E+03  0.00000000000E+00 0. -1.
         22    1    3    3    0    0  0.36751192443E+02 -0.15724840736E+03  0.18244867085E+03  0.24364980866E+03  0.00000000000E+00 0.  1.
         22    1    3    3    0    0  0.30933803193E+02  0.19041012401E+02  0.32066594642E+02  0.48453346894E+02  0.00000000000E+00 0.  1.
</event>
<event>
 7    1  0.6219721E-006  0.8455785E+02  0.7818608E-02  0.1374417E+00
          2   -1    0    0  502    0  0.00000000000E+00  0.00000000000E+00  0.14747358127E+04  0.14747358127E+04  0.00000000000E+00 0. -1.
          1   -1    0    0  501    0 -0.00000000000E+00 -0.00000000000E+00 -0.34219590141E+03  0.34219590141E+03  0.00000000000E+00 0. -1.
         25    2    1    2    0    0 -0.96972679040E+02  0.25774598752E+02 -0.55568839034E+02  0.16965143829E+03  0.12500273686E+03 0.  0.
          2    1    1    2  501    0  0.58727482510E+02 -0.60180918209E+02 -0.22140138445E+03  0.23683165573E+03  0.00000000000E+00 0. -1.
          1    1    1    2  502    0  0.38245196530E+02  0.34406319457E+02  0.14095101348E+04  0.14104486201E+04  0.00000000000E+00 0. -1.
         22    1    3    3    0    0 -0.33646165944E+02 -0.27714459754E+02  0.28107885911E+02  0.51867224840E+02  0.00000000000E+00 0.  1.
         22    1    3    3    0    0 -0.63326513095E+02  0.53489058507E+02 -0.83676724945E+02  0.11778421345E+03  0.00000000000E+00 0.  1.
</event>
<event>
 7    1  0.6219721E-006  0.6857393E+02  0.7818608E-02  0.1478740E+00
          2   -1    0    0  502    0  0.00000000000E+00  0.00000000000E+00  0.29105352247E+03  0.29105352247E+03  0.00000000000E+00 0. -1.
          1   -1    0    0  501    0 -0.00000000000E+00 -0.00000000000E+00 -0.77618715332E+03  0.77618715332E+03  0.00000000000E+00 0. -1.
         25    2    1    2    0    0 -0.56914335334E+01  0.94647557410E+01  0.23190898689E+03  0.26368248176E+03  0.12499879588E+03 0.  0.
          2    1    1    2  501    0  0.41073774447E+02  0.54912011534E+02 -0.72628909557E+03  0.72951918021E+03  0.00000000000E+00 0. -1.
          1    1    1    2  502    0 -0.35382340914E+02 -0.64376767275E+02  0.92464778254E+01  0.74039013807E+02  0.00000000000E+00 0. -1.
         22    1    3    3    0    0  0.19047687534E+02  0.36010472692E+02  0.22249656225E+03  0.22619524477E+03  0.00000000000E+00 0. -1.
         22    1    3    3    0    0 -0.24739121067E+02 -0.26545716951E+02  0.94124246393E+01  0.37487236990E+02  0.00000000000E+00 0. -1.
</event>
<event>
 7    1  0.6219721E-006  0.6139324E+02  0.7818608E-02  0.1504260E+00
          2   -1    0    0  502    0  0.00000000000E+00  0.00000000000E+00  0.79654458117E+03  0.79654458117E+03  0.00000000000E+00 0. -1.
          1   -1    0    0  501    0 -0.00000000000E+00 -0.00000000000E+00 -0.38583305940E+02  0.38583305940E+02  0.00000000000E+00 0. -1.
         25    2    1    2    0    0  0.29949838297E+02 -0.22317026113E+02  0.51039981236E+03  0.52680994522E+03  0.12500282983E+03 0.  0.
          2    1    1    2  501    0 -0.43847839164E+02  0.45199691230E+02  0.37970649245E+01  0.63087738814E+02  0.00000000000E+00 0. -1.
          1    1    1    2  502    0  0.13898000867E+02 -0.22882665116E+02  0.24376439795E+03  0.24523020307E+03  0.00000000000E+00 0. -1.
         22    1    3    3    0    0 -0.41291897230E+02 -0.24921743727E+02  0.10993425383E+03  0.12004854957E+03  0.00000000000E+00 0.  1.
         22    1    3    3    0    0  0.71241735527E+02  0.26047176136E+01  0.40046555852E+03  0.40676139566E+03  0.00000000000E+00 0.  1.
</event>
<event>
 7    1  0.6219721E-006  0.7130857E+02  0.7818608E-02  0.1517754E+00
          2   -1    0    0  502    0  0.00000000000E+00  0.00000000000E+00  0.86999813837E+03  0.86999813837E+03  0.00000000000E+00 0. -1.
          1   -1    0    0  501    0 -0.00000000000E+00 -0.00000000000E+00 -0.92184592416E+02  0.92184592416E+02  0.00000000000E+00 0. -1.
         25    2    1    2    0    0  0.17752036125E+02 -0.63018152601E+02  0.38879585877E+03  0.41361283628E+03  0.12500774451E+03 0.  0.
          2    1    1    2  501    0 -0.18434642214E+02 -0.10136842658E+02 -0.75474511985E+02  0.78351729859E+02  0.00000000000E+00 0. -1.
          1    1    1    2  502    0  0.68260608857E+00  0.73154995259E+02  0.46449219916E+03  0.47021816465E+03  0.00000000000E+00 0. -1.
         22    1    3    3    0    0  0.42420429130E+02 -0.84592670436E+02  0.19141783279E+03  0.21353266590E+03  0.00000000000E+00 0.  1.
         22    1    3    3    0    0 -0.24668393005E+02  0.21574517834E+02  0.19737802599E+03  0.20008017037E+03  0.00000000000E+00 0.  1.
</event>
<event>
 7    1  0.6219721E-006  0.4739852E+02  0.7818608E-02  0.1479945E+00
          2   -1    0    0  502    0  0.00000000000E+00  0.00000000000E+00  0.48566897021E+03  0.48566897021E+03  0.00000000000E+00 0. -1.
          1   -1    0    0  501    0 -0.00000000000E+00 -0.00000000000E+00 -0.56544312096E+03  0.56544312096E+03  0.00000000000E+00 0. -1.
         25    2    1    2    0    0 -0.86419715822E+02  0.41932509742E+01  0.13601092157E+03  0.20398500901E+03  0.12499984992E+03 0.  0.
          2    1    1    2  501    0  0.40919496883E+02 -0.33745111613E+01 -0.52901635658E+03  0.53060729177E+03  0.00000000000E+00 0. -1.
          1    1    1    2  502    0  0.45500218939E+02 -0.81873981289E+00  0.31323128426E+03  0.31651979038E+03  0.00000000000E+00 0. -1.
         22    1    3    3    0    0 -0.20843277420E+02 -0.57974383885E+02  0.57828744276E+02  0.84496361253E+02  0.00000000000E+00 0. -1.
         22    1    3    3    0    0 -0.65576438402E+02  0.62167634859E+02  0.78182177291E+02  0.11948864776E+03  0.00000000000E+00 0. -1.
</event>
<event>
 7    1  0.6684681E-006  0.1094346E+03  0.7818608E-02  0.1305894E+00
          2   -1    0    0  502    0  0.00000000000E+00  0.00000000000E+00  0.19193574771E+04  0.19193574771E+04  0.00000000000E+00 0. -1.
          1   -1    0    0  501    0 -0.00000000000E+00 -0.00000000000E+00 -0.81012064063E+03  0.81012064063E+03  0.00000000000E+00 0. -1.
         25    2    1    2    0    0  0.69606048406E+02  0.77420482319E+01 -0.78260517266E+02  0.16325970390E+03  0.12499632422E+03 0.  0.
          2    1    1    2  501    0 -0.10000867195E+03  0.57506062868E+02 -0.68383723913E+03  0.69349985678E+03  0.00000000000E+00 0. -1.
          1    1    1    2  502    0  0.30402623542E+02 -0.65248111099E+02  0.18713345929E+04  0.18727185571E+04  0.00000000000E+00 0. -1.
         22    1    3    3    0    0  0.86434343608E+02 -0.41491623684E+01 -0.44733716186E+01  0.86649422139E+02  0.00000000000E+00 0.  1.
         22    1    3    3    0    0 -0.16828295202E+02  0.11891210600E+02 -0.73787145647E+02  0.76610281763E+02  0.00000000000E+00 0.  1.
</event>
<event>
 7    1  0.6219721E-006  0.8746396E+02  0.7818608E-02  0.1364544E+00
          2   -1    0    0  502    0  0.00000000000E+00  0.00000000000E+00  0.97874521870E+03  0.97874521870E+03  0.00000000000E+00 0. -1.
          1   -1    0    0  501    0 -0.00000000000E+00 -0.00000000000E+00 -0.73464273355E+03  0.73464273355E+03  0.00000000000E+00 0. -1.
         25    2    1    2    0    0  0.23600355622E+02 -0.31552000351E+02 -0.11269289005E+03  0.17284860452E+03  0.12499778840E+03 0.  0.
          2    1    1    2  501    0 -0.57708249816E+02  0.73382298154E+02 -0.58741530120E+03  0.59478730640E+03  0.00000000000E+00 0. -1.
          1    1    1    2  502    0  0.34107894194E+02 -0.41830297803E+02  0.94421067639E+03  0.94575204132E+03  0.00000000000E+00 0. -1.
         22    1    3    3    0    0  0.63136169734E+02 -0.38086674237E+02 -0.27489011905E+02  0.78691908470E+02  0.00000000000E+00 0.  1.
         22    1    3    3    0    0 -0.39535814112E+02  0.65346738857E+01 -0.85203878144E+02  0.94156696051E+02  0.00000000000E+00 0.  1.
</event>
<event>
 7    1  0.6219721E-006  0.6772924E+02  0.7818608E-02  0.1373398E+00
          2   -1    0    0  502    0  0.00000000000E+00  0.00000000000E+00  0.34321326383E+02  0.34321326383E+02  0.00000000000E+00 0. -1.
          1   -1    0    0  501    0 -0.00000000000E+00 -0.00000000000E+00 -0.17281911097E+04  0.17281911097E+04  0.00000000000E+00 0. -1.
         25    2    1    2    0    0 -0.11966700359E+03  0.33876319409E+02 -0.34255914869E+03  0.38527832594E+03  0.12499928528E+03 0.  0.
          2    1    1    2  501    0  0.54936274581E+02 -0.36035852758E+02 -0.12768825108E+04  0.12785716731E+04  0.00000000000E+00 0. -1.
          1    1    1    2  502    0  0.64730729006E+02  0.21595333493E+01 -0.74428123832E+02  0.98662437022E+02  0.00000000000E+00 0. -1.
         22    1    3    3    0    0 -0.24413488393E+02  0.31398232829E+02 -0.12425189326E+02  0.41668366540E+02  0.00000000000E+00 0.  1.
         22    1    3    3    0    0 -0.95253515193E+02  0.24780865800E+01 -0.33013395937E+03  0.34360995940E+03  0.00000000000E+00 0.  1.
</event>
<event>
 7    1  0.6219721E-006  0.5011430E+02  0.7818608E-02  0.1548152E+00
          2   -1    0    0  502    0  0.00000000000E+00  0.00000000000E+00  0.19292014026E+04  0.19292014026E+04  0.00000000000E+00 0. -1.
          1   -1    0    0  501    0 -0.00000000000E+00 -0.00000000000E+00 -0.11872330539E+03  0.11872330539E+03  0.00000000000E+00 0. -1.
         25    2    1    2    0    0  0.11630327277E+02  0.56386247726E+02  0.17283039468E+03  0.22093054780E+03  0.12500115272E+03 0.  0.
          2    1    1    2  501    0  0.11637715532E+02 -0.48667754001E+02 -0.87967897358E+02  0.10120443502E+03  0.00000000000E+00 0. -1.
          1    1    1    2  502    0 -0.23268042809E+02 -0.77184937242E+01  0.17256155999E+04  0.17257897251E+04  0.00000000000E+00 0. -1.
         22    1    3    3    0    0  0.57277345904E+02  0.46453579982E+02  0.48895992852E+02  0.88484165611E+02  0.00000000000E+00 0. -1.
         22    1    3    3    0    0 -0.45647018627E+02  0.99326677437E+01  0.12393440183E+03  0.13244638219E+03  0.00000000000E+00 0. -1.
</event>
<event>
 7    1  0.6219721E-006  0.1035383E+03  0.7818608E-02  0.1323864E+00
          2   -1    0    0  502    0  0.00000000000E+00  0.00000000000E+00  0.70592453812E+03  0.70592453812E+03  0.00000000000E+00 0. -1.
          1   -1    0    0  501    0 -0.00000000000E+00 -0.00000000000E+00 -0.74169164915E+03  0.74169164915E+03  0.00000000000E+00 0. -1.
         25    2    1    2    0    0 -0.17497490052E+02 -0.13359098710E+03 -0.36652267202E+02  0.18740582016E+03  0.12499935499E+03 0.  0.
          2    1    1    2  501    0 -0.41757519762E+02  0.49440172628E+02 -0.62377769983E+03  0.62712569708E+03  0.00000000000E+00 0. -1.
          1    1    1    2  502    0  0.59255009814E+02  0.84150814470E+02  0.62466285600E+03  0.63308467003E+03  0.00000000000E+00 0. -1.
         22    1    3    3    0    0 -0.24050484122E+02 -0.10276666159E+03 -0.80971105180E+02  0.13302530735E+03  0.00000000000E+00 0. -1.
         22    1    3    3    0    0  0.65529940707E+01 -0.30824325510E+02  0.44318837978E+02  0.54380512817E+02  0.00000000000E+00 0. -1.
</event>
<event>
 7    1  0.6219721E-006  0.1023278E+03  0.7818608E-02  0.1388093E+00
          2   -1    0    0  502    0  0.00000000000E+00  0.00000000000E+00  0.31705413016E+03  0.31705413016E+03  0.00000000000E+00 0. -1.
          1   -1    0    0  501    0 -0.00000000000E+00 -0.00000000000E+00 -0.16811825204E+03  0.16811825204E+03  0.00000000000E+00 0. -1.
         25    2    1    2    0    0  0.17760311281E+02  0.81244500368E+02  0.10641466705E+03  0.18402320776E+03  0.12499744851E+03 0.  0.
          2    1    1    2  501    0 -0.21724068308E+02  0.31216791518E+02 -0.10726139597E+03  0.11380435089E+03  0.00000000000E+00 0. -1.
          1    1    1    2  502    0  0.39637570264E+01 -0.11246129189E+03  0.14978260703E+03  0.18734482355E+03  0.00000000000E+00 0. -1.
         22    1    3    3    0    0 -0.35516152812E+02 -0.19589234439E+01 -0.40755218541E+01  0.35802854216E+02  0.00000000000E+00 0.  1.
         22    1    3    3    0    0  0.53276464093E+02  0.83203423812E+02  0.11049018891E+03  0.14822035355E+03  0.00000000000E+00 0.  1.
</event>
<event>
 7    1  0.6219721E-006  0.3074136E+02  0.7818608E-02  0.1594657E+00
          2   -1    0    0  502    0  0.00000000000E+00  0.00000000000E+00  0.61362677533E+03  0.61362677533E+03  0.00000000000E+00 0. -1.
          1   -1    0    0  501    0 -0.00000000000E+00 -0.00000000000E+00 -0.24220142877E+03  0.24220142877E+03  0.00000000000E+00 0. -1.
         25    2    1    2    0    0  0.87048626462E+01  0.47467782250E+02  0.31139811715E+02  0.13756043693E+03  0.12499688376E+03 0.  0.
          2    1    1    2  501    0 -0.22257408290E+02 -0.19950665207E+02 -0.18736108773E+03  0.18973033090E+03  0.00000000000E+00 0. -1.
          1    1    1    2  502    0  0.13552545644E+02 -0.27517117044E+02  0.52764662258E+03  0.52853743627E+03  0.00000000000E+00 0. -1.
         22    1    3    3    0    0  0.61018237538E+02  0.52253308752E+02  0.10079959627E+02  0.80964431536E+02  0.00000000000E+00 0.  1.
         22    1    3    3    0    0 -0.52313374892E+02 -0.47855265017E+01  0.21059852087E+02  0.56596005393E+02  0.00000000000E+00 0.  1.
</event>
<event>
 7    1  0.6219721E-006  0.3530892E+02  0.7818608E-02  0.1570427E+00
          2   -1    0    0  502    0  0.00000000000E+00  0.00000000000E+00  0.27995454207E+04  0.27995454207E+04  0.00000000000E+00 0. -1.
          1   -1    0    0  501    0 -0.00000000000E+00 -0.00000000000E+00 -0.17204102256E+03  0.17204102256E+03  0.00000000000E+00 0. -1.
         25    2    1    2    0    0  0.27075166645E+02 -0.28542214384E+02  0.25144559370E+04  0.25178684240E+04  0.12500007461E+03 0.  0.
          2    1    1    2  501    0 -0.35311387188E+02 -0.52162814776E+00 -0.16768526499E+03  0.17136369002E+03  0.00000000000E+00 0. -1.
          1    1    1    2  502    0  0.82362205429E+01  0.29063842532E+02  0.28073372615E+03  0.28235432929E+03  0.00000000000E+00 0. -1.
         22    1    3    3    0    0 -0.12664797727E+02 -0.58202766036E+02  0.20315663328E+04  0.20324393530E+04  0.00000000000E+00 0.  1.
         22    1    3    3    0    0  0.39739964372E+02  0.29660551652E+02  0.48288960423E+03  0.48542907099E+03  0.00000000000E+00 0.  1.
</event>
<event>
 7    1  0.6219721E-006  0.1561122E+03  0.7818608E-02  0.1269932E+00
          2   -1    0    0  502    0  0.00000000000E+00  0.00000000000E+00  0.19274673212E+04  0.19274673212E+04  0.00000000000E+00 0. -1.
          1   -1    0    0  501    0 -0.00000000000E+00 -0.00000000000E+00 -0.35190614318E+03  0.35190614318E+03  0.00000000000E+00 0. -1.
         25    2    1    2    0    0  0.12995625975E+03 -0.19685210109E+02 -0.63918382503E+01  0.18149982809E+03  0.12500078022E+03 0.  0.
          2    1    1    2  501    0  0.19969744657E+02  0.67873994290E+02 -0.24966597840E+03  0.25949714945E+03  0.00000000000E+00 0. -1.
          1    1    1    2  502    0 -0.14992600441E+03 -0.48188784182E+02  0.18316189946E+04  0.18383764868E+04  0.00000000000E+00 0. -1.
         22    1    3    3    0    0  0.69173751051E+02 -0.42820317349E+01  0.58915442192E+02  0.90963580398E+02  0.00000000000E+00 0. -1.
         22    1    3    3    0    0  0.60782508703E+02 -0.15403178374E+02 -0.65307280442E+02  0.90536247696E+02  0.00000000000E+00 0. -1.
</event>
<event>
 7    1  0.6219721E-006  0.9068710E+02  0.7818608E-02  0.1345617E+00
          2   -1    0    0  502    0  0.00000000000E+00  0.00000000000E+00  0.14264022927E+04  0.14264022927E+04  0.00000000000E+00 0. -1.
          1   -1    0    0  501    0 -0.00000000000E+00 -0.00000000000E+00 -0.11383199078E+04  0.11383199078E+04  0.00000000000E+00 0. -1.
         25    2    1    2    0    0  0.12610598635E+03 -0.38700562928E+02  0.26524554907E+03  0.32153027631E+03  0.12500425559E+03 0.  0.
          2    1    1    2  501    0 -0.68516732110E+02  0.59120393365E+02 -0.11075067858E+04  0.11111980219E+04  0.00000000000E+00 0. -1.
          1    1    1    2  502    0 -0.57589254242E+02 -0.20419830437E+02  0.11303436216E+04  0.11319939022E+04  0.00000000000E+00 0. -1.
         22    1    3    3    0    0  0.10141358260E+03 -0.20850499818E+00  0.75714354820E+02  0.12655995312E+03  0.00000000000E+00 0.  1.
         22    1    3    3    0    0  0.24692403757E+02 -0.38492057930E+02  0.18953119425E+03  0.19497032318E+03  0.00000000000E+00 0.  1.
</event>
<event>
 7    1  0.6219721E-006  0.6438513E+02  0.7818608E-02  0.1482568E+00
          2   -1    0    0  502    0  0.00000000000E+00  0.00000000000E+00  0.79340791426E+03  0.79340791426E+03  0.00000000000E+00 0. -1.
          1   -1    0    0  501    0 -0.00000000000E+00 -0.00000000000E+00 -0.35099016731E+02  0.35099016731E+02  0.00000000000E+00 0. -1.
         25    2    1    2    0    0  0.39106730341E+02 -0.10180935152E+02  0.25847234035E+03  0.28994073174E+03  0.12499875758E+03 0.  0.
          2    1    1    2  501    0 -0.68080818069E+02  0.16579703323E+02  0.46133485281E+02  0.83893878295E+02  0.00000000000E+00 0. -1.
          1    1    1    2  502    0  0.28974087728E+02 -0.63987681706E+01  0.45370307190E+03  0.45467232096E+03  0.00000000000E+00 0. -1.
         22    1    3    3    0    0 -0.26256526816E+02  0.19733976417E+02  0.15055552678E+02  0.36131768461E+02  0.00000000000E+00 0. -1.
         22    1    3    3    0    0  0.65363257157E+02 -0.29914911570E+02  0.24341678767E+03  0.25380896328E+03  0.00000000000E+00 0. -1.
</event>
<event>
 7    1  0.6219721E-006  0.9782851E+02  0.7818608E-02  0.1316152E+00
          2   -1    0    0  502    0  0.00000000000E+00  0.00000000000E+00  0.32463959525E+04  0.32463959525E+04  0.00000000000E+00 0. -1.
          1   -1    0    0  501    0 -0.00000000000E+00 -0.00000000000E+00 -0.43187480848E+02  0.43187480848E+02  0.00000000000E+00 0. -1.
         25    2    1    2    0    0 -0.24101960009E+02  0.42738244525E+01  0.13405152133E+04  0.13465531578E+04  0.12500079872E+03 0.  0.
          2    1    1    2  501    0 -0.30869020742E+02 -0.92830598467E+02  0.23141983819E+02  0.10052844308E+03  0.00000000000E+00 0. -1.
          1    1    1    2  502    0  0.54970980751E+02  0.88556774015E+02  0.18395512745E+04  0.18425018324E+04  0.00000000000E+00 0. -1.
         22    1    3    3    0    0 -0.95022718813E+00 -0.57987504199E+02  0.77074238118E+03  0.77292125843E+03  0.00000000000E+00 0.  1.
         22    1    3    3    0    0 -0.23151732821E+02  0.62261328651E+02  0.56977283214E+03  0.57363189941E+03  0.00000000000E+00 0.  1.
</event>
<event>
 7    1  0.6219721E-006  0.1612873E+03  0.7818608E-02  0.1301756E+00
          2   -1    0    0  502    0  0.00000000000E+00  0.00000000000E+00  0.85277359224E+03  0.85277359224E+03  0.00000000000E+00 0. -1.
          1   -1    0    0  501    0 -0.00000000000E+00 -0.00000000000E+00 -0.25176482232E+04  0.25176482232E+04  0.00000000000E+00 0. -1.
         25    2    1    2    0    0  0.19629054654E+03 -0.73836723355E+02  0.59776359540E+02  0.25135739000E+03  0.12500193588E+03 0.  0.
          2    1    1    2  501    0 -0.15360398670E+03  0.46427545323E+02 -0.24182723500E+04  0.24235904894E+04  0.00000000000E+00 0. -1.
          1    1    1    2  502    0 -0.42686559837E+02  0.27409178032E+02  0.69362135946E+03  0.69547393605E+03  0.00000000000E+00 0. -1.
         22    1    3    3    0    0  0.13622271554E+03 -0.10517026162E+03  0.63667964905E+02  0.18349665369E+03  0.00000000000E+00 0.  1.
         22    1    3    3    0    0  0.60067830994E+02  0.31333538268E+02 -0.38916053647E+01  0.67860736313E+02  0.00000000000E+00 0.  1.
</event>
<event>
 7    1  0.6219721E-006  0.6373951E+02  0.7818608E-02  0.1446403E+00
          2   -1    0    0  502    0  0.00000000000E+00  0.00000000000E+00  0.21491166703E+04  0.21491166703E+04  0.00000000000E+00 0. -1.
          1   -1    0    0  501    0 -0.00000000000E+00 -0.00000000000E+00 -0.47351494976E+02  0.47351494976E+02  0.00000000000E+00 0. -1.
         25    2    1    2    0    0 -0.21127417400E+02 -0.83856439215E+02  0.16758815616E+04  0.16827603975E+04  0.12500110747E+03 0.  0.
          2    1    1    2  501    0  0.39652920981E+02  0.49634210903E+02 -0.19634159791E+02  0.66493678384E+02  0.00000000000E+00 0. -1.
          1    1    1    2  502    0 -0.18525503581E+02  0.34222228312E+02  0.44551777354E+03  0.44721408937E+03  0.00000000000E+00 0. -1.
         22    1    3    3    0    0  0.40519639022E+02  0.11639831004E+01  0.71702915838E+03  0.71817408055E+03  0.00000000000E+00 0. -1.
         22    1    3    3    0    0 -0.61647056421E+02 -0.85020422316E+02  0.95885240321E+03  0.96458631698E+03  0.00000000000E+00 0. -1.
</event>
<event>
 7    1  0.6219721E-006  0.1670811E+03  0.7818608E-02  0.1330953E+00
          2   -1    0    0  502    0  0.00000000000E+00  0.00000000000E+00  0.95524567427E+03  0.95524567427E+03  0.00000000000E+00 0. -1.
          1   -1    0    0  501    0 -0.00000000000E+00 -0.00000000000E+00 -0.50661095310E+03  0.50661095310E+03  0.00000000000E+00 0. -1.
         25    2    1    2    0    0 -0.17079490907E+03 -0.25659510247E+02 -0.10170771440E+03  0.23621770215E+03  0.12500012884E+03 0.  0.
          2    1    1    2  501    0  0.42069985889E+01  0.37433570221E+02 -0.32871100630E+03  0.33086235308E+03  0.00000000000E+00 0. -1.
          1    1    1    2  502    0  0.16658791048E+03 -0.11774059974E+02  0.87905344187E+03  0.89477657215E+03  0.00000000000E+00 0. -1.
         22    1    3    3    0    0 -0.81262313850E+02  0.74310029355E+01 -0.11376796646E+03  0.14000690572E+03  0.00000000000E+00 0. -1.
         22    1    3    3    0    0 -0.89532595222E+02 -0.33090513183E+02  0.12060252060E+02  0.96210796429E+02  0.00000000000E+00 0. -1.
</event>
<event>
 7    1  0.6219721E-006  0.6163677E+02  0.7818608E-02  0.1438584E+00
          2   -1    0    0  502    0  0.00000000000E+00  0.00000000000E+00  0.44038462868E+02  0.44038462868E+02  0.00000000000E+00 0. -1.
          1   -1    0    0  501    0 -0.00000000000E+00 -0.00000000000E+00 -0.79960682223E+03  0.79960682223E+03  0.00000000000E+00 0. -1.
         25    2    1    2    0    0 -0.36867891812E+02  0.89984273933E+02 -0.18829510435E+03  0.24604122626E+03  0.12499931078E+03 0.  0.
          2    1    1    2  501    0  0.71572024095E+01 -0.59378451454E+02 -0.54720560827E+03  0.55046435285E+03  0.00000000000E+00 0. -1.
          1    1    1    2  502    0  0.29710689402E+02 -0.30605822479E+02 -0.20067646742E+02  0.47139705982E+02  0.00000000000E+00 0. -1.
         22    1    3    3    0    0  0.25239812476E+02  0.32567119460E+02 -0.14555449660E+03  0.15127384733E+03  0.00000000000E+00 0.  1.
         22    1    3    3    0    0 -0.62107704288E+02  0.57417154473E+02 -0.42740607752E+02  0.94767378937E+02  0.00000000000E+00 0.  1.
</event>
<event>
 7    1  0.6219721E-006  0.1063157E+03  0.7818608E-02  0.1376404E+00
          2   -1    0    0  502    0  0.00000000000E+00  0.00000000000E+00  0.51139264792E+03  0.51139264792E+03  0.00000000000E+00 0. -1.
          1   -1    0    0  501    0 -0.00000000000E+00 -0.00000000000E+00 -0.10136816247E+03  0.10136816247E+03  0.00000000000E+00 0. -1.
         25    2    1    2    0    0  0.65257261077E+02  0.48029809834E+02  0.30724434009E+03  0.34145054236E+03  0.12499606236E+03 0.  0.
          2    1    1    2  501    0 -0.10358327625E+03 -0.35722273787E+02 -0.44773154046E+02  0.11836473836E+03  0.00000000000E+00 0. -1.
          1    1    1    2  502    0  0.38326015174E+02 -0.12307536047E+02  0.14755329941E+03  0.15294552968E+03  0.00000000000E+00 0. -1.
         22    1    3    3    0    0  0.69331804757E+02 -0.25170541365E+02  0.18117089261E+03  0.19561019307E+03  0.00000000000E+00 0.  1.
         22    1    3    3    0    0 -0.40745436797E+01  0.73200351199E+02  0.12607344748E+03  0.14584034929E+03  0.00000000000E+00 0.  1.
</event>
<event>
 7    1  0.6219721E-006  0.6536816E+02  0.7818608E-02  0.1503485E+00
          2   -1    0    0  502    0  0.00000000000E+00  0.00000000000E+00  0.60914058455E+03  0.60914058455E+03  0.00000000000E+00 0. -1.
          1   -1    0    0  501    0 -0.00000000000E+00 -0.00000000000E+00 -0.32458743276E+03  0.32458743276E+03  0.00000000000E+00 0. -1.
         25    2    1    2    0    0  0.23614222583E+02  0.84950817580E+02  0.63294786496E+01  0.15309869142E+03  0.12499949640E+03 0.  0.
          2    1    1    2  501    0 -0.23727209468E+02 -0.59672917093E+02 -0.24678966595E+03  0.25500779738E+03  0.00000000000E+00 0. -1.
          1    1    1    2  502    0  0.11298688478E+00 -0.25277900487E+02  0.52501333909E+03  0.52562152852E+03  0.00000000000E+00 0. -1.
         22    1    3    3    0    0 -0.51155625961E+02  0.24059586880E+02  0.31489337608E+01  0.56618703377E+02  0.00000000000E+00 0. -1.
         22    1    3    3    0    0  0.74769848544E+02  0.60891230699E+02  0.31805448888E+01  0.96479988045E+02  0.00000000000E+00 0. -1.
</event>
<event>
 7    1  0.6219721E-006  0.4156954E+02  0.7818608E-02  0.1506930E+00
          2   -1    0    0  502    0  0.00000000000E+00  0.00000000000E+00  0.10480623471E+04  0.10480623471E+04  0.00000000000E+00 0. -1.
          1   -1    0    0  501    0 -0.00000000000E+00 -0.00000000000E+00 -0.56973761473E+02  0.56973761473E+02  0.00000000000E+00 0. -1.
         25    2    1    2    0    0  0.19538606112E+02  0.77442047390E+02  0.65255643624E+03  0.66920338659E+03  0.12499696925E+03 0.  0.
          2    1    1    2  501    0 -0.92938618559E+01 -0.39991500956E+02 -0.38810773298E+02  0.56497541016E+02  0.00000000000E+00 0. -1.
          1    1    1    2  502    0 -0.10244744256E+02 -0.37450546435E+02  0.37734292265E+03  0.37933518092E+03  0.00000000000E+00 0. -1.
         22    1    3    3    0    0 -0.50807836702E+02  0.23361242678E+02  0.32815082097E+03  0.33288157839E+03  0.00000000000E+00 0.  1.
         22    1    3    3    0    0  0.70346442814E+02  0.54080804712E+02  0.32440561526E+03  0.33632180820E+03  0.00000000000E+00 0.  1.
</event>
<event>
 7    1  0.6219721E-006  0.8047533E+02  0.7818608E-02  0.1448346E+00
          2   -1    0    0  502    0  0.00000000000E+00  0.00000000000E+00  0.15743961234E+04  0.15743961234E+04  0.00000000000E+00 0. -1.
          1   -1    0    0  501    0 -0.00000000000E+00 -0.00000000000E+00 -0.14593408741E+03  0.14593408741E+03  0.00000000000E+00 0. -1.
         25    2    1    2    0    0 -0.14667417565E+01  0.84257773635E+02  0.53575883306E+03  0.55656510668E+03  0.12500266804E+03 0.  0.
          2    1    1    2  501    0  0.29162787302E+02 -0.85214943386E+01 -0.13222432396E+03  0.13567002570E+03  0.00000000000E+00 0. -1.
          1    1    1    2  502    0 -0.27696045545E+02 -0.75736279297E+02  0.10249275269E+04  0.10280950784E+04  0.00000000000E+00 0. -1.
         22    1    3    3    0    0 -0.20704243535E+02 -0.28249314767E+00  0.87618182405E+01  0.22483659880E+02  0.00000000000E+00 0. -1.
         22    1    3    3    0    0  0.19237501778E+02  0.84540266783E+02  0.52699701482E+03  0.53408144680E+03  0.00000000000E+00 0. -1.
</event>
<event>
 7    1  0.6219721E-006  0.1135022E+03  0.7818608E-02  0.1337158E+00
          2   -1    0    0  502    0  0.00000000000E+00  0.00000000000E+00  0.11286657231E+04  0.11286657231E+04  0.00000000000E+00 0. -1.
          1   -1    0    0  501    0 -0.00000000000E+00 -0.00000000000E+00 -0.71948523276E+03  0.71948523276E+03  0.00000000000E+00 0. -1.
         25    2    1    2    0    0  0.69897668036E+00 -0.10075514292E+03 -0.10055490237E+03  0.18944333226E+03  0.12500160140E+03 0.  0.
          2    1    1    2  501    0  0.51698473399E+02  0.10438918800E+03 -0.56793473927E+03  0.57975831412E+03  0.00000000000E+00 0. -1.
          1    1    1    2  502    0 -0.52397450080E+02 -0.36340450818E+01  0.10776701320E+04  0.10789493095E+04  0.00000000000E+00 0. -1.
         22    1    3    3    0    0  0.61027732977E+02 -0.31618037059E+02 -0.40425407348E+02  0.79738936656E+02  0.00000000000E+00 0. -1.
         22    1    3    3    0    0 -0.60328756297E+02 -0.69137105857E+02 -0.60129495024E+02  0.10970439560E+03  0.00000000000E+00 0. -1.
</event>
<event>
 7    1  0.6219721E-006  0.1448732E+03  0.7818608E-02  0.1217120E+00
          2   -1    0    0  502    0  0.00000000000E+00  0.00000000000E+00  0.51350294475E+02  0.51350294475E+02  0.00000000000E+00 0. -1.
          1   -1    0    0  501    0 -0.00000000000E+00 -0.00000000000E+00 -0.21189812383E+04  0.21189812383E+04  0.00000000000E+00 0. -1.
         25    2    1    2    0    0  0.10082234828E+03 -0.82778249597E+02 -0.16134254904E+04  0.16235100983E+04  0.12500336737E+03 0.  0.
          2    1    1    2  501    0  0.45902786550E+02  0.12159503005E+03 -0.31546875100E+03  0.34119342022E+03  0.00000000000E+00 0. -1.
          1    1    1    2  502    0 -0.14672513483E+03 -0.38816780451E+02 -0.13873670250E+03  0.20562801428E+03  0.00000000000E+00 0. -1.
         22    1    3    3    0    0  0.47788290385E+02 -0.50560322256E+02 -0.27556971866E+03  0.28421600364E+03  0.00000000000E+00 0.  1.
         22    1    3    3    0    0  0.53034057891E+02 -0.32217927341E+02 -0.13378557717E+04  0.13392940947E+04  0.00000000000E+00 0.  1.
</event>
<event>
 7    1  0.6219721E-006  0.4886602E+02  0.7818608E-02  0.1497842E+00
          2   -1    0    0  502    0  0.00000000000E+00  0.00000000000E+00  0.27724168348E+03  0.27724168348E+03  0.00000000000E+00 0. -1.
          1   -1    0    0  501    0 -0.00000000000E+00 -0.00000000000E+00 -0.22652461731E+04  0.22652461731E+04  0.00000000000E+00 0. -1.
         25    2    1    2    0    0  0.23152004151E+02  0.87051668771E+01 -0.52643433432E+03  0.54163688995E+03  0.12500246790E+03 0.  0.
          2    1    1    2  501    0 -0.47446832634E+02  0.16697543469E+02 -0.17296978699E+04  0.17304290598E+04  0.00000000000E+00 0. -1.
          1    1    1    2  502    0  0.24294828482E+02 -0.25402710346E+02  0.26812771457E+03  0.27042190685E+03  0.00000000000E+00 0. -1.
         22    1    3    3    0    0  0.54854710297E+02  0.68379431558E+01 -0.10200219088E+03  0.11601829016E+03  0.00000000000E+00 0.  1.
         22    1    3    3    0    0 -0.31702706146E+02  0.18672237213E+01 -0.42443214344E+03  0.42561859979E+03  0.00000000000E+00 0.  1.
</event>
<event>
 7    1  0.6219721E-006  0.6173768E+02  0.7818608E-02  0.1407293E+00
          2   -1    0    0  502    0  0.00000000000E+00  0.00000000000E+00  0.24607326859E+04  0.24607326859E+04  0.00000000000E+00 0. -1.
          1   -1    0    0  501    0 -0.00000000000E+00 -0.00000000000E+00 -0.21321614779E+02  0.21321614779E+02  0.00000000000E+00 0. -1.
         25    2    1    2    0    0  0.63331784061E+02 -0.84674212317E+02  0.12857038027E+04  0.12960864676E+04  0.12500090529E+03 0.  0.
          2    1    1    2  501    0 -0.43638253971E+02  0.32006634859E+02  0.32037904690E+02  0.62889977115E+02  0.00000000000E+00 0. -1.
          1    1    1    2  502    0 -0.19693530090E+02  0.52667577458E+02  0.11216693637E+04  0.11230778559E+04  0.00000000000E+00 0. -1.
         22    1    3    3    0    0  0.58302043053E+02 -0.71443508887E+00  0.87041223501E+03  0.87236293909E+03  0.00000000000E+00 0.  1.
         22    1    3    3    0    0  0.50297410087E+01 -0.83959777228E+02  0.41529156765E+03  0.42372352855E+03  0.00000000000E+00 0.  1.
</event>
<event>
 7    1  0.6219721E-006  0.7756079E+02  0.7818608E-02  0.1464434E+00
          2   -1    0    0  502    0  0.00000000000E+00  0.00000000000E+00  0.73652944554E+03  0.73652944554E+03  0.00000000000E+00 0. -1.
          1   -1    0    0  501    0 -0.00000000000E+00 -0.00000000000E+00 -0.24353155709E+03  0.24353155709E+03  0.00000000000E+00 0. -1.
         25    2    1    2    0    0  0.87253102820E+02  0.43774689285E+02 -0.16731557871E+03  0.23054405875E+03  0.12500693090E+03 0.  0.
          2    1    1    2  501    0 -0.27507998810E+02  0.53862958596E+01 -0.37839042035E+02  0.47090288635E+02  0.00000000000E+00 0. -1.
          1    1    1    2  502    0 -0.59745104010E+02 -0.49160985144E+02  0.69815250919E+03  0.70242665525E+03  0.00000000000E+00 0. -1.
         22    1    3    3    0    0  0.84384166573E+02 -0.18670503125E+02 -0.13468437799E+03  0.16002861285E+03  0.00000000000E+00 0. -1.
         22    1    3    3    0    0  0.28689362471E+01  0.62445192409E+02 -0.32631200714E+02  0.70515445899E+02  0.00000000000E+00 0. -1.
</event>
<event>
 7    1  0.6219721E-006  0.1267590E+03  0.7818608E-02  0.1432569E+00
          2   -1    0    0  502    0  0.00000000000E+00  0.00000000000E+00  0.14694432047E+04  0.14694432047E+04  0.00000000000E+00 0. -1.
          1   -1    0    0  501    0 -0.00000000000E+00 -0.00000000000E+00 -0.10715345784E+04  0.10715345784E+04  0.00000000000E+00 0. -1.
         25    2    1    2    0    0  0.12412979909E+03 -0.15064700174E+02 -0.41926622360E+03  0.45502151764E+03  0.12500105219E+03 0.  0.
          2    1    1    2  501    0  0.24853279977E+01  0.21557917519E+02 -0.63143564574E+03  0.63180843249E+03  0.00000000000E+00 0. -1.
          1    1    1    2  502    0 -0.12661512709E+03 -0.64932173449E+01  0.14486104956E+04  0.14541478330E+04  0.00000000000E+00 0. -1.
         22    1    3    3    0    0  0.13936648199E+03 -0.65985316150E+01 -0.41389995290E+03  0.43678338789E+03  0.00000000000E+00 0.  1.
         22    1    3    3    0    0 -0.15236682894E+02 -0.84661685586E+01 -0.53662706988E+01  0.18238129753E+02  0.00000000000E+00 0.  1.
</event>
<event>
 7    1  0.6219721E-006  0.7306711E+02  0.7818608E-02  0.1398023E+00
          2   -1    0    0  502    0  0.00000000000E+00  0.00000000000E+00  0.15939176107E+04  0.15939176107E+04  0.00000000000E+00 0. -1.
          1   -1    0    0  501    0 -0.00000000000E+00 -0.00000000000E+00 -0.25165940576E+03  0.25165940576E+03  0.00000000000E+00 0. -1.
         25    2    1    2    0    0 -0.92427092205E+02  0.78550853838E+02  0.99818543694E+02  0.20075086518E+03  0.12499665672E+03 0.  0.
          2    1    1    2  501    0  0.35862518176E+02 -0.33675240775E+02 -0.19726771075E+03  0.20330934990E+03  0.00000000000E+00 0. -1.
          1    1    1    2  502    0  0.56564574029E+02 -0.44875613063E+02  0.14397073720E+04  0.14415168014E+04  0.00000000000E+00 0. -1.
         22    1    3    3    0    0  0.75002627420E+01  0.72554948715E+02  0.53436136487E+02  0.90420656970E+02  0.00000000000E+00 0.  1.
         22    1    3    3    0    0 -0.99927354947E+02  0.59959051236E+01  0.46382407208E+02  0.11033020821E+03  0.00000000000E+00 0.  1.
</event>
<event>
 7    1  0.6219721E-006  0.1105906E+03  0.7818608E-02  0.1349596E+00
          2   -1    0    0  502    0  0.00000000000E+00  0.00000000000E+00  0.78002009084E+03  0.78002009084E+03  0.00000000000E+00 0. -1.
          1   -1    0    0  501    0 -0.00000000000E+00 -0.00000000000E+00 -0.85956346604E+03  0.85956346604E+03  0.00000000000E+00 0. -1.
         25    2    1    2    0    0  0.13169342495E+03  0.79560345730E+02 -0.59595533109E+03  0.62806128124E+03  0.12500083821E+03 0.  0.
          2    1    1    2  501    0 -0.47769132735E+02 -0.79537526490E+01 -0.24115264839E+03  0.24596697349E+03  0.00000000000E+00 0. -1.
          1    1    1    2  502    0 -0.83924292216E+02 -0.71606593081E+02  0.75756460428E+03  0.76555530215E+03  0.00000000000E+00 0. -1.
         22    1    3    3    0    0  0.11727836347E+03  0.10883996875E+03 -0.42721781401E+03  0.45619668340E+03  0.00000000000E+00 0. -1.
         22    1    3    3    0    0  0.14415061477E+02 -0.29279623020E+02 -0.16873751708E+03  0.17186459785E+03  0.00000000000E+00 0. -1.
</event>
<event>
 7    1  0.6219721E-006  0.9289361E+02  0.7818608E-02  0.1310955E+00
          2   -1    0    0  502    0  0.00000000000E+00  0.00000000000E+00  0.14713815893E+04  0.14713815893E+04  0.00000000000E+00 0. -1.
          1   -1    0    0  501    0 -0.00000000000E+00 -0.00000000000E+00 -0.22703146861E+04  0.22703146861E+04  0.00000000000E+00 0. -1.
         25    2    1    2    0    0 -0.23960836943E+02  0.16513210929E+03 -0.26230570337E+01  0.20850638020E+03  0.12500117972E+03 0.  0.
          2    1    1    2  501    0 -0.11139923086E+02 -0.80215832158E+02 -0.21624487115E+04  0.21639646734E+04  0.00000000000E+00 0. -1.
          1    1    1    2  502    0  0.35100760029E+02 -0.84916277132E+02  0.13661386717E+04  0.13692252218E+04  0.00000000000E+00 0. -1.
         22    1    3    3    0    0  0.38487130321E+02  0.10523990086E+02 -0.11507359812E+02  0.41526291642E+02  0.00000000000E+00 0.  1.
         22    1    3    3    0    0 -0.62447967264E+02  0.15460811920E+03  0.88843027783E+01  0.16698008856E+03  0.00000000000E+00 0.  1.
</event>
<event>
 7    1  0.6219721E-006  0.4967157E+02  0.7818608E-02  0.1499957E+00
          2   -1    0    0  502    0  0.00000000000E+00  0.00000000000E+00  0.13918630655E+04  0.13918630655E+04  0.00000000000E+00 0. -1.
          1   -1    0    0  501    0 -0.00000000000E+00 -0.00000000000E+00 -0.19617632440E+04  0.19617632440E+04  0.00000000000E+00 0. -1.
         25    2    1    2    0    0 -0.26060421262E+02 -0.17891593071E+02  0.42940958311E+03  0.44834907145E+03  0.12500018059E+03 0.  0.
          2    1    1    2  501    0  0.49172879920E+02 -0.71545218804E+01 -0.19516724631E+04  0.19523049358E+04  0.00000000000E+00 0. -1.
          1    1    1    2  502    0 -0.23112458659E+02  0.25046114951E+02  0.95236270148E+03  0.95297230221E+03  0.00000000000E+00 0. -1.
         22    1    3    3    0    0  0.29268515748E+02 -0.97338799326E+01  0.23951855086E+02  0.39052346853E+02  0.00000000000E+00 0.  1.
         22    1    3    3    0    0 -0.55328937010E+02 -0.81577131383E+01  0.40545772802E+03  0.40929672460E+03  0.00000000000E+00 0.  1.
</event>
<event>
 7    1  0.6219721E-006  0.7877570E+02  0.7818608E-02  0.1332775E+00
          2   -1    0    0  502    0  0.00000000000E+00  0.00000000000E+00  0.96044007510E+03  0.96044007510E+03  0.00000000000E+00 0. -1.
          1   -1    0    0  501    0 -0.00000000000E+00 -0.00000000000E+00 -0.41662429363E+03  0.41662429363E+03  0.00000000000E+00 0. -1.
         25    2    1    2    0    0 -0.18224189707E+02  0.74739524376E+02  0.12319096585E+03  0.19162241446E+03  0.12500007224E+03 0.  0.
          2    1    1    2  501    0  0.76624694073E+02 -0.21871842156E+02 -0.37629422564E+03  0.38463887670E+03  0.00000000000E+00 0. -1.
          1    1    1    2  502    0 -0.58400504366E+02 -0.52867682220E+02  0.79691904125E+03  0.80080307757E+03  0.00000000000E+00 0. -1.
         22    1    3    3    0    0  0.25493281038E+01  0.10743306197E+03  0.82822351213E+02  0.13567573010E+03  0.00000000000E+00 0.  1.
         22    1    3    3    0    0 -0.20773517811E+02 -0.32693537595E+02  0.40368614638E+02  0.55946684356E+02  0.00000000000E+00 0.  1.
</event>
<event>
 7    1  0.6219721E-006  0.9584031E+02  0.7818608E-02  0.1392327E+00
          2   -1    0    0  502    0  0.00000000000E+00  0.00000000000E+00  0.29465356660E+03  0.29465356660E+03  0.00000000000E+00 0. -1.
          1   -1    0    0  501    0 -0.00000000000E+00 -0.00000000000E+00 -0.26902424379E+04  0.26902424379E+04  0.00000000000E+00 0. -1.
         25    2    1    2    0    0 -0.59476426761E+01 -0.11436532397E+03 -0.24131444514E+03  0.29490910535E+03  0.12499566874E+03 0.  0.
          2    1    1    2  501    0 -0.26126569074E+02  0.91745048454E+02 -0.24197480693E+04  0.24216276490E+04  0.00000000000E+00 0. -1.
          1    1    1    2  502    0  0.32074211751E+02  0.22620275513E+02  0.26547364315E+03  0.26835925014E+03  0.00000000000E+00 0. -1.
         22    1    3    3    0    0  0.12768478804E+02  0.20883546259E+02 -0.10288548757E+02  0.26552039297E+02  0.00000000000E+00 0. -1.
         22    1    3    3    0    0 -0.18716121480E+02 -0.13524887023E+03 -0.23102589638E+03  0.26835706605E+03  0.00000000000E+00 0. -1.
</event>
<event>
 7    1  0.6219721E-006  0.1371896E+03  0.7818608E-02  0.1277298E+00
          2   -1    0    0  502    0  0.00000000000E+00  0.00000000000E+00  0.41365036672E+03  0.41365036672E+03  0.00000000000E+00 0. -1.
          1   -1    0    0  501    0 -0.00000000000E+00 -0.00000000000E+00 -0.10739403149E+04  0.10739403149E+04  0.00000000000E+00 0. -1.
         25    2    1    2    0    0  0.95842910515E+02 -0.77004599146E+01 -0.34174199339E+03  0.37637390497E+03  0.12499826284E+03 0.  0.
          2    1    1    2  501    0 -0.15622345900E+03 -0.36795958606E+02 -0.70219642329E+03  0.72030516352E+03  0.00000000000E+00 0. -1.
          1    1    1    2  502    0  0.60380548482E+02  0.44496418521E+02  0.38364846850E+03  0.39091161313E+03  0.00000000000E+00 0. -1.
         22    1    3    3    0    0 -0.28408042998E+02  0.95571098531E+01 -0.94331879145E+02  0.98979082026E+02  0.00000000000E+00 0. -1.
         22    1    3    3    0    0  0.12425095351E+03 -0.17257569768E+02 -0.24741011425E+03  0.27739482294E+03  0.00000000000E+00 0. -1.
</event>
<event>
 7    1  0.6219721E-006  0.7051556E+02  0.7818608E-02  0.1520165E+00
          2   -1    0    0  502    0  0.00000000000E+00  0.00000000000E+00  0.75182013446E+03  0.75182013446E+03  0.00000000000E+00 0. -1.
          1   -1    0    0  501    0 -0.00000000000E+00 -0.00000000000E+00 -0.21214297638E+03  0.21214297638E+03  0.00000000000E+00 0. -1.
         25    2    1    2    0    0 -0.65910586327E+02  0.15294699774E+02  0.29426770006E+03  0.32679769156E+03  0.12500047470E+03 0.  0.
          2    1    1    2  501    0  0.40627456198E+01  0.20535735257E+02 -0.19241218959E+03  0.19354759886E+03  0.00000000000E+00 0. -1.
          1    1    1    2  502    0  0.61847840707E+02 -0.35830435031E+02  0.43782164761E+03  0.44361782041E+03  0.00000000000E+00 0. -1.
         22    1    3    3    0    0 -0.81412094699E+02  0.10567643024E+01  0.89664390054E+02  0.12111461001E+03  0.00000000000E+00 0.  1.
         22    1    3    3    0    0  0.15501508372E+02  0.14237935472E+02  0.20460331001E+03  0.20568308154E+03  0.00000000000E+00 0.  1.
</event>
<event>
 7    1  0.6219721E-006  0.7473976E+02  0.7818608E-02  0.1482574E+00
          2   -1    0    0  502    0  0.00000000000E+00  0.00000000000E+00  0.14022616486E+04  0.14022616486E+04  0.00000000000E+00 0. -1.
          1   -1    0    0  501    0 -0.00000000000E+00 -0.00000000000E+00 -0.82216817262E+03  0.82216817262E+03  0.00000000000E+00 0. -1.
         25    2    1    2    0    0  0.51500293181E+02 -0.57667565806E+02 -0.16106153407E+03  0.21804459023E+03  0.12499918892E+03 0.  0.
          2    1    1    2  501    0 -0.65477856146E+02  0.36267726822E+02 -0.63028150682E+03  0.63471054465E+03  0.00000000000E+00 0. -1.
          1    1    1    2  502    0  0.13977562965E+02  0.21399838984E+02  0.13714365169E+04  0.13716746864E+04  0.00000000000E+00 0. -1.
         22    1    3    3    0    0  0.86195600818E+02 -0.47956993851E+02 -0.15147889105E+03  0.18076340695E+03  0.00000000000E+00 0.  1.
         22    1    3    3    0    0 -0.34695307636E+02 -0.97105719553E+01 -0.95826430224E+01  0.37281183283E+02  0.00000000000E+00 0.  1.
</event>
<event>
 7    1  0.6219721E-006  0.1212611E+03  0.7818608E-02  0.1358101E+00
          2   -1    0    0  502    0  0.00000000000E+00  0.00000000000E+00  0.18764878035E+04  0.18764878035E+04  0.00000000000E+00 0. -1.
          1   -1    0    0  501    0 -0.00000000000E+00 -0.00000000000E+00 -0.89535715855E+02  0.89535715855E+02  0.00000000000E+00 0. -1.
         25    2    1    2    0    0 -0.52761588546E+02  0.13604522866E+03  0.28774292107E+03  0.34598422208E+03  0.12496801125E+03 0.  0.
          2    1    1    2  501    0  0.37202274767E+02 -0.17450366899E+02 -0.50846801283E+02  0.65375238076E+02  0.00000000000E+00 0. -1.
          1    1    1    2  502    0  0.15559313779E+02 -0.11859486176E+03  0.15500559678E+04  0.15546640592E+04  0.00000000000E+00 0. -1.
         22    1    3    3    0    0 -0.60604765932E+02  0.77374223882E+02  0.70848982886E+02  0.12115810559E+03  0.00000000000E+00 0.  1.
         22    1    3    3    0    0  0.78431773863E+01  0.58671004774E+02  0.21689393818E+03  0.22482611648E+03  0.00000000000E+00 0.  1.
</event>
<event>
 7    1  0.6219721E-006  0.5201242E+02  0.7818608E-02  0.1492298E+00
          2   -1    0    0  502    0  0.00000000000E+00  0.00000000000E+00  0.77802853245E+03  0.77802853245E+03  0.00000000000E+00 0. -1.
          1   -1    0    0  501    0 -0.00000000000E+00 -0.00000000000E+00 -0.55523507192E+03  0.55523507192E+03  0.00000000000E+00 0. -1.
         25    2    1    2    0    0 -0.60806130392E+02  0.72142993318E+01 -0.36305242286E+03  0.38882481757E+03  0.12501298095E+03 0.  0.
          2    1    1    2  501    0  0.14580449728E+02 -0.31063538575E+02 -0.17676048983E+03  0.18006055566E+03  0.00000000000E+00 0. -1.
          1    1    1    2  502    0  0.46225680663E+02  0.23849239244E+02  0.76260637321E+03  0.76437823113E+03  0.00000000000E+00 0. -1.
         22    1    3    3    0    0 -0.22815414397E+02 -0.38544470846E+01 -0.34422845999E+03  0.34500526455E+03  0.00000000000E+00 0.  1.
         22    1    3    3    0    0 -0.37990715995E+02  0.11068746416E+02 -0.18823962869E+02  0.43819553023E+02  0.00000000000E+00 0.  1.
</event>
<event>
 7    1  0.6219721E-006  0.6972254E+02  0.7818608E-02  0.1483338E+00
          2   -1    0    0  502    0  0.00000000000E+00  0.00000000000E+00  0.34890516480E+03  0.34890516480E+03  0.00000000000E+00 0. -1.
          1   -1    0    0  501    0 -0.00000000000E+00 -0.00000000000E+00 -0.41896995038E+03  0.41896995038E+03  0.00000000000E+00 0. -1.
         25    2    1    2    0    0  0.85898368150E+02 -0.39813343931E+02  0.54879785417E+02  0.16613106497E+03  0.12499643152E+03 0.  0.
          2    1    1    2  501    0 -0.25644865640E+02  0.92222742787E+01 -0.35802753427E+03  0.35906326013E+03  0.00000000000E+00 0. -1.
          1    1    1    2  502    0 -0.60253502510E+02  0.30591069652E+02  0.23308296328E+03  0.24268079009E+03  0.00000000000E+00 0. -1.
         22    1    3    3    0    0 -0.22932647214E+01 -0.44217841040E+02  0.63496781118E+02  0.77410062277E+02  0.00000000000E+00 0. -1.
         22    1    3    3    0    0  0.88191632871E+02  0.44044971097E+01 -0.86169957011E+01  0.88721002689E+02  0.00000000000E+00 0. -1.
</event>
<event>
 7    1  0.6219721E-006  0.9869460E+02  0.7818608E-02  0.1334741E+00
          2   -1    0    0  502    0  0.00000000000E+00  0.00000000000E+00  0.22295643005E+04  0.22295643005E+04  0.00000000000E+00 0. -1.
          1   -1    0    0  501    0 -0.00000000000E+00 -0.00000000000E+00 -0.32243942233E+02  0.32243942233E+02  0.00000000000E+00 0. -1.
         25    2    1    2    0    0 -0.33228702721E+02 -0.14107393641E+03  0.11441529835E+04  0.11600496133E+04  0.12499221335E+03 0.  0.
          2    1    1    2  501    0  0.31956885097E+02  0.52767507719E+02  0.20039994148E+02  0.64863346671E+02  0.00000000000E+00 0. -1.
          1    1    1    2  502    0  0.12718176241E+01  0.88306428695E+02  0.10331273806E+04  0.10368952828E+04  0.00000000000E+00 0. -1.
         22    1    3    3    0    0 -0.14008110748E+02  0.22555741157E+02  0.14748279206E+03  0.14985380402E+03  0.00000000000E+00 0. -1.
         22    1    3    3    0    0 -0.19220591972E+02 -0.16362967757E+03  0.99667019146E+03  0.10101958093E+04  0.00000000000E+00 0. -1.
</event>
<event>
 7    1  0.6219721E-006  0.7211446E+02  0.7818608E-02  0.1378840E+00
          2   -1    0    0  502    0  0.00000000000E+00  0.00000000000E+00  0.50911112700E+02  0.50911112700E+02  0.00000000000E+00 0. -1.
          1   -1    0    0  501    0 -0.00000000000E+00 -0.00000000000E+00 -0.26534875544E+04  0.26534875544E+04  0.00000000000E+00 0. -1.
         25    2    1    2    0    0  0.73924834532E+02 -0.82927499825E+02 -0.62034535542E+03  0.64249118450E+03  0.12499884313E+03 0.  0.
          2    1    1    2  501    0 -0.56360730338E+02  0.14407404058E+02 -0.19899066886E+04  0.19907568245E+04  0.00000000000E+00 0. -1.
          1    1    1    2  502    0 -0.17564104194E+02  0.68520095766E+02  0.76756022410E+01  0.71150658111E+02  0.00000000000E+00 0. -1.
         22    1    3    3    0    0  0.40752145171E+02 -0.21222461246E+02 -0.50812759460E+03  0.51020072774E+03  0.00000000000E+00 0. -1.
         22    1    3    3    0    0  0.33172689361E+02 -0.61705038578E+02 -0.11221776082E+03  0.13229045675E+03  0.00000000000E+00 0. -1.
</event>
<event>
 7    1  0.6219721E-006  0.2498138E+03  0.7818608E-02  0.1240862E+00
          2   -1    0    0  502    0  0.00000000000E+00  0.00000000000E+00  0.40495884107E+04  0.40495884107E+04  0.00000000000E+00 0. -1.
          1   -1    0    0  501    0 -0.00000000000E+00 -0.00000000000E+00 -0.20377504512E+04  0.20377504512E+04  0.00000000000E+00 0. -1.
         25    2    1    2    0    0 -0.15608313198E+03 -0.23487071520E+03 -0.11551626930E+04  0.11956386271E+04  0.12499872946E+03 0.  0.
          2    1    1    2  501    0  0.13978298322E+03  0.17820686740E+03 -0.84725828291E+03  0.87700830552E+03  0.00000000000E+00 0. -1.
          1    1    1    2  502    0  0.16300148759E+02  0.56663847802E+02  0.40142589354E+04  0.40146919293E+04  0.00000000000E+00 0. -1.
         22    1    3    3    0    0 -0.60729719257E+02 -0.24855757875E+02 -0.14016839276E+03  0.15476784495E+03  0.00000000000E+00 0. -1.
         22    1    3    3    0    0 -0.95353412721E+02 -0.21001495733E+03 -0.10149943003E+04  0.10408707822E+04  0.00000000000E+00 0. -1.
</event>
<event>
 7    1  0.6219721E-006  0.5449359E+02  0.7818608E-02  0.1430100E+00
          2   -1    0    0  502    0  0.00000000000E+00  0.00000000000E+00  0.99241260117E+03  0.99241260117E+03  0.00000000000E+00 0. -1.
          1   -1    0    0  501    0 -0.00000000000E+00 -0.00000000000E+00 -0.10850441097E+03  0.10850441097E+03  0.00000000000E+00 0. -1.
         25    2    1    2    0    0  0.95245854540E+01 -0.58420345818E+02  0.11080088356E+03  0.17721098600E+03  0.12499297271E+03 0.  0.
          2    1    1    2  501    0 -0.47815956516E+02  0.18940043984E+02 -0.65510323037E+02  0.83286814010E+02  0.00000000000E+00 0. -1.
          1    1    1    2  502    0  0.38291371061E+02  0.39480301834E+02  0.83861762967E+03  0.84041921214E+03  0.00000000000E+00 0. -1.
         22    1    3    3    0    0 -0.38083127375E+02  0.16786099210E+02  0.64811420949E+02  0.77023489941E+02  0.00000000000E+00 0. -1.
         22    1    3    3    0    0  0.47607712829E+02 -0.75206445028E+02  0.45989462608E+02  0.10018749605E+03  0.00000000000E+00 0. -1.
</event>
<event>
 7    1  0.6219721E-006  0.1384317E+03  0.7818608E-02  0.1324079E+00
          2   -1    0    0  502    0  0.00000000000E+00  0.00000000000E+00  0.53818903416E+02  0.53818903416E+02  0.00000000000E+00 0. -1.
          1   -1    0    0  501    0 -0.00000000000E+00 -0.00000000000E+00 -0.15643874697E+04  0.15643874697E+04  0.00000000000E+00 0. -1.
         25    2    1    2    0    0 -0.51276470076E+02 -0.86973838214E+02 -0.63252129677E+03  0.65261071767E+03  0.12499533203E+03 0.  0.
          2    1    1    2  501    0 -0.34512689877E+01 -0.48186893203E+02 -0.79758972100E+03  0.79905146955E+03  0.00000000000E+00 0. -1.
          1    1    1    2  502    0  0.54727739063E+02  0.13516073142E+03 -0.80457548479E+02  0.16654418587E+03  0.00000000000E+00 0. -1.
         22    1    3    3    0    0 -0.73070535706E+01 -0.17471546652E+02 -0.47077908016E+03  0.47115983518E+03  0.00000000000E+00 0. -1.
         22    1    3    3    0    0 -0.43969416505E+02 -0.69502291561E+02 -0.16174221661E+03  0.18145088248E+03  0.00000000000E+00 0. -1.
</event>
<event>
 7    1  0.6219721E-006  0.6515750E+02  0.7818608E-02  0.1516287E+00
          2   -1    0    0  502    0  0.00000000000E+00  0.00000000000E+00  0.35129341175E+03  0.35129341175E+03  0.00000000000E+00 0. -1.
          1   -1    0    0  501    0 -0.00000000000E+00 -0.00000000000E+00 -0.21892979725E+03  0.21892979725E+03  0.00000000000E+00 0. -1.
         25    2    1    2    0    0  0.53435691948E+02  0.33434938295E+02  0.32368089198E+02  0.14367166010E+03  0.12498233653E+03 0.  0.
          2    1    1    2  501    0  0.10880643027E+02 -0.20548983723E+02 -0.15832995947E+03  0.16002820124E+03  0.00000000000E+00 0. -1.
          1    1    1    2  502    0 -0.64316334975E+02 -0.12885954572E+02  0.25832548478E+03  0.26652334767E+03  0.00000000000E+00 0. -1.
         22    1    3    3    0    0  0.71162989343E+02  0.12140692085E+02 -0.27856365099E+02  0.77379225462E+02  0.00000000000E+00 0.  1.
         22    1    3    3    0    0 -0.17727297395E+02  0.21294246210E+02  0.60224454297E+02  0.66292434636E+02  0.00000000000E+00 0.  1.
</event>
<event>
 7    1  0.6219721E-006  0.3043754E+02  0.7818608E-02  0.1649933E+00
          2   -1    0    0  502    0  0.00000000000E+00  0.00000000000E+00  0.91468312644E+01  0.91468312644E+01  0.00000000000E+00 0. -1.
          1   -1    0    0  501    0 -0.00000000000E+00 -0.00000000000E+00 -0.16137638076E+04  0.16137638076E+04  0.00000000000E+00 0. -1.
         25    2    1    2    0    0  0.24591034995E+02 -0.33761293700E+02 -0.97301418283E+03  0.98189906969E+03  0.12499855641E+03 0.  0.
          2    1    1    2  501    0 -0.21517471709E+02  0.37910713384E+01 -0.58568562145E+03  0.58609301393E+03  0.00000000000E+00 0. -1.
          1    1    1    2  502    0 -0.30735632864E+01  0.29970222361E+02 -0.45917172004E+02  0.54918555193E+02  0.00000000000E+00 0. -1.
         22    1    3    3    0    0 -0.92990286997E+01  0.35276898427E+01 -0.27384106534E+01  0.10315785151E+02  0.00000000000E+00 0. -1.
         22    1    3    3    0    0  0.33890063695E+02 -0.37288983542E+02 -0.97027577218E+03  0.97158328454E+03  0.00000000000E+00 0. -1.
</event>
<event>
 7    1  0.6219721E-006  0.3509516E+02  0.7818608E-02  0.1627437E+00
          2   -1    0    0  502    0  0.00000000000E+00  0.00000000000E+00  0.99456508961E+03  0.99456508961E+03  0.00000000000E+00 0. -1.
          1   -1    0    0  501    0 -0.00000000000E+00 -0.00000000000E+00 -0.69570408220E+03  0.69570408220E+03  0.00000000000E+00 0. -1.
         25    2    1    2    0    0 -0.13373745532E+02  0.30308024615E+01  0.19277058372E+02  0.12721737678E+03  0.12499845256E+03 0.  0.
          2    1    1    2  501    0 -0.20463199121E+02  0.67736089346E+01 -0.64121599465E+03  0.64157819172E+03  0.00000000000E+00 0. -1.
          1    1    1    2  502    0  0.33836944653E+02 -0.98044113961E+01  0.92079994368E+03  0.92147360331E+03  0.00000000000E+00 0. -1.
         22    1    3    3    0    0 -0.15219411163E+02 -0.54198455863E+02 -0.17753079482E+02  0.59027747078E+02  0.00000000000E+00 0.  1.
         22    1    3    3    0    0  0.18456656314E+01  0.57229258324E+02  0.37030137854E+02  0.68189629706E+02  0.00000000000E+00 0.  1.
</event>
<event>
 7    1  0.6219721E-006  0.7419403E+02  0.7818608E-02  0.1420853E+00
          2   -1    0    0  502    0  0.00000000000E+00  0.00000000000E+00  0.49957685142E+02  0.49957685142E+02  0.00000000000E+00 0. -1.
          1   -1    0    0  501    0 -0.00000000000E+00 -0.00000000000E+00 -0.11328247754E+04  0.11328247754E+04  0.00000000000E+00 0. -1.
         25    2    1    2    0    0  0.55551168116E+02  0.74836791059E+02 -0.23830339351E+03  0.28478389165E+03  0.12500751980E+03 0.  0.
          2    1    1    2  501    0 -0.64409241565E+02 -0.35280468097E+02 -0.85336409843E+03  0.85651826969E+03  0.00000000000E+00 0. -1.
          1    1    1    2  502    0  0.88580734494E+01 -0.39556322962E+02  0.88004016906E+01  0.41480299196E+02  0.00000000000E+00 0. -1.
         22    1    3    3    0    0  0.56731923430E+02 -0.10658457221E+02 -0.44267104091E+02  0.72744005602E+02  0.00000000000E+00 0.  1.
         22    1    3    3    0    0 -0.11807553137E+01  0.85495248280E+02 -0.19403628942E+03  0.21203988605E+03  0.00000000000E+00 0.  1.
</event>
<event>
 7    1  0.6219721E-006  0.3847255E+02  0.7818608E-02  0.1624163E+00
          2   -1    0    0  502    0  0.00000000000E+00  0.00000000000E+00  0.12571645269E+04  0.12571645269E+04  0.00000000000E+00 0. -1.
          1   -1    0    0  501    0 -0.00000000000E+00 -0.00000000000E+00 -0.11828826675E+04  0.11828826675E+04  0.00000000000E+00 0. -1.
         25    2    1    2    0    0 -0.32376701984E+02  0.33863646779E+02  0.19783996798E+02  0.13495277011E+03  0.12500338486E+03 0.  0.
          2    1    1    2  501    0  0.19884532979E+02  0.25007204483E+01 -0.11248957217E+04  0.11250742345E+04  0.00000000000E+00 0. -1.
          1    1    1    2  502    0  0.12492169005E+02 -0.36364367228E+02  0.11793935843E+04  0.11800201898E+04  0.00000000000E+00 0. -1.
         22    1    3    3    0    0 -0.16934619409E+02  0.61208231542E+02 -0.34474680377E+02  0.72261556377E+02  0.00000000000E+00 0.  1.
         22    1    3    3    0    0 -0.15442082576E+02 -0.27344584763E+02  0.54258677174E+02  0.62691213729E+02  0.00000000000E+00 0.  1.
</event>
<event>
 7    1  0.6219721E-006  0.4662082E+02  0.7818608E-02  0.1531742E+00
          2   -1    0    0  502    0  0.00000000000E+00  0.00000000000E+00  0.66654326154E+03  0.66654326154E+03  0.00000000000E+00 0. -1.
          1   -1    0    0  501    0 -0.00000000000E+00 -0.00000000000E+00 -0.56305752628E+03  0.56305752628E+03  0.00000000000E+00 0. -1.
         25    2    1    2    0    0 -0.20866604647E+02 -0.26982576145E+02  0.17965217349E+03  0.22148689618E+03  0.12497226547E+03 0.  0.
          2    1    1    2  501    0  0.20700143228E+02 -0.20768226167E+02 -0.54051839769E+03  0.54131317496E+03  0.00000000000E+00 0. -1.
          1    1    1    2  502    0  0.16646141888E+00  0.47750802313E+02  0.46435195946E+03  0.46680071667E+03  0.00000000000E+00 0. -1.
         22    1    3    3    0    0  0.38918084999E+02 -0.31027227766E+02  0.14259672312E+03  0.15103354478E+03  0.00000000000E+00 0. -1.
         22    1    3    3    0    0 -0.59784689646E+02  0.40446516209E+01  0.37055450366E+02  0.70453351408E+02  0.00000000000E+00 0. -1.
</event>
<event>
 7    1  0.6219721E-006  0.7035866E+02  0.7818608E-02  0.1398787E+00
          2   -1    0    0  502    0  0.00000000000E+00  0.00000000000E+00  0.12639032768E+04  0.12639032768E+04  0.00000000000E+00 0. -1.
          1   -1    0    0  501    0 -0.00000000000E+00 -0.00000000000E+00 -0.64513180906E+03  0.64513180906E+03  0.00000000000E+00 0. -1.
         25    2    1    2    0    0 -0.42633715502E+02  0.41717467119E+01  0.67329868672E+02  0.14829441770E+03  0.12499154346E+03 0.  0.
          2    1    1    2  501    0  0.55032337331E+02  0.45071301103E+02 -0.60199686264E+03  0.60618495772E+03  0.00000000000E+00 0. -1.
          1    1    1    2  502    0 -0.12398621829E+02 -0.49243047815E+02  0.11534384617E+04  0.11545557105E+04  0.00000000000E+00 0. -1.
         22    1    3    3    0    0  0.64356891034E+01  0.53086362831E+02  0.26972039517E+01  0.53543019359E+02  0.00000000000E+00 0. -1.
         22    1    3    3    0    0 -0.49069404605E+02 -0.48914616120E+02  0.64632664721E+02  0.94751398340E+02  0.00000000000E+00 0. -1.
</event>
<event>
 7    1  0.6219721E-006  0.1143473E+03  0.7818608E-02  0.1347678E+00
          2   -1    0    0  502    0  0.00000000000E+00  0.00000000000E+00  0.51583752932E+03  0.51583752932E+03  0.00000000000E+00 0. -1.
          1   -1    0    0  501    0 -0.00000000000E+00 -0.00000000000E+00 -0.10371200620E+04  0.10371200620E+04  0.00000000000E+00 0. -1.
         25    2    1    2    0    0  0.73723984350E+02  0.14286129635E+03 -0.34893471237E+03  0.40401221022E+03  0.12500342652E+03 0.  0.
          2    1    1    2  501    0 -0.26207617114E+02 -0.39747902736E+02 -0.65316889374E+03  0.65490177792E+03  0.00000000000E+00 0. -1.
          1    1    1    2  502    0 -0.47516367236E+02 -0.10311339362E+03  0.48082107348E+03  0.49404360314E+03  0.00000000000E+00 0. -1.
         22    1    3    3    0    0  0.26222800690E+02  0.35185936437E+02 -0.23890170766E+03  0.24289856179E+03  0.00000000000E+00 0.  1.
         22    1    3    3    0    0  0.47501183660E+02  0.10767535991E+03 -0.11003300471E+03  0.16111364842E+03  0.00000000000E+00 0.  1.
</event>
<event>
 7    1  0.6219721E-006  0.1490219E+03  0.7818608E-02  0.1304389E+00
          2   -1    0    0  502    0  0.00000000000E+00  0.00000000000E+00  0.15202427538E+04  0.15202427538E+04  0.00000000000E+00 0. -1.
          1   -1    0    0  501    0 -0.00000000000E+00 -0.00000000000E+00 -0.35000932841E+03  0.35000932841E+03  0.00000000000E+00 0. -1.
         25    2    1    2    0    0  0.10895033699E+03  0.92276435761E+02 -0.14248161426E+03  0.23729038201E+03  0.12498239262E+03 0.  0.
          2    1    1    2  501    0 -0.79233404135E+02 -0.13687707689E+03 -0.12044679181E+03  0.19879812918E+03  0.00000000000E+00 0. -1.
          1    1    1    2  502    0 -0.29716932854E+02  0.44600641130E+02  0.14331618314E+04  0.14341635710E+04  0.00000000000E+00 0. -1.
         22    1    3    3    0    0 -0.28385477851E+02  0.15158168815E+02 -0.21858575356E+02  0.38901192157E+02  0.00000000000E+00 0. -1.
         22    1    3    3    0    0  0.13733581484E+03  0.77118266946E+02 -0.12062303891E+03  0.19838918985E+03  0.00000000000E+00 0. -1.
</event>
<event>
 7    1  0.6219721E-006  0.5541301E+02  0.7818608E-02  0.1465944E+00
          2   -1    0    0  502    0  0.00000000000E+00  0.00000000000E+00  0.12598322611E+03  0.12598322611E+03  0.00000000000E+00 0. -1.
          1   -1    0    0  501    0 -0.00000000000E+00 -0.00000000000E+00 -0.32552704680E+03  0.32552704680E+03  0.00000000000E+00 0. -1.
         25    2    1    2    0    0 -0.52496639618E+02  0.16581574494E+02 -0.13386043005E+03  0.19124448539E+03  0.12499997070E+03 0.  0.
          2    1    1    2  501    0  0.99673495954E+00 -0.38795933501E+02 -0.15224971882E+03  0.15711809195E+03  0.00000000000E+00 0. -1.
          1    1    1    2  502    0  0.51499904659E+02  0.22214359007E+02  0.86566328184E+02  0.10314769557E+03  0.00000000000E+00 0. -1.
         22    1    3    3    0    0 -0.67234676544E+02 -0.36394247580E+02 -0.10272888054E+03  0.12805571399E+03  0.00000000000E+00 0. -1.
         22    1    3    3    0    0  0.14738036926E+02  0.52975822074E+02 -0.31131549508E+02  0.63188771404E+02  0.00000000000E+00 0. -1.
</event>
<event>
 7    1  0.6219721E-006  0.1628928E+03  0.7818608E-02  0.1243754E+00
          2   -1    0    0  502    0  0.00000000000E+00  0.00000000000E+00  0.19703788859E+04  0.19703788859E+04  0.00000000000E+00 0. -1.
          1   -1    0    0  501    0 -0.00000000000E+00 -0.00000000000E+00 -0.21102522978E+03  0.21102522978E+03  0.00000000000E+00 0. -1.
         25    2    1    2    0    0 -0.87348496507E+02  0.19787052706E+03  0.52477717847E+03  0.58120324958E+03  0.12499449968E+03 0.  0.
          2    1    1    2  501    0 -0.21097562041E+02 -0.85245326007E+02 -0.16766454500E+03  0.18927036847E+03  0.00000000000E+00 0. -1.
          1    1    1    2  502    0  0.10844605855E+03 -0.11262520106E+03  0.14022410226E+04  0.14109304976E+04  0.00000000000E+00 0. -1.
         22    1    3    3    0    0 -0.69949737195E+02  0.17499943072E+03  0.29786618844E+03  0.35247983305E+03  0.00000000000E+00 0.  1.
         22    1    3    3    0    0 -0.17398759312E+02  0.22871096340E+02  0.22691099003E+03  0.22872341653E+03  0.00000000000E+00 0.  1.
</event>
<event>
 7    1  0.6219721E-006  0.4577806E+02  0.7818608E-02  0.1529641E+00
          2   -1    0    0  502    0  0.00000000000E+00  0.00000000000E+00  0.11090876567E+04  0.11090876567E+04  0.00000000000E+00 0. -1.
          1   -1    0    0  501    0 -0.00000000000E+00 -0.00000000000E+00 -0.25293643265E+03  0.25293643265E+03  0.00000000000E+00 0. -1.
         25    2    1    2    0    0 -0.34586402408E+02 -0.12727419314E+02  0.24100510884E+03  0.27398445789E+03  0.12500325694E+03 0.  0.
          2    1    1    2  501    0 -0.89518298661E+01  0.28925331429E+02 -0.23484056104E+03  0.23678449942E+03  0.00000000000E+00 0. -1.
          1    1    1    2  502    0  0.43538232274E+02 -0.16197912114E+02  0.84998667629E+03  0.85125513209E+03  0.00000000000E+00 0. -1.
         22    1    3    3    0    0 -0.29419588304E+02  0.54244778264E+02  0.95199770172E+02  0.11345044903E+03  0.00000000000E+00 0. -1.
         22    1    3    3    0    0 -0.51668141044E+01 -0.66972197578E+02  0.14580533867E+03  0.16053400886E+03  0.00000000000E+00 0. -1.
</event>
<event>
 7    1  0.6219721E-006  0.1403805E+03  0.7818608E-02  0.1310290E+00
          2   -1    0    0  502    0  0.00000000000E+00  0.00000000000E+00  0.25376617739E+03  0.25376617739E+03  0.00000000000E+00 0. -1.
          1   -1    0    0  501    0 -0.00000000000E+00 -0.00000000000E+00 -0.17790105527E+04  0.17790105527E+04  0.00000000000E+00 0. -1.
         25    2    1    2    0    0  0.87567743043E+02  0.14063301149E+03 -0.12640350484E+01  0.20753985808E+03  0.12500176545E+03 0.  0.
          2    1    1    2  501    0 -0.52869900541E+02 -0.10562975744E+02 -0.16440005792E+04  0.16448844054E+04  0.00000000000E+00 0. -1.
          1    1    1    2  502    0 -0.34697842501E+02 -0.13007003575E+03  0.12002023888E+03  0.18035246662E+03  0.00000000000E+00 0. -1.
         22    1    3    3    0    0  0.11410697974E+03  0.10938269534E+03 -0.25204009848E+02  0.16006317183E+03  0.00000000000E+00 0.  1.
         22    1    3    3    0    0 -0.26539236692E+02  0.31250316153E+02  0.23939974800E+02  0.47476686250E+02  0.00000000000E+00 0.  1.
</event>
<event>
 7    1  0.6219721E-006  0.6798002E+02  0.7818608E-02  0.1410858E+00
          2   -1    0    0  502    0  0.00000000000E+00  0.00000000000E+00  0.23832469941E+03  0.23832469941E+03  0.00000000000E+00 0. -1.
          1   -1    0    0  501    0 -0.00000000000E+00 -0.00000000000E+00 -0.17301370764E+04  0.17301370764E+04  0.00000000000E+00 0. -1.
         25    2    1    2    0    0  0.30145320853E+02  0.15618381144E+02 -0.64249589529E+03  0.65542300111E+03  0.12500264283E+03 0.  0.
          2    1    1    2  501    0 -0.75637005456E+02 -0.95014824521E+00 -0.10773739754E+04  0.10800261767E+04  0.00000000000E+00 0. -1.
          1    1    1    2  502    0  0.45491684602E+02 -0.14668232899E+02  0.22805749370E+03  0.23301259806E+03  0.00000000000E+00 0. -1.
         22    1    3    3    0    0  0.23598299604E+02  0.21605843614E+02 -0.33362427979E+02  0.46224926426E+02  0.00000000000E+00 0. -1.
         22    1    3    3    0    0  0.65470212497E+01 -0.59874624699E+01 -0.60913346731E+03  0.60919807468E+03  0.00000000000E+00 0. -1.
</event>
<event>
 7    1  0.6219721E-006  0.4903877E+02  0.7818608E-02  0.1467505E+00
          2   -1    0    0  502    0  0.00000000000E+00  0.00000000000E+00  0.22758971330E+03  0.22758971330E+03  0.00000000000E+00 0. -1.
          1   -1    0    0  501    0 -0.00000000000E+00 -0.00000000000E+00 -0.13392871486E+03  0.13392871486E+03  0.00000000000E+00 0. -1.
         25    2    1    2    0    0 -0.55918441507E+02 -0.73453006949E+01 -0.61214589957E+01  0.13726883450E+03  0.12499774047E+03 0.  0.
          2    1    1    2  501    0  0.28937180477E+02  0.41292513371E+02 -0.48375696356E+02  0.69875890495E+02  0.00000000000E+00 0. -1.
          1    1    1    2  502    0  0.26981261029E+02 -0.33947212676E+02  0.14815815379E+03  0.15437370317E+03  0.00000000000E+00 0. -1.
         22    1    3    3    0    0  0.35692073042E+02  0.11043632355E+02 -0.20680845718E+02  0.42703433975E+02  0.00000000000E+00 0. -1.
         22    1    3    3    0    0 -0.91610514548E+02 -0.18388933050E+02  0.14559386723E+02  0.94565400524E+02  0.00000000000E+00 0. -1.
</event>
<event>
 7    1  0.6219721E-006  0.1030845E+03  0.7818608E-02  0.1327261E+00
          2   -1    0    0  502    0  0.00000000000E+00  0.00000000000E+00  0.73400043390E+02  0.73400043390E+02  0.00000000000E+00 0. -1.
          1   -1    0    0  501    0 -0.00000000000E+00 -0.00000000000E+00 -0.86423230125E+03  0.86423230125E+03  0.00000000000E+00 0. -1.
         25    2    1    2    0    0 -0.80637979274E+02  0.53055333105E+02 -0.16461679580E+03  0.22811196411E+03  0.12497610427E+03 0.  0.
          2    1    1    2  501    0 -0.30034647969E+02 -0.55463094010E+02 -0.58953978518E+03  0.59290420237E+03  0.00000000000E+00 0. -1.
          1    1    1    2  502    0  0.11067262724E+03  0.24077609045E+01 -0.36675676873E+02  0.11661617816E+03  0.00000000000E+00 0. -1.
         22    1    3    3    0    0  0.11358548947E+02 -0.25438929171E+02 -0.57380905294E+01  0.28444356813E+02  0.00000000000E+00 0. -1.
         22    1    3    3    0    0 -0.91996528221E+02  0.78494262276E+02 -0.15887870527E+03  0.19966760730E+03  0.00000000000E+00 0. -1.
</event>
<event>
 7    1  0.6219721E-006  0.7110742E+02  0.7818608E-02  0.1443211E+00
          2   -1    0    0  502    0  0.00000000000E+00  0.00000000000E+00  0.29573535453E+04  0.29573535453E+04  0.00000000000E+00 0. -1.
          1   -1    0    0  501    0 -0.00000000000E+00 -0.00000000000E+00 -0.50510895918E+03  0.50510895918E+03  0.00000000000E+00 0. -1.
         25    2    1    2    0    0  0.27732382960E+02  0.30126841955E+02  0.73012712310E+03  0.74188107299E+03  0.12500079562E+03 0.  0.
          2    1    1    2  501    0  0.90650676850E+01  0.34549364226E+02 -0.49796894317E+03  0.49924833739E+03  0.00000000000E+00 0. -1.
          1    1    1    2  502    0 -0.36797450645E+02 -0.64676206181E+02  0.22200864062E+04  0.22213330941E+04  0.00000000000E+00 0. -1.
         22    1    3    3    0    0  0.47204002449E+02  0.35860566215E+02  0.14843285509E+03  0.15983275799E+03  0.00000000000E+00 0.  1.
         22    1    3    3    0    0 -0.19471619489E+02 -0.57337242604E+01  0.58169426801E+03  0.58204831500E+03  0.00000000000E+00 0.  1.
</event>
<event>
 7    1  0.6219721E-006  0.5947186E+02  0.7818608E-02  0.1480016E+00
          2   -1    0    0  502    0  0.00000000000E+00  0.00000000000E+00  0.41182957981E+03  0.41182957981E+03  0.00000000000E+00 0. -1.
          1   -1    0    0  501    0 -0.00000000000E+00 -0.00000000000E+00 -0.20257168791E+03  0.20257168791E+03  0.00000000000E+00 0. -1.
         25    2    1    2    0    0 -0.79797931739E+02  0.26520184507E+02 -0.68612882889E+02  0.16554251008E+03  0.12500225938E+03 0.  0.
          2    1    1    2  501    0  0.54964488997E+02 -0.52354220449E+01 -0.75745542460E+02  0.93733088593E+02  0.00000000000E+00 0. -1.
          1    1    1    2  502    0  0.24833442742E+02 -0.21284762462E+02  0.35361631725E+03  0.35512566905E+03  0.00000000000E+00 0. -1.
         22    1    3    3    0    0 -0.18130652789E+02 -0.27820213187E+02  0.24556157507E+02  0.41299996415E+02  0.00000000000E+00 0. -1.
         22    1    3    3    0    0 -0.61667278950E+02  0.54340397694E+02 -0.93169040397E+02  0.12424251367E+03  0.00000000000E+00 0. -1.
</event>
<event>
 7    1  0.6219721E-006  0.1127184E+03  0.7818608E-02  0.1274774E+00
          2   -1    0    0  502    0  0.00000000000E+00  0.00000000000E+00  0.24083626552E+04  0.24083626552E+04  0.00000000000E+00 0. -1.
          1   -1    0    0  501    0 -0.00000000000E+00 -0.00000000000E+00 -0.53627518195E+02  0.53627518195E+02  0.00000000000E+00 0. -1.
         25    2    1    2    0    0  0.30385979337E+02  0.64429020186E+02  0.98372490114E+03  0.99419007060E+03  0.12499923588E+03 0.  0.
          2    1    1    2  501    0  0.92703614860E+02 -0.64120873132E+02  0.24085856003E+02  0.11526306884E+03  0.00000000000E+00 0. -1.
          1    1    1    2  502    0 -0.12308959420E+03 -0.30814705435E+00  0.13469243799E+04  0.13525370340E+04  0.00000000000E+00 0. -1.
         22    1    3    3    0    0  0.36967163112E+02 -0.21596589459E+02  0.14932072750E+03  0.15533725724E+03  0.00000000000E+00 0.  1.
         22    1    3    3    0    0 -0.65811837756E+01  0.86025609645E+02  0.83440417364E+03  0.83885281336E+03  0.00000000000E+00 0.  1.
</event>
<event>
 7    1  0.6219721E-006  0.1432362E+03  0.7818608E-02  0.1234986E+00
          2   -1    0    0  502    0  0.00000000000E+00  0.00000000000E+00  0.10722691059E+04  0.10722691059E+04  0.00000000000E+00 0. -1.
          1   -1    0    0  501    0 -0.00000000000E+00 -0.00000000000E+00 -0.14776603711E+04  0.14776603711E+04  0.00000000000E+00 0. -1.
         25    2    1    2    0    0  0.20856557504E+02  0.23493562669E+03 -0.94605983547E+02  0.28319928362E+03  0.12498718910E+03 0.  0.
          2    1    1    2  501    0 -0.51343964320E+02 -0.13010060248E+03 -0.12818949137E+04  0.12895025937E+04  0.00000000000E+00 0. -1.
          1    1    1    2  502    0  0.30487406815E+02 -0.10483502421E+03  0.97110963202E+03  0.97722759973E+03  0.00000000000E+00 0. -1.
         22    1    3    3    0    0 -0.15347258174E+02  0.21465393427E+03 -0.47425472726E+02  0.22036566269E+03  0.00000000000E+00 0.  1.
         22    1    3    3    0    0  0.36203815678E+02  0.20281692418E+02 -0.47180510821E+02  0.62833620924E+02  0.00000000000E+00 0.  1.
</event>
<event>
 7    1  0.6219721E-006  0.6997688E+02  0.7818608E-02  0.1444274E+00
          2   -1    0    0  502    0  0.00000000000E+00  0.00000000000E+00  0.24982787463E+04  0.24982787463E+04  0.00000000000E+00 0. -1.
          1   -1    0    0  501    0 -0.00000000000E+00 -0.00000000000E+00 -0.10286205305E+04  0.10286205305E+04  0.00000000000E+00 0. -1.
         25    2    1    2    0    0  0.31388639445E+02 -0.27484133011E+02  0.11652336569E+03  0.17590635013E+03  0.12499890004E+03 0.  0.
          2    1    1    2  501    0  0.35603366168E+02  0.53989413333E+01 -0.99807539501E+03  0.99872480813E+03  0.00000000000E+00 0. -1.
          1    1    1    2  502    0 -0.66992005613E+02  0.22085191677E+02  0.23512102451E+04  0.23522681185E+04  0.00000000000E+00 0. -1.
         22    1    3    3    0    0 -0.32328222911E+02 -0.28205769182E+02 -0.22141002653E+00  0.42903711194E+02  0.00000000000E+00 0.  1.
         22    1    3    3    0    0  0.63716862356E+02  0.72163617175E+00  0.11674477572E+03  0.13300263894E+03  0.00000000000E+00 0.  1.
</event>
<event>
 7    1  0.6219721E-006  0.5890815E+02  0.7818608E-02  0.1408930E+00
          2   -1    0    0  502    0  0.00000000000E+00  0.00000000000E+00  0.13658000838E+04  0.13658000838E+04  0.00000000000E+00 0. -1.
          1   -1    0    0  501    0 -0.00000000000E+00 -0.00000000000E+00 -0.10704543217E+03  0.10704543217E+03  0.00000000000E+00 0. -1.
         25    2    1    2    0    0 -0.11350532977E+01  0.24693608366E+01  0.38095880082E+03  0.40095141610E+03  0.12500017624E+03 0.  0.
          2    1    1    2  501    0 -0.49860333825E+02  0.31370637024E+02 -0.87050144728E+02  0.10510897894E+03  0.00000000000E+00 0. -1.
          1    1    1    2  502    0  0.50995387123E+02 -0.33839997860E+02  0.96484599555E+03  0.96678512095E+03  0.00000000000E+00 0. -1.
         22    1    3    3    0    0 -0.23625237622E+02 -0.56173653176E+02  0.15902604840E+03  0.17030242286E+03  0.00000000000E+00 0. -1.
         22    1    3    3    0    0  0.22490184324E+02  0.58643014013E+02  0.22193275242E+03  0.23064899324E+03  0.00000000000E+00 0. -1.
</event>
<event>
 7    1  0.8774273E-006  0.8065860E+02  0.7818608E-02  0.1366594E+00
          2   -1    0    0  502    0  0.00000000000E+00  0.00000000000E+00  0.11349084384E+04  0.11349084384E+04  0.00000000000E+00 0. -1.
          1   -1    0    0  501    0 -0.00000000000E+00 -0.00000000000E+00 -0.61389633696E+03  0.61389633696E+03  0.00000000000E+00 0. -1.
         25    2    1    2    0    0  0.57726850963E+02  0.24121653096E+01 -0.24637075842E+03  0.28224463484E+03  0.12500110170E+03 0.  0.
          2    1    1    2  501    0 -0.33265654662E+01  0.57439973401E+02 -0.34574402047E+03  0.35049870794E+03  0.00000000000E+00 0. -1.
          1    1    1    2  502    0 -0.54400285497E+02 -0.59852138711E+02  0.11131268803E+04  0.11160614325E+04  0.00000000000E+00 0. -1.
         22    1    3    3    0    0  0.20099846095E+02  0.63092757232E+02 -0.12368212014E+03  0.14029243269E+03  0.00000000000E+00 0.  1.
         22    1    3    3    0    0  0.37627004868E+02 -0.60680591922E+02 -0.12268863828E+03  0.14195220215E+03  0.00000000000E+00 0.  1.
</event>
<event>
 7    1  0.6219721E-006  0.2065963E+03  0.7818608E-02  0.1209888E+00
          2   -1    0    0  502    0  0.00000000000E+00  0.00000000000E+00  0.17096898143E+04  0.17096898143E+04  0.00000000000E+00 0. -1.
          1   -1    0    0  501    0 -0.00000000000E+00 -0.00000000000E+00 -0.13704923004E+04  0.13704923004E+04  0.00000000000E+00 0. -1.
         25    2    1    2    0    0 -0.11069687962E+02 -0.22694387355E+03 -0.38370569720E+03  0.46312423483E+03  0.12501173982E+03 0.  0.
          2    1    1    2  501    0  0.97992849997E+02  0.18080065896E+03 -0.93443680707E+03  0.95679863260E+03  0.00000000000E+00 0. -1.
          1    1    1    2  502    0 -0.86923162035E+02  0.46143214590E+02  0.16573400182E+04  0.16602592473E+04  0.00000000000E+00 0. -1.
         22    1    3    3    0    0 -0.13965144644E+02 -0.45239475819E+02 -0.11197527587E+02  0.48652030393E+02  0.00000000000E+00 0.  1.
         22    1    3    3    0    0  0.28954566821E+01 -0.18170439773E+03 -0.37250816962E+03  0.41447220444E+03  0.00000000000E+00 0.  1.
</event>
<event>
 7    1  0.6219721E-006  0.1361818E+03  0.7818608E-02  0.1376752E+00
          2   -1    0    0  502    0  0.00000000000E+00  0.00000000000E+00  0.23730753934E+04  0.23730753934E+04  0.00000000000E+00 0. -1.
          1   -1    0    0  501    0 -0.00000000000E+00 -0.00000000000E+00 -0.17602848687E+03  0.17602848687E+03  0.00000000000E+00 0. -1.
         25    2    1    2    0    0  0.71077663941E+02  0.93556760381E+02  0.50973399057E+03  0.53782693216E+03  0.12499666434E+03 0.  0.
          2    1    1    2  501    0 -0.65138865691E+01  0.30651628477E+02 -0.15778991446E+03  0.16087140875E+03  0.00000000000E+00 0. -1.
          1    1    1    2  502    0 -0.64563777372E+02 -0.12420838886E+03  0.18451028304E+04  0.18504055394E+04  0.00000000000E+00 0. -1.
         22    1    3    3    0    0  0.80207152030E+01  0.10063658472E+03  0.23334660630E+03  0.25424927282E+03  0.00000000000E+00 0. -1.
         22    1    3    3    0    0  0.63056948738E+02 -0.70798243430E+01  0.27638738427E+03  0.28357765934E+03  0.00000000000E+00 0. -1.
</event>
<event>
 7    1  0.6219721E-006  0.3981059E+02  0.7818608E-02  0.1553949E+00
          2   -1    0    0  502    0  0.00000000000E+00  0.00000000000E+00  0.94530245414E+03  0.94530245414E+03  0.00000000000E+00 0. -1.
          1   -1    0    0  501    0 -0.00000000000E+00 -0.00000000000E+00 -0.28521127867E+02  0.28521127867E+02  0.00000000000E+00 0. -1.
         25    2    1    2    0    0  0.16657332599E+02 -0.37181150692E+02  0.19379035744E+03  0.23417758816E+03  0.12499814185E+03 0.  0.
          2    1    1    2  501    0 -0.38267958178E+02  0.16759358289E+02  0.46533653422E+02  0.62535538809E+02  0.00000000000E+00 0. -1.
          1    1    1    2  502    0  0.21610625578E+02  0.20421792403E+02  0.67645731542E+03  0.67711045504E+03  0.00000000000E+00 0. -1.
         22    1    3    3    0    0 -0.52963284759E+02 -0.18934203168E+02  0.11128804906E+03  0.12469419973E+03  0.00000000000E+00 0.  1.
         22    1    3    3    0    0  0.69620617359E+02 -0.18246947524E+02  0.82502308381E+02  0.10948338844E+03  0.00000000000E+00 0.  1.
</event>
<event>
 7    1  0.6219721E-006  0.1081105E+03  0.7818608E-02  0.1390294E+00
          2   -1    0    0  502    0  0.00000000000E+00  0.00000000000E+00  0.79041152744E+03  0.79041152744E+03  0.00000000000E+00 0. -1.
          1   -1    0    0  501    0 -0.00000000000E+00 -0.00000000000E+00 -0.19494060348E+03  0.19494060348E+03  0.00000000000E+00 0. -1.
         25    2    1    2    0    0  0.36867012005E+02  0.76345902611E+02  0.11642913617E+03  0.19070350756E+03  0.12499684246E+03 0.  0.
          2    1    1    2  501    0  0.34011130620E+02  0.96936124509E+01 -0.15086467840E+03  0.15495442658E+03  0.00000000000E+00 0. -1.
          1    1    1    2  502    0 -0.70878142625E+02 -0.86039515062E+02  0.62990646619E+03  0.63969419679E+03  0.00000000000E+00 0. -1.
         22    1    3    3    0    0  0.39045743314E+02  0.86778100609E+02  0.13742685920E+03  0.16715606614E+03  0.00000000000E+00 0.  1.
         22    1    3    3    0    0 -0.21787313086E+01 -0.10432197998E+02 -0.20997723026E+02  0.23547441421E+02  0.00000000000E+00 0.  1.
</event>
<event>
 7    1  0.6219721E-006  0.6259668E+02  0.7818608E-02  0.1494731E+00
          2   -1    0    0  502    0  0.00000000000E+00  0.00000000000E+00  0.30645069939E+03  0.30645069939E+03  0.00000000000E+00 0. -1.
          1   -1    0    0  501    0 -0.00000000000E+00 -0.00000000000E+00 -0.65553188245E+03  0.65553188245E+03  0.00000000000E+00 0. -1.
         25    2    1    2    0    0  0.22115581522E+02  0.83962188556E+02 -0.16817987407E+03  0.22682070535E+03  0.12499765710E+03 0.  0.
          2    1    1    2  501    0 -0.17448223400E+02 -0.21944733215E+02 -0.45410453882E+03  0.45496916818E+03  0.00000000000E+00 0. -1.
          1    1    1    2  502    0 -0.46673581213E+01 -0.62017455341E+02  0.27320322983E+03  0.28019270831E+03  0.00000000000E+00 0. -1.
         22    1    3    3    0    0  0.58023270271E+02  0.70019377131E+02 -0.16470923330E+03  0.18814500951E+03  0.00000000000E+00 0.  1.
         22    1    3    3    0    0 -0.35907688749E+02  0.13942811425E+02 -0.34706407680E+01  0.38675695845E+02  0.00000000000E+00 0.  1.
</event>
<event>
 7    1  0.6219721E-006  0.9327200E+02  0.7818608E-02  0.1304803E+00
          2   -1    0    0  502    0  0.00000000000E+00  0.00000000000E+00  0.71201118070E+03  0.71201118070E+03  0.00000000000E+00 0. -1.
          1   -1    0    0  501    0 -0.00000000000E+00 -0.00000000000E+00 -0.23246295959E+04  0.23246295959E+04  0.00000000000E+00 0. -1.
         25    2    1    2    0    0  0.31836606093E+02  0.86530327292E+02  0.37371808223E+01  0.15537018674E+03  0.12499944552E+03 0.  0.
          2    1    1    2  501    0 -0.84956214501E+02 -0.76940228828E+01 -0.22444261472E+04  0.22460466350E+04  0.00000000000E+00 0. -1.
          1    1    1    2  502    0  0.53119608407E+02 -0.78836304409E+02  0.62807055112E+03  0.63522395490E+03  0.00000000000E+00 0. -1.
         22    1    3    3    0    0 -0.77042548247E+01  0.89754129649E+02  0.42764532867E+02  0.99719429414E+02  0.00000000000E+00 0.  1.
         22    1    3    3    0    0  0.39540860918E+02 -0.32238023572E+01 -0.39027352045E+02  0.55650757330E+02  0.00000000000E+00 0.  1.
</event>
<event>
 7    1  0.6219721E-006  0.1024690E+03  0.7818608E-02  0.1422329E+00
          2   -1    0    0  502    0  0.00000000000E+00  0.00000000000E+00  0.11268874866E+04  0.11268874866E+04  0.00000000000E+00 0. -1.
          1   -1    0    0  501    0 -0.00000000000E+00 -0.00000000000E+00 -0.98315096265E+02  0.98315096265E+02  0.00000000000E+00 0. -1.
         25    2    1    2    0    0  0.81212737589E+02  0.16199419851E+02  0.31537516858E+03  0.34920498751E+03  0.12499878560E+03 0.  0.
          2    1    1    2  501    0  0.18463961651E+02  0.22388566069E+02 -0.75087064159E+02  0.80499894251E+02  0.00000000000E+00 0. -1.
          1    1    1    2  502    0 -0.99676699239E+02 -0.38587985920E+02  0.78828428597E+03  0.79549770115E+03  0.00000000000E+00 0. -1.
         22    1    3    3    0    0  0.55880413241E+02  0.48170649711E+02  0.29407399927E+03  0.30318731690E+03  0.00000000000E+00 0.  1.
         22    1    3    3    0    0  0.25332324348E+02 -0.31971229860E+02  0.21301169302E+02  0.46017670619E+02  0.00000000000E+00 0.  1.
</event>
<event>
 7    1  0.6219721E-006  0.7533731E+02  0.7818608E-02  0.1363875E+00
          2   -1    0    0  502    0  0.00000000000E+00  0.00000000000E+00  0.24516043933E+03  0.24516043933E+03  0.00000000000E+00 0. -1.
          1   -1    0    0  501    0 -0.00000000000E+00 -0.00000000000E+00 -0.30427666697E+03  0.30427666697E+03  0.00000000000E+00 0. -1.
         25    2    1    2    0    0  0.23919717347E+02 -0.62696064876E+02  0.13310713053E+03  0.19454187173E+03  0.12500432883E+03 0.  0.
          2    1    1    2  501    0  0.39017973009E+02  0.65764866581E+02 -0.25483766111E+03  0.26606325078E+03  0.00000000000E+00 0. -1.
          1    1    1    2  502    0 -0.62937690356E+02 -0.30688017049E+01  0.62614302943E+02  0.88831983791E+02  0.00000000000E+00 0. -1.
         22    1    3    3    0    0 -0.37588656813E+02  0.15967553357E+02  0.27709538575E+02  0.49352694043E+02  0.00000000000E+00 0. -1.
         22    1    3    3    0    0  0.61508374160E+02 -0.78663618233E+02  0.10539759196E+03  0.14518917768E+03  0.00000000000E+00 0. -1.
</event>
<event>
 7    1  0.6219721E-006  0.3567185E+02  0.7818608E-02  0.1573094E+00
          2   -1    0    0  502    0  0.00000000000E+00  0.00000000000E+00  0.63374972490E+02  0.63374972490E+02  0.00000000000E+00 0. -1.
          1   -1    0    0  501    0 -0.00000000000E+00 -0.00000000000E+00 -0.92914161632E+03  0.92914161632E+03  0.00000000000E+00 0. -1.
         25    2    1    2    0    0  0.34056807335E+01  0.47182577690E+02 -0.26861778460E+03  0.30003160351E+03  0.12500261837E+03 0.  0.
          2    1    1    2  501    0  0.20045647552E+02 -0.29438910318E+02 -0.63973843581E+03  0.64072907198E+03  0.00000000000E+00 0. -1.
          1    1    1    2  502    0 -0.23451328285E+02 -0.17743667373E+02  0.42589576585E+02  0.51755913322E+02  0.00000000000E+00 0. -1.
         22    1    3    3    0    0 -0.38948816449E+02  0.13229411925E+02 -0.20339263417E+02  0.45888051593E+02  0.00000000000E+00 0.  1.
         22    1    3    3    0    0  0.42354497183E+02  0.33953165765E+02 -0.24827852119E+03  0.25414355192E+03  0.00000000000E+00 0.  1.
</event>
<event>
 7    1  0.6219721E-006  0.5107266E+02  0.7818608E-02  0.1442949E+00
          2   -1    0    0  502    0  0.00000000000E+00  0.00000000000E+00  0.91574880102E+03  0.91574880102E+03  0.00000000000E+00 0. -1.
          1   -1    0    0  501    0 -0.00000000000E+00 -0.00000000000E+00 -0.16553023384E+03  0.16553023384E+03  0.00000000000E+00 0. -1.
         25    2    1    2    0    0  0.32798009533E+02  0.25124081852E+02  0.20182763674E+03  0.24097414201E+03  0.12500885267E+03 0.  0.
          2    1    1    2  501    0 -0.46457541126E+02  0.22794833405E+02 -0.14044179976E+03  0.14967233103E+03  0.00000000000E+00 0. -1.
          1    1    1    2  502    0  0.13659531593E+02 -0.47918915257E+02  0.68883273020E+03  0.69063256181E+03  0.00000000000E+00 0. -1.
         22    1    3    3    0    0  0.38074366209E+02  0.62802933179E+02  0.62159836318E+02  0.96216999689E+02  0.00000000000E+00 0.  1.
         22    1    3    3    0    0 -0.52763566753E+01 -0.37678851327E+02  0.13966780042E+03  0.14475714232E+03  0.00000000000E+00 0.  1.
</event>
<event>
 7    1  0.6219721E-006  0.2187383E+03  0.7818608E-02  0.1294592E+00
          2   -1    0    0  502    0  0.00000000000E+00  0.00000000000E+00  0.32387524382E+03  0.32387524382E+03  0.00000000000E+00 0. -1.
          1   -1    0    0  501    0 -0.00000000000E+00 -0.00000000000E+00 -0.92422859813E+03  0.92422859813E+03  0.00000000000E+00 0. -1.
         25    2    1    2    0    0  0.22070280964E+03  0.11151131000E+03 -0.18093846494E+03  0.33092053170E+03  0.12500067104E+03 0.  0.
          2    1    1    2  501    0 -0.39886575276E+02  0.25242081291E+01 -0.62163523223E+03  0.62291867243E+03  0.00000000000E+00 0. -1.
          1    1    1    2  502    0 -0.18081623437E+03 -0.11403551813E+03  0.20222034287E+03  0.29426463783E+03  0.00000000000E+00 0. -1.
         22    1    3    3    0    0  0.14382190561E+03  0.10351464922E+03 -0.59412001194E+02  0.18689518191E+03  0.00000000000E+00 0.  1.
         22    1    3    3    0    0  0.76880904037E+02  0.79966607732E+01 -0.12152646375E+03  0.14402534978E+03  0.00000000000E+00 0.  1.
</event>
<event>
 7    1  0.6219721E-006  0.6093610E+02  0.7818608E-02  0.1509287E+00
          2   -1    0    0  502    0  0.00000000000E+00  0.00000000000E+00  0.87482881179E+03  0.87482881179E+03  0.00000000000E+00 0. -1.
          1   -1    0    0  501    0 -0.00000000000E+00 -0.00000000000E+00 -0.11526958957E+03  0.11526958957E+03  0.00000000000E+00 0. -1.
         25    2    1    2    0    0  0.31729832344E+02  0.35186325652E+02  0.32676149920E+03  0.35304768565E+03  0.12499892484E+03 0.  0.
          2    1    1    2  501    0 -0.19531233916E+02 -0.58221701030E+02 -0.92542286407E+02  0.11106444230E+03  0.00000000000E+00 0. -1.
          1    1    1    2  502    0 -0.12198598428E+02  0.23035375379E+02  0.52534000942E+03  0.52598627342E+03  0.00000000000E+00 0. -1.
         22    1    3    3    0    0  0.12103151335E+02 -0.20718682363E+02  0.33192105349E+01  0.24223278672E+02  0.00000000000E+00 0.  1.
         22    1    3    3    0    0  0.19626681009E+02  0.55905008014E+02  0.32344228867E+03  0.32882440698E+03  0.00000000000E+00 0.  1.
</event>
<event>
 7    1  0.6219721E-006  0.1530865E+03  0.7818608E-02  0.1255733E+00
          2   -1    0    0  502    0  0.00000000000E+00  0.00000000000E+00  0.50266501680E+03  0.50266501680E+03  0.00000000000E+00 0. -1.
          1   -1    0    0  501    0 -0.00000000000E+00 -0.00000000000E+00 -0.10157027898E+04  0.10157027898E+04  0.00000000000E+00 0. -1.
         25    2    1    2    0    0  0.22728761923E+03 -0.24003202865E+02 -0.20475790040E+03  0.33134112637E+03  0.12500131457E+03 0.  0.
          2    1    1    2  501    0 -0.82056597321E+02 -0.11794803410E+02 -0.73251678717E+03  0.73719281469E+03  0.00000000000E+00 0. -1.
          1    1    1    2  502    0 -0.14523102191E+03  0.35798006275E+02  0.42423691453E+03  0.44983386558E+03  0.00000000000E+00 0. -1.
         22    1    3    3    0    0  0.15253190543E+02  0.11790603983E+02 -0.80945095055E+02  0.83209293817E+02  0.00000000000E+00 0. -1.
         22    1    3    3    0    0  0.21203442869E+03 -0.35793806848E+02 -0.12381280534E+03  0.24813183255E+03  0.00000000000E+00 0. -1.
</event>
<event>
 7    1  0.6219721E-006  0.1704741E+03  0.7818608E-02  0.1207369E+00
          2   -1    0    0  502    0  0.00000000000E+00  0.00000000000E+00  0.15454941296E+04  0.15454941296E+04  0.00000000000E+00 0. -1.
          1   -1    0    0  501    0 -0.00000000000E+00 -0.00000000000E+00 -0.13940524697E+04  0.13940524697E+04  0.00000000000E+00 0. -1.
         25    2    1    2    0    0  0.23429687474E+03 -0.17272650789E+03  0.31840467783E+03  0.44915040634E+03  0.12500030644E+03 0.  0.
          2    1    1    2  501    0 -0.13241527699E+03  0.10466826174E+03 -0.13200605053E+04  0.13308076451E+04  0.00000000000E+00 0. -1.
          1    1    1    2  502    0 -0.10188159775E+03  0.68058246144E+02  0.11530974874E+04  0.11595885479E+04  0.00000000000E+00 0. -1.
         22    1    3    3    0    0  0.21721963925E+03 -0.10470337672E+03  0.27877024217E+03  0.36859193791E+03  0.00000000000E+00 0. -1.
         22    1    3    3    0    0  0.17077235490E+02 -0.68023131165E+02  0.39634435664E+02  0.80558468431E+02  0.00000000000E+00 0. -1.
</event>
<event>
 7    1  0.6219721E-006  0.4297028E+02  0.7818608E-02  0.1593310E+00
          2   -1    0    0  502    0  0.00000000000E+00  0.00000000000E+00  0.49643501740E+03  0.49643501740E+03  0.00000000000E+00 0. -1.
          1   -1    0    0  501    0 -0.00000000000E+00 -0.00000000000E+00 -0.68952225227E+02  0.68952225227E+02  0.00000000000E+00 0. -1.
         25    2    1    2    0    0 -0.20523330024E+02  0.13315572749E+02  0.94867692071E+02  0.15881857972E+03  0.12499980285E+03 0.  0.
          2    1    1    2  501    0  0.41808094704E+02 -0.16743878692E+02 -0.22814785301E+02  0.50485529459E+02  0.00000000000E+00 0. -1.
          1    1    1    2  502    0 -0.21284764681E+02  0.34283059428E+01  0.35542988540E+03  0.35608313345E+03  0.00000000000E+00 0. -1.
         22    1    3    3    0    0 -0.81711004496E-01  0.50037904687E+02  0.10435607305E+03  0.11573240067E+03  0.00000000000E+00 0.  1.
         22    1    3    3    0    0 -0.20441619019E+02 -0.36722331939E+02 -0.94883809826E+01  0.43086179046E+02  0.00000000000E+00 0.  1.
</event>
<event>
 7    1  0.6219721E-006  0.1118682E+03  0.7818608E-02  0.1319726E+00
          2   -1    0    0  502    0  0.00000000000E+00  0.00000000000E+00  0.27932463712E+03  0.27932463712E+03  0.00000000000E+00 0. -1.
          1   -1    0    0  501    0 -0.00000000000E+00 -0.00000000000E+00 -0.10847593228E+04  0.10847593228E+04  0.00000000000E+00 0. -1.
         25    2    1    2    0    0  0.87170355894E+02  0.12754856174E+03 -0.46882601854E+02  0.20418222503E+03  0.12500038445E+03 0.  0.
          2    1    1    2  501    0 -0.16072912828E+01 -0.62124910671E+02 -0.94367803369E+03  0.94572211520E+03  0.00000000000E+00 0. -1.
          1    1    1    2  502    0 -0.85563064611E+02 -0.65423651068E+02  0.18512594991E+03  0.21417961965E+03  0.00000000000E+00 0. -1.
         22    1    3    3    0    0  0.97977743264E+02  0.12190014411E+03 -0.67861543265E+00  0.15639611193E+03  0.00000000000E+00 0. -1.
         22    1    3    3    0    0 -0.10807387370E+02  0.56484176286E+01 -0.46203986421E+02  0.47786113094E+02  0.00000000000E+00 0. -1.
</event>
<event>
 7    1  0.6219721E-006  0.1668370E+03  0.7818608E-02  0.1213810E+00
          2   -1    0    0  502    0  0.00000000000E+00  0.00000000000E+00  0.29894910011E+04  0.29894910011E+04  0.00000000000E+00 0. -1.
          1   -1    0    0  501    0 -0.00000000000E+00 -0.00000000000E+00 -0.57874218623E+03  0.57874218623E+03  0.00000000000E+00 0. -1.
         25    2    1    2    0    0  0.75498484090E+02 -0.33780861349E+02  0.54269636312E+01  0.14998536928E+03  0.12499996549E+03 0.  0.
          2    1    1    2  501    0 -0.18708905053E+03 -0.98851450851E+00 -0.48796437289E+03  0.52260168312E+03  0.00000000000E+00 0. -1.
          1    1    1    2  502    0  0.11159056644E+03  0.34769375858E+02  0.28932862241E+04  0.28956461349E+04  0.00000000000E+00 0. -1.
         22    1    3    3    0    0  0.90706104882E+02 -0.66697460910E+02  0.11671589611E+02  0.11319176100E+03  0.00000000000E+00 0.  1.
         22    1    3    3    0    0 -0.15207620792E+02  0.32916599561E+02 -0.62446259793E+01  0.36793608282E+02  0.00000000000E+00 0.  1.
</event>
<event>
 7    1  0.6219721E-006  0.1300713E+03  0.7818608E-02  0.1340800E+00
          2   -1    0    0  502    0  0.00000000000E+00  0.00000000000E+00  0.58908987561E+03  0.58908987561E+03  0.00000000000E+00 0. -1.
          1   -1    0    0  501    0 -0.00000000000E+00 -0.00000000000E+00 -0.67940741921E+03  0.67940741921E+03  0.00000000000E+00 0. -1.
         25    2    1    2    0    0 -0.55800008182E+00  0.95628113406E+02 -0.84247586915E+02  0.17851485350E+03  0.12499939833E+03 0.  0.
          2    1    1    2  501    0 -0.29420134687E+02  0.33263352510E+02 -0.53902149129E+03  0.54084763383E+03  0.00000000000E+00 0. -1.
          1    1    1    2  502    0  0.29978134769E+02 -0.12889146592E+03  0.53295153460E+03  0.54913480748E+03  0.00000000000E+00 0. -1.
         22    1    3    3    0    0  0.10563302502E+02  0.12470099244E+03 -0.75595376460E+02  0.14620732478E+03  0.00000000000E+00 0.  1.
         22    1    3    3    0    0 -0.11121302584E+02 -0.29072879037E+02 -0.86522104549E+01  0.32307528727E+02  0.00000000000E+00 0.  1.
</event>
<event>
 7    1  0.6219721E-006  0.7413698E+02  0.7818608E-02  0.1363450E+00
          2   -1    0    0  502    0  0.00000000000E+00  0.00000000000E+00  0.48280364929E+03  0.48280364929E+03  0.00000000000E+00 0. -1.
          1   -1    0    0  501    0 -0.00000000000E+00 -0.00000000000E+00 -0.20452928126E+04  0.20452928126E+04  0.00000000000E+00 0. -1.
         25    2    1    2    0    0 -0.13354827055E+03  0.35211556650E+02 -0.13902766124E+04  0.14027001991E+04  0.12499518068E+03 0.  0.
          2    1    1    2  501    0  0.62884434919E+02 -0.13225393260E+02 -0.64432361395E+03  0.64752010214E+03  0.00000000000E+00 0. -1.
          1    1    1    2  502    0  0.70663835630E+02 -0.21986163390E+02  0.47211106307E+03  0.47787616065E+03  0.00000000000E+00 0. -1.
         22    1    3    3    0    0 -0.14572103438E+02 -0.51747096107E+01 -0.14500641986E+02  0.21198878182E+02  0.00000000000E+00 0.  1.
         22    1    3    3    0    0 -0.11897616711E+03  0.40386266261E+02 -0.13757759705E+04  0.13815013209E+04  0.00000000000E+00 0.  1.
</event>
<event>
 7    1  0.6219721E-006  0.4392060E+02  0.7818608E-02  0.1575944E+00
          2   -1    0    0  502    0  0.00000000000E+00  0.00000000000E+00  0.13849750335E+02  0.13849750335E+02  0.00000000000E+00 0. -1.
          1   -1    0    0  501    0 -0.00000000000E+00 -0.00000000000E+00 -0.23854895808E+04  0.23854895808E+04  0.00000000000E+00 0. -1.
         25    2    1    2    0    0 -0.65581989204E+02 -0.10325656757E+02 -0.17489813342E+04  0.17546993111E+04  0.12500539431E+03 0.  0.
          2    1    1    2  501    0  0.22327965784E+02  0.72151126061E+01 -0.58971160855E+03  0.59017825880E+03  0.00000000000E+00 0. -1.
          1    1    1    2  502    0  0.43254023420E+02  0.31105441511E+01 -0.32946887804E+02  0.54461761291E+02  0.00000000000E+00 0. -1.
         22    1    3    3    0    0  0.84836741043E+01 -0.34155564433E+02 -0.16047901220E+03  0.16429269206E+03  0.00000000000E+00 0.  1.
         22    1    3    3    0    0 -0.74065663308E+02  0.23829907675E+02 -0.15885023220E+04  0.15904066190E+04  0.00000000000E+00 0.  1.
</event>
<event>
 7    1  0.6219721E-006  0.2975770E+02  0.7818608E-02  0.1601175E+00
          2   -1    0    0  502    0  0.00000000000E+00  0.00000000000E+00  0.20791696265E+03  0.20791696265E+03  0.00000000000E+00 0. -1.
          1   -1    0    0  501    0 -0.00000000000E+00 -0.00000000000E+00 -0.22183374464E+03  0.22183374464E+03  0.00000000000E+00 0. -1.
         25    2    1    2    0    0 -0.27293276228E+02 -0.22521760904E+02  0.71402014597E+02  0.14824149558E+03  0.12500056272E+03 0.  0.
          2    1    1    2  501    0  0.28769994506E+02 -0.76031542670E+01 -0.17984370838E+03  0.18228900127E+03  0.00000000000E+00 0. -1.
          1    1    1    2  502    0 -0.14767182786E+01  0.30124915171E+02  0.94524911796E+02  0.99220210446E+02  0.00000000000E+00 0. -1.
         22    1    3    3    0    0  0.47875299308E+02 -0.22096357511E+02  0.16823084738E+02  0.55347172278E+02  0.00000000000E+00 0. -1.
         22    1    3    3    0    0 -0.75168575536E+02 -0.42540339233E+00  0.54578929860E+02  0.92894323297E+02  0.00000000000E+00 0. -1.
</event>
<event>
 7    1  0.6219721E-006  0.3794818E+02  0.7818608E-02  0.1565160E+00
          2   -1    0    0  502    0  0.00000000000E+00  0.00000000000E+00  0.46306798729E+03  0.46306798729E+03  0.00000000000E+00 0. -1.
          1   -1    0    0  501    0 -0.00000000000E+00 -0.00000000000E+00 -0.47806042584E+03  0.47806042584E+03  0.00000000000E+00 0. -1.
         25    2    1    2    0    0  0.11909910282E+02  0.64187877145E+02  0.10773814666E+03  0.17746773754E+03  0.12500144034E+03 0.  0.
          2    1    1    2  501    0 -0.10492245860E+02 -0.27090845097E+02 -0.44164162309E+03  0.44259611877E+03  0.00000000000E+00 0. -1.
          1    1    1    2  502    0 -0.14176644215E+01 -0.37097032048E+02  0.31891103788E+03  0.32106455681E+03  0.00000000000E+00 0. -1.
         22    1    3    3    0    0 -0.43775742188E+02  0.71120524338E+02  0.76438088291E+02  0.11321318796E+03  0.00000000000E+00 0.  1.
         22    1    3    3    0    0  0.55685652470E+02 -0.69326471929E+01  0.31300058372E+02  0.64254549583E+02  0.00000000000E+00 0.  1.
</event>
<event>
 7    1  0.6219721E-006  0.6506124E+02  0.7818608E-02  0.1378823E+00
          2   -1    0    0  502    0  0.00000000000E+00  0.00000000000E+00  0.15713720369E+03  0.15713720369E+03  0.00000000000E+00 0. -1.
          1   -1    0    0  501    0 -0.00000000000E+00 -0.00000000000E+00 -0.86939373953E+03  0.86939373953E+03  0.00000000000E+00 0. -1.
         25    2    1    2    0    0 -0.13118262052E+02  0.28786622873E+01 -0.30088883039E+03  0.32609779307E+03  0.12500122758E+03 0.  0.
          2    1    1    2  501    0  0.69426724772E+02  0.29714616674E+02 -0.54584487357E+03  0.55104414937E+03  0.00000000000E+00 0. -1.
          1    1    1    2  502    0 -0.56308462720E+02 -0.32593278962E+02  0.13447716812E+03  0.14938900078E+03  0.00000000000E+00 0. -1.
         22    1    3    3    0    0  0.29268961224E+02  0.26009501242E+02 -0.25968299587E+03  0.26261840109E+03  0.00000000000E+00 0.  1.
         22    1    3    3    0    0 -0.42387223276E+02 -0.23130838954E+02 -0.41205834520E+02  0.63479391981E+02  0.00000000000E+00 0.  1.
</event>
<event>
 7    1  0.6219721E-006  0.1999005E+03  0.7818608E-02  0.1338016E+00
          2   -1    0    0  502    0  0.00000000000E+00  0.00000000000E+00  0.98856329145E+03  0.98856329145E+03  0.00000000000E+00 0. -1.
          1   -1    0    0  501    0 -0.00000000000E+00 -0.00000000000E+00 -0.81389501515E+03  0.81389501515E+03  0.00000000000E+00 0. -1.
         25    2    1    2    0    0  0.15445145926E+03  0.11995853237E+03 -0.16386751095E+02  0.23267723432E+03  0.12499946801E+03 0.  0.
          2    1    1    2  501    0 -0.13876034917E+03 -0.14505833641E+03 -0.67449103114E+03  0.70372900079E+03  0.00000000000E+00 0. -1.
          1    1    1    2  502    0 -0.15691110095E+02  0.25099804042E+02  0.86554605853E+03  0.86605207149E+03  0.00000000000E+00 0. -1.
         22    1    3    3    0    0  0.12135401315E+03  0.13459977444E+03 -0.44777851981E+02  0.18667873959E+03  0.00000000000E+00 0. -1.
         22    1    3    3    0    0  0.33097446113E+02 -0.14641242066E+02  0.28391100886E+02  0.45998494736E+02  0.00000000000E+00 0. -1.
</event>
<event>
 7    1  0.6219721E-006  0.8053937E+02  0.7818608E-02  0.1461458E+00
          2   -1    0    0  502    0  0.00000000000E+00  0.00000000000E+00  0.14536112219E+04  0.14536112219E+04  0.00000000000E+00 0. -1.
          1   -1    0    0  501    0 -0.00000000000E+00 -0.00000000000E+00 -0.18787611393E+03  0.18787611393E+03  0.00000000000E+00 0. -1.
         25    2    1    2    0    0  0.28231643575E+02  0.52323625067E+02  0.84568852748E+03  0.85694042269E+03  0.12499206009E+03 0.  0.
          2    1    1    2  501    0 -0.19339676532E+02 -0.78432069361E+02 -0.17296241668E+03  0.19089685743E+03  0.00000000000E+00 0. -1.
          1    1    1    2  502    0 -0.88919670434E+01  0.26108444295E+02  0.59300899714E+03  0.59365005570E+03  0.00000000000E+00 0. -1.
         22    1    3    3    0    0 -0.22251764988E+02 -0.71434275797E+01  0.56862962820E+03  0.56910967631E+03  0.00000000000E+00 0.  1.
         22    1    3    3    0    0  0.50483408563E+02  0.59467052646E+02  0.27705889928E+03  0.28783074638E+03  0.00000000000E+00 0.  1.
</event>
<event>
 7    1  0.6219721E-006  0.7867516E+02  0.7818608E-02  0.1488516E+00
          2   -1    0    0  502    0  0.00000000000E+00  0.00000000000E+00  0.10857018643E+04  0.10857018643E+04  0.00000000000E+00 0. -1.
          1   -1    0    0  501    0 -0.00000000000E+00 -0.00000000000E+00 -0.11251655630E+04  0.11251655630E+04  0.00000000000E+00 0. -1.
         25    2    1    2    0    0 -0.57005236799E+02 -0.32727760483E+01 -0.93809996505E+02  0.16638984446E+03  0.12499982724E+03 0.  0.
          2    1    1    2  501    0  0.79595692793E+02 -0.23970803649E+01 -0.99334283914E+03  0.99652958630E+03  0.00000000000E+00 0. -1.
          1    1    1    2  502    0 -0.22590455994E+02  0.56698564133E+01  0.10476891369E+04  0.10479479966E+04  0.00000000000E+00 0. -1.
         22    1    3    3    0    0 -0.44411081408E+01  0.51827116880E+02 -0.68771322638E+02  0.86228001850E+02  0.00000000000E+00 0. -1.
         22    1    3    3    0    0 -0.52564128659E+02 -0.55099892928E+02 -0.25038673867E+02  0.80161842615E+02  0.00000000000E+00 0. -1.
</event>
<event>
 7    1  0.6219721E-006  0.1058885E+03  0.7818608E-02  0.1366855E+00
          2   -1    0    0  502    0  0.00000000000E+00  0.00000000000E+00  0.50030988894E+02  0.50030988894E+02  0.00000000000E+00 0. -1.
          1   -1    0    0  501    0 -0.00000000000E+00 -0.00000000000E+00 -0.13093955587E+04  0.13093955587E+04  0.00000000000E+00 0. -1.
         25    2    1    2    0    0  0.27703048907E+02  0.69143360433E+02 -0.38159431758E+03  0.40839715597E+03  0.12500300230E+03 0.  0.
          2    1    1    2  501    0 -0.22384617405E+02 -0.11255069334E+03 -0.89624026192E+03  0.90355704677E+03  0.00000000000E+00 0. -1.
          1    1    1    2  502    0 -0.53184315015E+01  0.43407332907E+02  0.18470009731E+02  0.47472344825E+02  0.00000000000E+00 0. -1.
         22    1    3    3    0    0  0.59631402527E+02  0.41550579714E+00 -0.24537176096E+03  0.25251411424E+03  0.00000000000E+00 0.  1.
         22    1    3    3    0    0 -0.31928353620E+02  0.68727854636E+02 -0.13622255662E+03  0.15588304173E+03  0.00000000000E+00 0.  1.
</event>
<event>
 7    1  0.6219721E-006  0.9666870E+02  0.7818608E-02  0.1480825E+00
          2   -1    0    0  502    0  0.00000000000E+00  0.00000000000E+00  0.18815308046E+04  0.18815308046E+04  0.00000000000E+00 0. -1.
          1   -1    0    0  501    0 -0.00000000000E+00 -0.00000000000E+00 -0.44363407634E+03  0.44363407634E+03  0.00000000000E+00 0. -1.
         25    2    1    2    0    0 -0.60453395452E+02 -0.97666187826E+02  0.90385219316E+03  0.91965615337E+03  0.12500142431E+03 0.  0.
          2    1    1    2  501    0  0.44369909155E+02  0.85766526172E+02 -0.43027710703E+03  0.44097956266E+03  0.00000000000E+00 0. -1.
          1    1    1    2  502    0  0.16083486297E+02  0.11899661654E+02  0.96432164209E+03  0.96452916487E+03  0.00000000000E+00 0. -1.
         22    1    3    3    0    0 -0.50144664013E+02 -0.12702285380E+03  0.67290450647E+03  0.68662199757E+03  0.00000000000E+00 0.  1.
         22    1    3    3    0    0 -0.10308731439E+02  0.29356665976E+02  0.23094768669E+03  0.23303415580E+03  0.00000000000E+00 0.  1.
</event>
<event>
 7    1  0.6219721E-006  0.1502765E+03  0.7818608E-02  0.1264709E+00
          2   -1    0    0  502    0  0.00000000000E+00  0.00000000000E+00  0.34332123878E+03  0.34332123878E+03  0.00000000000E+00 0. -1.
          1   -1    0    0  501    0 -0.00000000000E+00 -0.00000000000E+00 -0.29216257697E+03  0.29216257697E+03  0.00000000000E+00 0. -1.
         25    2    1    2    0    0 -0.82625149577E+02 -0.13217607638E+03  0.25833788878E+03  0.32659652063E+03  0.12501756676E+03 0.  0.
          2    1    1    2  501    0  0.13278675003E+03  0.73333200807E+02 -0.13310187665E+03  0.20180730634E+03  0.00000000000E+00 0. -1.
          1    1    1    2  502    0 -0.50161600453E+02  0.58842875577E+02 -0.74077350313E+02  0.10707998877E+03  0.00000000000E+00 0. -1.
         22    1    3    3    0    0 -0.11257697854E+03 -0.78803244546E+02  0.16164410056E+03  0.21216112437E+03  0.00000000000E+00 0. -1.
         22    1    3    3    0    0  0.29951828965E+02 -0.53372831837E+02  0.96693788214E+02  0.11443539625E+03  0.00000000000E+00 0. -1.
</event>
<event>
 7    1  0.6219721E-006  0.1129593E+03  0.7818608E-02  0.1405384E+00
          2   -1    0    0  502    0  0.00000000000E+00  0.00000000000E+00  0.23825678028E+03  0.23825678028E+03  0.00000000000E+00 0. -1.
          1   -1    0    0  501    0 -0.00000000000E+00 -0.00000000000E+00 -0.12064908956E+04  0.12064908956E+04  0.00000000000E+00 0. -1.
         25    2    1    2    0    0  0.44924196046E+02 -0.10127878592E+03 -0.71741713267E+02  0.18178957453E+03  0.12500000046E+03 0.  0.
          2    1    1    2  501    0 -0.71701817971E+02  0.87698667796E+02 -0.10755003981E+04  0.10814496351E+04  0.00000000000E+00 0. -1.
          1    1    1    2  502    0  0.26777621926E+02  0.13580118128E+02  0.17900799606E+03  0.18150846619E+03  0.00000000000E+00 0. -1.
         22    1    3    3    0    0  0.14851329543E+02 -0.64902417661E+02  0.27391463012E+02  0.71994291811E+02  0.00000000000E+00 0.  1.
         22    1    3    3    0    0  0.30072866502E+02 -0.36376368263E+02 -0.99133176278E+02  0.10979528272E+03  0.00000000000E+00 0.  1.
</event>
<event>
 7    1  0.6219721E-006  0.8085342E+02  0.7818608E-02  0.1505246E+00
          2   -1    0    0  502    0  0.00000000000E+00  0.00000000000E+00  0.21603566899E+04  0.21603566899E+04  0.00000000000E+00 0. -1.
          1   -1    0    0  501    0 -0.00000000000E+00 -0.00000000000E+00 -0.17128951670E+02  0.17128951670E+02  0.00000000000E+00 0. -1.
         25    2    1    2    0    0  0.58478580175E+02  0.41005517181E+02  0.56381698681E+03  0.58190707464E+03  0.12500020846E+03 0.  0.
          2    1    1    2  501    0 -0.58928038229E+02 -0.61193041760E+02  0.21726973144E+03  0.23328788706E+03  0.00000000000E+00 0. -1.
          1    1    1    2  502    0  0.44945805387E+00  0.20187524579E+02  0.13621410199E+04  0.13622906798E+04  0.00000000000E+00 0. -1.
         22    1    3    3    0    0  0.51805456182E+02  0.81806172379E+01  0.72671748733E+02  0.89620928652E+02  0.00000000000E+00 0.  1.
         22    1    3    3    0    0  0.66731239932E+01  0.32824899943E+02  0.49114523808E+03  0.49228614598E+03  0.00000000000E+00 0.  1.
</event>
<event>
 7    1  0.6219721E-006  0.2217776E+03  0.7818608E-02  0.1312113E+00
          2   -1    0    0  502    0  0.00000000000E+00  0.00000000000E+00  0.60488253498E+03  0.60488253498E+03  0.00000000000E+00 0. -1.
          1   -1    0    0  501    0 -0.00000000000E+00 -0.00000000000E+00 -0.12937620709E+03  0.12937620709E+03  0.00000000000E+00 0. -1.
         25    2    1    2    0    0 -0.95468348989E+02  0.19335910995E+03  0.36763242575E+03  0.44416219135E+03  0.12499800281E+03 0.  0.
          2    1    1    2  501    0  0.17037061017E+02  0.28922965674E+02  0.14383797056E+02  0.36519761900E+02  0.00000000000E+00 0. -1.
          1    1    1    2  502    0  0.78431287972E+02 -0.22228207563E+03  0.93490105082E+02  0.25357678882E+03  0.00000000000E+00 0. -1.
         22    1    3    3    0    0 -0.10077277587E+02  0.39337033644E+02  0.48529172975E+01  0.40896265670E+02  0.00000000000E+00 0.  1.
         22    1    3    3    0    0 -0.85391071402E+02  0.15402207631E+03  0.36277950845E+03  0.40326592568E+03  0.00000000000E+00 0.  1.
</event>
<event>
 7    1  0.6219721E-006  0.7046243E+02  0.7818608E-02  0.1473385E+00
          2   -1    0    0  502    0  0.00000000000E+00  0.00000000000E+00  0.67913677336E+02  0.67913677336E+02  0.00000000000E+00 0. -1.
          1   -1    0    0  501    0 -0.00000000000E+00 -0.00000000000E+00 -0.16208246803E+04  0.16208246803E+04  0.00000000000E+00 0. -1.
         25    2    1    2    0    0 -0.33121288498E+02  0.38531974882E+02 -0.14444419328E+04  0.14507302203E+04  0.12499576809E+03 0.  0.
          2    1    1    2  501    0  0.82618686867E+01  0.27730724875E+02 -0.15212619488E+03  0.15485357841E+03  0.00000000000E+00 0. -1.
          1    1    1    2  502    0  0.24859419811E+02 -0.66262699757E+02  0.43657124712E+02  0.83154558928E+02  0.00000000000E+00 0. -1.
         22    1    3    3    0    0 -0.73570600220E+02 -0.38204601534E+01 -0.94476228713E+03  0.94763020652E+03  0.00000000000E+00 0.  1.
         22    1    3    3    0    0  0.40449311722E+02  0.42352435035E+02 -0.49967964568E+03  0.50310001379E+03  0.00000000000E+00 0.  1.
</event>
<event>
 7    1  0.6219721E-006  0.4422689E+02  0.7818608E-02  0.1510016E+00
          2   -1    0    0  502    0  0.00000000000E+00  0.00000000000E+00  0.28616407658E+03  0.28616407658E+03  0.00000000000E+00 0. -1.
          1   -1    0    0  501    0 -0.00000000000E+00 -0.00000000000E+00 -0.19004797371E+03  0.19004797371E+03  0.00000000000E+00 0. -1.
         25    2    1    2    0    0  0.25607122608E+02 -0.27814758435E+02  0.24415937210E+02  0.13285392006E+03  0.12499856228E+03 0.  0.
          2    1    1    2  501    0  0.19463441638E+02  0.29971565759E+02 -0.13095333488E+03  0.13574202088E+03  0.00000000000E+00 0. -1.
          1    1    1    2  502    0 -0.45070564246E+02 -0.21568073241E+01  0.20265350054E+03  0.20761610935E+03  0.00000000000E+00 0. -1.
         22    1    3    3    0    0  0.13094259431E+02 -0.58996675161E+02 -0.31097855416E+02  0.67964284161E+02  0.00000000000E+00 0.  1.
         22    1    3    3    0    0  0.12512863177E+02  0.31181916726E+02  0.55513792626E+02  0.64889635901E+02  0.00000000000E+00 0.  1.
</event>
<event>
 7    1  0.6219721E-006  0.9324199E+02  0.7818608E-02  0.1401809E+00
          2   -1    0    0  502    0  0.00000000000E+00  0.00000000000E+00  0.49841792179E+03  0.49841792179E+03  0.00000000000E+00 0. -1.
          1   -1    0    0  501    0 -0.00000000000E+00 -0.00000000000E+00 -0.11952297283E+04  0.11952297283E+04  0.00000000000E+00 0. -1.
         25    2    1    2    0    0  0.11248588716E+03 -0.48855811653E+02  0.18525116768E+03  0.25491786193E+03  0.12500062425E+03 0.  0.
          2    1    1    2  501    0 -0.28415499561E+02  0.24335436745E+02 -0.11531971239E+04  0.11538038224E+04  0.00000000000E+00 0. -1.
          1    1    1    2  502    0 -0.84070387594E+02  0.24520374907E+02  0.27113414966E+03  0.28492596577E+03  0.00000000000E+00 0. -1.
         22    1    3    3    0    0  0.59126089245E+02 -0.16689352345E+02  0.18248718327E+03  0.19255129439E+03  0.00000000000E+00 0.  1.
         22    1    3    3    0    0  0.53359797910E+02 -0.32166459308E+02  0.27639844059E+01  0.62366567544E+02  0.00000000000E+00 0.  1.
</event>
<event>
 7    1  0.6219721E-006  0.9773709E+02  0.7818608E-02  0.1424052E+00
          2   -1    0    0  502    0  0.00000000000E+00  0.00000000000E+00  0.12770560619E+04  0.12770560619E+04  0.00000000000E+00 0. -1.
          1   -1    0    0  501    0 -0.00000000000E+00 -0.00000000000E+00 -0.58804456188E+03  0.58804456188E+03  0.00000000000E+00 0. -1.
         25    2    1    2    0    0 -0.30973402976E+02 -0.61953231351E+02 -0.17368814951E+01  0.14292022063E+03  0.12500247254E+03 0.  0.
          2    1    1    2  501    0 -0.20078262842E+02 -0.22326001724E+02 -0.51326458592E+03  0.51414212252E+03  0.00000000000E+00 0. -1.
          1    1    1    2  502    0  0.51051665818E+02  0.84279233075E+02  0.12040129674E+04  0.12080382806E+04  0.00000000000E+00 0. -1.
         22    1    3    3    0    0 -0.14810750270E+01 -0.24043114902E+02 -0.61616203430E+02  0.66157550458E+02  0.00000000000E+00 0. -1.
         22    1    3    3    0    0 -0.29492327949E+02 -0.37910116449E+02  0.59879321935E+02  0.76762670175E+02  0.00000000000E+00 0. -1.
</event>
<event>
 7    1  0.6219721E-006  0.8855442E+02  0.7818608E-02  0.1318931E+00
          2   -1    0    0  502    0  0.00000000000E+00  0.00000000000E+00  0.80586057707E+03  0.80586057707E+03  0.00000000000E+00 0. -1.
          1   -1    0    0  501    0 -0.00000000000E+00 -0.00000000000E+00 -0.25894230715E+03  0.25894230715E+03  0.00000000000E+00 0. -1.
         25    2    1    2    0    0  0.92203828589E+02  0.11859558248E+03  0.25553588699E+03  0.32169961090E+03  0.12500236767E+03 0.  0.
          2    1    1    2  501    0 -0.20831056029E+02 -0.84573883010E+02 -0.21427498512E+03  0.23130162955E+03  0.00000000000E+00 0. -1.
          1    1    1    2  502    0 -0.71372772560E+02 -0.34021699472E+02  0.50565736806E+03  0.51180164377E+03  0.00000000000E+00 0. -1.
         22    1    3    3    0    0  0.27841726555E+01 -0.14388465506E+02  0.90435745393E+02  0.91615520529E+02  0.00000000000E+00 0.  1.
         22    1    3    3    0    0  0.89419655934E+02  0.13298404799E+03  0.16510014160E+03  0.23008409037E+03  0.00000000000E+00 0.  1.
</event>
<event>
 7    1  0.6219721E-006  0.9652352E+02  0.7818608E-02  0.1292650E+00
          2   -1    0    0  502    0  0.00000000000E+00  0.00000000000E+00  0.10367027964E+04  0.10367027964E+04  0.00000000000E+00 0. -1.
          1   -1    0    0  501    0 -0.00000000000E+00 -0.00000000000E+00 -0.68406909872E+02  0.68406909872E+02  0.00000000000E+00 0. -1.
         25    2    1    2    0    0 -0.12136130572E+03  0.53057068468E+02  0.18836335106E+03  0.26201123650E+03  0.12500206795E+03 0.  0.
          2    1    1    2  501    0  0.87318421267E+02  0.32652112342E+02  0.47027263844E+02  0.10441374755E+03  0.00000000000E+00 0. -1.
          1    1    1    2  502    0  0.34042884453E+02 -0.85709180810E+02  0.73290527160E+03  0.73868472219E+03  0.00000000000E+00 0. -1.
         22    1    3    3    0    0 -0.96243485163E+02  0.59254512653E+02  0.54144422039E+02  0.12532168266E+03  0.00000000000E+00 0.  1.
         22    1    3    3    0    0 -0.25117820557E+02 -0.61974441855E+01  0.13421892902E+03  0.13668955385E+03  0.00000000000E+00 0.  1.
</event>
<event>
 7    1  0.6219721E-006  0.1386809E+03  0.7818608E-02  0.1236839E+00
          2   -1    0    0  502    0  0.00000000000E+00  0.00000000000E+00  0.26090228969E+04  0.26090228969E+04  0.00000000000E+00 0. -1.
          1   -1    0    0  501    0 -0.00000000000E+00 -0.00000000000E+00 -0.11552793873E+03  0.11552793873E+03  0.00000000000E+00 0. -1.
         25    2    1    2    0    0 -0.74192438981E+02 -0.16372223582E+03  0.83429910609E+03  0.86254819167E+03  0.12499958408E+03 0.  0.
          2    1    1    2  501    0  0.12257532451E+03  0.64212776073E+02 -0.51561698517E+02  0.14767057779E+03  0.00000000000E+00 0. -1.
          1    1    1    2  502    0 -0.48382885532E+02  0.99509459745E+02  0.17107575506E+04  0.17143320662E+04  0.00000000000E+00 0. -1.
         22    1    3    3    0    0 -0.89471421572E+02 -0.12189205451E+03  0.43012314471E+03  0.45592623071E+03  0.00000000000E+00 0. -1.
         22    1    3    3    0    0  0.15278982591E+02 -0.41830181306E+02  0.40417596138E+03  0.40662196096E+03  0.00000000000E+00 0. -1.
</event>
<event>
 7    1  0.6219721E-006  0.4191845E+02  0.7818608E-02  0.1531043E+00
          2   -1    0    0  502    0  0.00000000000E+00  0.00000000000E+00  0.45357695355E+03  0.45357695355E+03  0.00000000000E+00 0. -1.
          1   -1    0    0  501    0 -0.00000000000E+00 -0.00000000000E+00 -0.16888170604E+03  0.16888170604E+03  0.00000000000E+00 0. -1.
         25    2    1    2    0    0 -0.20410787476E+02 -0.16148267048E+02  0.91253221900E+02  0.15693695205E+03  0.12499875854E+03 0.  0.
          2    1    1    2  501    0  0.18833509567E+02 -0.26808075536E+02 -0.13263610457E+03  0.13662250998E+03  0.00000000000E+00 0. -1.
          1    1    1    2  502    0  0.15772779088E+01  0.42956342584E+02  0.32607813018E+03  0.32889919756E+03  0.00000000000E+00 0. -1.
         22    1    3    3    0    0  0.49203751122E+02  0.58706459839E+01  0.15969428036E+02  0.52062426380E+02  0.00000000000E+00 0.  1.
         22    1    3    3    0    0 -0.69614538598E+02 -0.22018913032E+02  0.75283793864E+02  0.10487452567E+03  0.00000000000E+00 0.  1.
</event>
<event>
 7    1  0.6219721E-006  0.3067009E+03  0.7818608E-02  0.1213027E+00
          2   -1    0    0  502    0  0.00000000000E+00  0.00000000000E+00  0.46222050594E+03  0.46222050594E+03  0.00000000000E+00 0. -1.
          1   -1    0    0  501    0 -0.00000000000E+00 -0.00000000000E+00 -0.14974754070E+04  0.14974754070E+04  0.00000000000E+00 0. -1.
         25    2    1    2    0    0 -0.59140277544E+02 -0.24889166299E+03 -0.16846212053E+03  0.33083036453E+03  0.12499844681E+03 0.  0.
          2    1    1    2  501    0  0.66436892913E+02  0.31258607703E+03 -0.12244718798E+04  0.12654861915E+04  0.00000000000E+00 0. -1.
          1    1    1    2  502    0 -0.72966153685E+01 -0.63694414045E+02  0.35767909930E+03  0.36337935694E+03  0.00000000000E+00 0. -1.
         22    1    3    3    0    0  0.88593589219E+01 -0.14098237858E+03 -0.33589584074E+02  0.14519910285E+03  0.00000000000E+00 0.  1.
         22    1    3    3    0    0 -0.67999636466E+02 -0.10790928441E+03 -0.13487253645E+03  0.18563126167E+03  0.00000000000E+00 0.  1.
</event>
<event>
 7    1  0.6219721E-006  0.1018752E+03  0.7818608E-02  0.1366917E+00
          2   -1    0    0  502    0  0.00000000000E+00  0.00000000000E+00  0.26520792513E+04  0.26520792513E+04  0.00000000000E+00 0. -1.
          1   -1    0    0  501    0 -0.00000000000E+00 -0.00000000000E+00 -0.84423933310E+03  0.84423933310E+03  0.00000000000E+00 0. -1.
         25    2    1    2    0    0 -0.77928172624E+02  0.16696011229E+02  0.78500008089E+02  0.16774651191E+03  0.12500033644E+03 0.  0.
          2    1    1    2  501    0  0.81863010408E+02 -0.61956648904E+02 -0.79611554779E+03  0.80270800684E+03  0.00000000000E+00 0. -1.
          1    1    1    2  502    0 -0.39348377842E+01  0.45260637675E+02  0.25254554579E+04  0.25258640656E+04  0.00000000000E+00 0. -1.
         22    1    3    3    0    0 -0.66430415758E+02  0.62730622010E+02  0.78251286206E+02  0.12029711081E+03  0.00000000000E+00 0.  1.
         22    1    3    3    0    0 -0.11497756866E+02 -0.46034610781E+02  0.24872188273E+00  0.47449401106E+02  0.00000000000E+00 0.  1.
</event>
<event>
 7    1  0.6219721E-006  0.1348109E+03  0.7818608E-02  0.1228424E+00
          2   -1    0    0  502    0  0.00000000000E+00  0.00000000000E+00  0.11635509717E+03  0.11635509717E+03  0.00000000000E+00 0. -1.
          1   -1    0    0  501    0 -0.00000000000E+00 -0.00000000000E+00 -0.17935567102E+04  0.17935567102E+04  0.00000000000E+00 0. -1.
         25    2    1    2    0    0 -0.11425202330E+03  0.21566807894E+03 -0.23774789460E+03  0.36292632918E+03  0.12500085569E+03 0.  0.
          2    1    1    2  501    0  0.89830141505E+02 -0.93985221743E+02 -0.14144124096E+04  0.14203750000E+04  0.00000000000E+00 0. -1.
          1    1    1    2  502    0  0.24421881800E+02 -0.12168285720E+03 -0.25041308868E+02  0.12661047822E+03  0.00000000000E+00 0. -1.
         22    1    3    3    0    0 -0.54500014731E+02  0.83253244961E+02 -0.20520458843E+02  0.10159942733E+03  0.00000000000E+00 0. -1.
         22    1    3    3    0    0 -0.59752008574E+02  0.13241483398E+03 -0.21722743576E+03  0.26132690185E+03  0.00000000000E+00 0. -1.
</event>
<event>
 7    1  0.6219721E-006  0.1110388E+03  0.7818608E-02  0.1320717E+00
          2   -1    0    0  502    0  0.00000000000E+00  0.00000000000E+00  0.32239908031E+04  0.32239908031E+04  0.00000000000E+00 0. -1.
          1   -1    0    0  501    0 -0.00000000000E+00 -0.00000000000E+00 -0.70127430264E+03  0.70127430264E+03  0.00000000000E+00 0. -1.
         25    2    1    2    0    0  0.10266182375E+03  0.30233721786E+02  0.43099008875E+03  0.46133612232E+03  0.12500013268E+03 0.  0.
          2    1    1    2  501    0 -0.29013586786E+02  0.54858124137E+02 -0.68355527924E+03  0.68636653603E+03  0.00000000000E+00 0. -1.
          1    1    1    2  502    0 -0.73648236961E+02 -0.85091845922E+02  0.27752816910E+04  0.27775624474E+04  0.00000000000E+00 0. -1.
         22    1    3    3    0    0  0.84032109474E+02  0.37347804063E+02  0.12755646896E+03  0.15724791466E+03  0.00000000000E+00 0.  1.
         22    1    3    3    0    0  0.18629714273E+02 -0.71140822770E+01  0.30343361978E+03  0.30408820765E+03  0.00000000000E+00 0.  1.
</event>
<event>
 7    1  0.6219721E-006  0.1390193E+03  0.7818608E-02  0.1381710E+00
          2   -1    0    0  502    0  0.00000000000E+00  0.00000000000E+00  0.78833762065E+03  0.78833762065E+03  0.00000000000E+00 0. -1.
          1   -1    0    0  501    0 -0.00000000000E+00 -0.00000000000E+00 -0.10546611564E+04  0.10546611564E+04  0.00000000000E+00 0. -1.
         25    2    1    2    0    0 -0.11547131559E+03  0.68464409266E+02  0.12755476312E+03  0.22341993060E+03  0.12500099093E+03 0.  0.
          2    1    1    2  501    0  0.12463467304E+02  0.26714289769E+02 -0.99848437320E+03  0.99891943360E+03  0.00000000000E+00 0. -1.
          1    1    1    2  502    0  0.10300784829E+03 -0.95178699034E+02  0.60460607436E+03  0.62065941281E+03  0.00000000000E+00 0. -1.
         22    1    3    3    0    0 -0.64404421708E+01 -0.18908231160E+02  0.69161842182E+02  0.71988616565E+02  0.00000000000E+00 0.  1.
         22    1    3    3    0    0 -0.10903087342E+03  0.87372640426E+02  0.58392920942E+02  0.15143131403E+03  0.00000000000E+00 0.  1.
</event>
<event>
 7    1  0.6219721E-006  0.1136648E+03  0.7818608E-02  0.1437997E+00
          2   -1    0    0  502    0  0.00000000000E+00  0.00000000000E+00  0.97045236041E+03  0.97045236041E+03  0.00000000000E+00 0. -1.
          1   -1    0    0  501    0 -0.00000000000E+00 -0.00000000000E+00 -0.64131925985E+03  0.64131925985E+03  0.00000000000E+00 0. -1.
         25    2    1    2    0    0 -0.74576425835E+02  0.57451797672E+02  0.52489138327E+03  0.54772179607E+03  0.12500339718E+03 0.  0.
          2    1    1    2  501    0  0.81331445194E+02 -0.79680357354E+02 -0.62444181417E+03  0.63473722328E+03  0.00000000000E+00 0. -1.
          1    1    1    2  502    0 -0.67550193585E+01  0.22228559682E+02  0.42868353147E+03  0.42931260091E+03  0.00000000000E+00 0. -1.
         22    1    3    3    0    0 -0.18807850562E+02 -0.33302241809E+02  0.62946783374E+02  0.73655088687E+02  0.00000000000E+00 0. -1.
         22    1    3    3    0    0 -0.55768575273E+02  0.90754039481E+02  0.46194459990E+03  0.47406670738E+03  0.00000000000E+00 0. -1.
</event>
<event>
 7    1  0.6219721E-006  0.8897544E+02  0.7818608E-02  0.1317984E+00
          2   -1    0    0  502    0  0.00000000000E+00  0.00000000000E+00  0.79401469583E+03  0.79401469583E+03  0.00000000000E+00 0. -1.
          1   -1    0    0  501    0 -0.00000000000E+00 -0.00000000000E+00 -0.10162501290E+03  0.10162501290E+03  0.00000000000E+00 0. -1.
         25    2    1    2    0    0 -0.98007035007E+02 -0.12131157365E+03  0.14905212102E+03  0.24932306755E+03  0.12499432155E+03 0.  0.
          2    1    1    2  501    0  0.26800851398E+02  0.74700323327E+02 -0.15647145366E+02  0.80890401772E+02  0.00000000000E+00 0. -1.
          1    1    1    2  502    0  0.71206183609E+02  0.46611250322E+02  0.55898470728E+03  0.56542623941E+03  0.00000000000E+00 0. -1.
         22    1    3    3    0    0 -0.35968807669E+02  0.14194736777E+02  0.71580060379E+02  0.81356934070E+02  0.00000000000E+00 0. -1.
         22    1    3    3    0    0 -0.62038227338E+02 -0.13550631043E+03  0.77472060636E+02  0.16796613348E+03  0.00000000000E+00 0. -1.
</event>
<event>
 7    1  0.6219721E-006  0.1010609E+03  0.7818608E-02  0.1436885E+00
          2   -1    0    0  502    0  0.00000000000E+00  0.00000000000E+00  0.84642567618E+03  0.84642567618E+03  0.00000000000E+00 0. -1.
          1   -1    0    0  501    0 -0.00000000000E+00 -0.00000000000E+00 -0.53487190185E+02  0.53487190185E+02  0.00000000000E+00 0. -1.
         25    2    1    2    0    0 -0.11802020272E+03 -0.35994673760E+02  0.28524964898E+03  0.33498453087E+03  0.12499155526E+03 0.  0.
          2    1    1    2  501    0  0.25489838206E+02  0.66722779388E+01 -0.16986790700E+02  0.31349676282E+02  0.00000000000E+00 0. -1.
          1    1    1    2  502    0  0.92530364514E+02  0.29322395821E+02  0.52467562771E+03  0.53357865921E+03  0.00000000000E+00 0. -1.
         22    1    3    3    0    0  0.11724597507E+02 -0.40857892908E+02  0.45036985946E+02  0.61928698538E+02  0.00000000000E+00 0.  1.
         22    1    3    3    0    0 -0.12974480023E+03  0.48632191475E+01  0.24021266304E+03  0.27305583233E+03  0.00000000000E+00 0.  1.
</event>
<event>
 7    1  0.6219721E-006  0.4858560E+02  0.7818608E-02  0.1469812E+00
          2   -1    0    0  502    0  0.00000000000E+00  0.00000000000E+00  0.83627191166E+03  0.83627191166E+03  0.00000000000E+00 0. -1.
          1   -1    0    0  501    0 -0.00000000000E+00 -0.00000000000E+00 -0.54933278205E+02  0.54933278205E+02  0.00000000000E+00 0. -1.
         25    2    1    2    0    0 -0.24354629330E+02 -0.34917147564E+02  0.59916393017E+02  0.14500278714E+03  0.12499391570E+03 0.  0.
          2    1    1    2  501    0 -0.24723956642E+02  0.35241706432E+02  0.28689816803E+02  0.51733523875E+02  0.00000000000E+00 0. -1.
          1    1    1    2  502    0  0.49078585972E+02 -0.32455886883E+00  0.69273242364E+03  0.69446887885E+03  0.00000000000E+00 0. -1.
         22    1    3    3    0    0  0.26752597065E+02  0.20811535466E+02  0.60543183786E+02  0.69385146545E+02  0.00000000000E+00 0.  1.
         22    1    3    3    0    0 -0.51107226395E+02 -0.55728683030E+02 -0.62679076935E+00  0.75617640592E+02  0.00000000000E+00 0.  1.
</event>
<event>
 7    1  0.6219721E-006  0.1116710E+03  0.7818608E-02  0.1442560E+00
          2   -1    0    0  502    0  0.00000000000E+00  0.00000000000E+00  0.24428897221E+02  0.24428897221E+02  0.00000000000E+00 0. -1.
          1   -1    0    0  501    0 -0.00000000000E+00 -0.00000000000E+00 -0.23828972474E+04  0.23828972474E+04  0.00000000000E+00 0. -1.
         25    2    1    2    0    0  0.75056563545E+02 -0.61617538889E+02 -0.82284918990E+03  0.83793559627E+03  0.12500026141E+03 0.  0.
          2    1    1    2  501    0  0.22844008543E+02  0.69716182413E+00 -0.13544278376E+04  0.13546206488E+04  0.00000000000E+00 0. -1.
          1    1    1    2  502    0 -0.97900572087E+02  0.60920377065E+02 -0.18119132266E+03  0.21476989958E+03  0.00000000000E+00 0. -1.
         22    1    3    3    0    0  0.67300578251E+02 -0.96956056223E+02 -0.69960565349E+03  0.70949130725E+03  0.00000000000E+00 0.  1.
         22    1    3    3    0    0  0.77559852932E+01  0.35338517334E+02 -0.12324353641E+03  0.12844428902E+03  0.00000000000E+00 0.  1.
</event>
<event>
 7    1  0.6219721E-006  0.1008971E+03  0.7818608E-02  0.1341982E+00
          2   -1    0    0  502    0  0.00000000000E+00  0.00000000000E+00  0.17316585963E+04  0.17316585963E+04  0.00000000000E+00 0. -1.
          1   -1    0    0  501    0 -0.00000000000E+00 -0.00000000000E+00 -0.83458441492E+03  0.83458441492E+03  0.00000000000E+00 0. -1.
         25    2    1    2    0    0 -0.21653138391E+02 -0.47916114546E+02 -0.22810266638E+02  0.13751667971E+03  0.12500286597E+03 0.  0.
          2    1    1    2  501    0  0.17474867566E+02 -0.53903639126E+02 -0.75180310720E+03  0.75393559758E+03  0.00000000000E+00 0. -1.
          1    1    1    2  502    0  0.41782708248E+01  0.10181975367E+03  0.16716875553E+04  0.16747907340E+04  0.00000000000E+00 0. -1.
         22    1    3    3    0    0 -0.63494685864E+02 -0.61533931116E+02 -0.29061718743E+02  0.93072999886E+02  0.00000000000E+00 0.  1.
         22    1    3    3    0    0  0.41841547473E+02  0.13617816569E+02  0.62514521054E+01  0.44443679826E+02  0.00000000000E+00 0.  1.
</event>
<event>
 7    1  0.6219721E-006  0.8510762E+02  0.7818608E-02  0.1383002E+00
          2   -1    0    0  502    0  0.00000000000E+00  0.00000000000E+00  0.11336331995E+04  0.11336331995E+04  0.00000000000E+00 0. -1.
          1   -1    0    0  501    0 -0.00000000000E+00 -0.00000000000E+00 -0.29104425874E+03  0.29104425874E+03  0.00000000000E+00 0. -1.
         25    2    1    2    0    0  0.12585684448E+03 -0.26322410348E+02  0.74884146049E+03  0.77001428875E+03  0.12500262933E+03 0.  0.
          2    1    1    2  501    0 -0.84726009953E+02  0.22662130617E+01 -0.27247552101E+03  0.28535336345E+03  0.00000000000E+00 0. -1.
          1    1    1    2  502    0 -0.41130834531E+02  0.24056197286E+02  0.36622300130E+03  0.36930980607E+03  0.00000000000E+00 0. -1.
         22    1    3    3    0    0  0.69017304054E+02  0.16064089396E+02  0.13856991746E+03  0.15563760873E+03  0.00000000000E+00 0.  1.
         22    1    3    3    0    0  0.56839540430E+02 -0.42386499744E+02  0.61027154303E+03  0.61437668002E+03  0.00000000000E+00 0.  1.
</event>
<event>
 7    1  0.6219721E-006  0.4726516E+02  0.7818608E-02  0.1501659E+00
          2   -1    0    0  502    0  0.00000000000E+00  0.00000000000E+00  0.24003272472E+04  0.24003272472E+04  0.00000000000E+00 0. -1.
          1   -1    0    0  501    0 -0.00000000000E+00 -0.00000000000E+00 -0.23987717428E+03  0.23987717428E+03  0.00000000000E+00 0. -1.
         25    2    1    2    0    0  0.11911611018E+02 -0.13308154698E+01 -0.14138373641E+02  0.12636187199E+03  0.12499508605E+03 0.  0.
          2    1    1    2  501    0  0.35182322410E+02 -0.39178217964E+01 -0.16753787673E+03  0.17123692732E+03  0.00000000000E+00 0. -1.
          1    1    1    2  502    0 -0.47093933428E+02  0.52486372662E+01  0.23421263233E+04  0.23426056222E+04  0.00000000000E+00 0. -1.
         22    1    3    3    0    0  0.17650404563E+02 -0.59987562962E+02 -0.23273963342E+02  0.66721224966E+02  0.00000000000E+00 0.  1.
         22    1    3    3    0    0 -0.57387935450E+01  0.58656747492E+02  0.91355897012E+01  0.59640647020E+02  0.00000000000E+00 0.  1.
</event>
<event>
 7    1  0.6219721E-006  0.8225121E+02  0.7818608E-02  0.1380753E+00
          2   -1    0    0  502    0  0.00000000000E+00  0.00000000000E+00  0.14828596644E+04  0.14828596644E+04  0.00000000000E+00 0. -1.
          1   -1    0    0  501    0 -0.00000000000E+00 -0.00000000000E+00 -0.10265574257E+03  0.10265574257E+03  0.00000000000E+00 0. -1.
         25    2    1    2    0    0 -0.44890797337E+02  0.12270894196E+03  0.79649816556E+03  0.81676618249E+03  0.12500000399E+03 0.  0.
          2    1    1    2  501    0  0.21475216936E+02 -0.78288978132E+02 -0.73570271673E+02  0.10955790210E+03  0.00000000000E+00 0. -1.
          1    1    1    2  502    0  0.23415580401E+02 -0.44419963831E+02  0.65727602791E+03  0.65919132235E+03  0.00000000000E+00 0. -1.
         22    1    3    3    0    0  0.59288103501E+00 -0.98200403615E+01  0.31857278914E+03  0.31872465653E+03  0.00000000000E+00 0. -1.
         22    1    3    3    0    0 -0.45483678372E+02  0.13252898232E+03  0.47792537641E+03  0.49804152595E+03  0.00000000000E+00 0. -1.
</event>
<event>
 7    1  0.6219721E-006  0.1726806E+03  0.7818608E-02  0.1233021E+00
          2   -1    0    0  502    0  0.00000000000E+00  0.00000000000E+00  0.35159103856E+04  0.35159103856E+04  0.00000000000E+00 0. -1.
          1   -1    0    0  501    0 -0.00000000000E+00 -0.00000000000E+00 -0.83543164738E+03  0.83543164738E+03  0.00000000000E+00 0. -1.
         25    2    1    2    0    0  0.12484431232E+03  0.11381952417E+03  0.74625119775E+02  0.22300597188E+03  0.12498707369E+03 0.  0.
          2    1    1    2  501    0 -0.49494559110E+02 -0.16731031805E+03 -0.75059934393E+03  0.77061133460E+03  0.00000000000E+00 0. -1.
          1    1    1    2  502    0 -0.75349753210E+02  0.53490793878E+02  0.33564529624E+04  0.33577247265E+04  0.00000000000E+00 0. -1.
         22    1    3    3    0    0  0.10169812088E+03  0.16213007910E+02  0.95292534187E+01  0.10342231910E+03  0.00000000000E+00 0.  1.
         22    1    3    3    0    0  0.23146191438E+02  0.97606516265E+02  0.65095866357E+02  0.11958365278E+03  0.00000000000E+00 0.  1.
</event>
<event>
 7    1  0.6219721E-006  0.4611827E+02  0.7818608E-02  0.1469036E+00
          2   -1    0    0  502    0  0.00000000000E+00  0.00000000000E+00  0.25637276818E+04  0.25637276818E+04  0.00000000000E+00 0. -1.
          1   -1    0    0  501    0 -0.00000000000E+00 -0.00000000000E+00 -0.10046546495E+03  0.10046546495E+03  0.00000000000E+00 0. -1.
         25    2    1    2    0    0  0.66734274766E+00  0.75874235000E+01  0.37172426435E+03  0.39225187494E+03  0.12499836138E+03 0.  0.
          2    1    1    2  501    0 -0.44511659200E+02  0.99291735783E+01 -0.84164616045E+02  0.95726479548E+02  0.00000000000E+00 0. -1.
          1    1    1    2  502    0  0.43844316453E+02 -0.17516597078E+02  0.21757025685E+04  0.21762147922E+04  0.00000000000E+00 0. -1.
         22    1    3    3    0    0  0.49183477305E+02  0.23336428747E+02  0.84392096624E+02  0.10042723395E+03  0.00000000000E+00 0.  1.
         22    1    3    3    0    0 -0.48516134558E+02 -0.15749005247E+02  0.28733216773E+03  0.29182464099E+03  0.00000000000E+00 0.  1.
</event>
<event>
 7    1  0.6219721E-006  0.4397992E+02  0.7818608E-02  0.1489555E+00
          2   -1    0    0  502    0  0.00000000000E+00  0.00000000000E+00  0.17729521184E+04  0.17729521184E+04  0.00000000000E+00 0. -1.
          1   -1    0    0  501    0 -0.00000000000E+00 -0.00000000000E+00 -0.70663352928E+02  0.70663352928E+02  0.00000000000E+00 0. -1.
         25    2    1    2    0    0 -0.83185316562E+02  0.36867308958E+01  0.60884963067E+03  0.62710133077E+03  0.12499926961E+03 0.  0.
          2    1    1    2  501    0  0.41298577564E+02  0.23320968639E+01 -0.54152107917E+02  0.68142952508E+02  0.00000000000E+00 0. -1.
          1    1    1    2  502    0  0.41886738998E+02 -0.60188277597E+01  0.11475912427E+04  0.11483711880E+04  0.00000000000E+00 0. -1.
         22    1    3    3    0    0 -0.47917501416E+01  0.33731675962E+02  0.40788525849E+03  0.40930571817E+03  0.00000000000E+00 0.  1.
         22    1    3    3    0    0 -0.78393566420E+02 -0.30044945066E+02  0.20096437219E+03  0.21779561260E+03  0.00000000000E+00 0.  1.
</event>
<event>
 7    1  0.6219721E-006  0.7283916E+02  0.7818608E-02  0.1503348E+00
          2   -1    0    0  502    0  0.00000000000E+00  0.00000000000E+00  0.36119469637E+03  0.36119469637E+03  0.00000000000E+00 0. -1.
          1   -1    0    0  501    0 -0.00000000000E+00 -0.00000000000E+00 -0.13267181396E+03  0.13267181396E+03  0.00000000000E+00 0. -1.
         25    2    1    2    0    0  0.30193578486E+01  0.52746025072E+02  0.57605286058E+02  0.14742756573E+03  0.12500103388E+03 0.  0.
          2    1    1    2  501    0 -0.26093872493E+01  0.22556256428E+02 -0.80679694555E+02  0.83814120048E+02  0.00000000000E+00 0. -1.
          1    1    1    2  502    0 -0.40997059926E+00 -0.75302281500E+02  0.25159729091E+03  0.26262482455E+03  0.00000000000E+00 0. -1.
         22    1    3    3    0    0 -0.37796055502E+01  0.74838786785E+02 -0.10352689036E+02  0.75645935752E+02  0.00000000000E+00 0. -1.
         22    1    3    3    0    0  0.67989633988E+01 -0.22092761712E+02  0.67957975094E+02  0.71781629978E+02  0.00000000000E+00 0. -1.
</event>
<event>
 7    1  0.6219721E-006  0.1054468E+03  0.7818608E-02  0.1338300E+00
          2   -1    0    0  502    0  0.00000000000E+00  0.00000000000E+00  0.72770112650E+02  0.72770112650E+02  0.00000000000E+00 0. -1.
          1   -1    0    0  501    0 -0.00000000000E+00 -0.00000000000E+00 -0.11934214506E+04  0.11934214506E+04  0.00000000000E+00 0. -1.
         25    2    1    2    0    0 -0.48255289476E+02 -0.68867462065E+02 -0.56189388170E+03  0.58173714666E+03  0.12498829232E+03 0.  0.
          2    1    1    2  501    0  0.40175060114E+02 -0.38979625853E+02 -0.57268294847E+03  0.57541220543E+03  0.00000000000E+00 0. -1.
          1    1    1    2  502    0  0.80802293617E+01  0.10784708792E+03  0.13925492231E+02  0.10904221115E+03  0.00000000000E+00 0. -1.
         22    1    3    3    0    0 -0.13551438057E+02 -0.88912767626E+02 -0.22257787553E+03  0.24006255934E+03  0.00000000000E+00 0. -1.
         22    1    3    3    0    0 -0.34703851419E+02  0.20045305561E+02 -0.33931600617E+03  0.34167458732E+03  0.00000000000E+00 0. -1.
</event>
<event>
 7    1  0.6219721E-006  0.7531951E+02  0.7818608E-02  0.1370461E+00
          2   -1    0    0  502    0  0.00000000000E+00  0.00000000000E+00  0.92950500486E+03  0.92950500486E+03  0.00000000000E+00 0. -1.
          1   -1    0    0  501    0 -0.00000000000E+00 -0.00000000000E+00 -0.42360527694E+03  0.42360527694E+03  0.00000000000E+00 0. -1.
         25    2    1    2    0    0 -0.11538381486E+03  0.34344569767E+02 -0.83424013340E+02  0.19255724276E+03  0.12500300610E+03 0.  0.
          2    1    1    2  501    0  0.41017323722E+02 -0.43335948004E+02 -0.28087145071E+03  0.28713968214E+03  0.00000000000E+00 0. -1.
          1    1    1    2  502    0  0.74366491140E+02  0.89913782362E+01  0.87019519197E+03  0.87341335690E+03  0.00000000000E+00 0. -1.
         22    1    3    3    0    0  0.14583403121E+02  0.30627078144E+02 -0.46194749443E+02  0.57311852511E+02  0.00000000000E+00 0. -1.
         22    1    3    3    0    0 -0.12996721798E+03  0.37174916238E+01 -0.37229263897E+02  0.13524539025E+03  0.00000000000E+00 0. -1.
</event>
<event>
 7    1  0.6219721E-006  0.5604180E+02  0.7818608E-02  0.1423037E+00
          2   -1    0    0  502    0  0.00000000000E+00  0.00000000000E+00  0.66732914702E+03  0.66732914702E+03  0.00000000000E+00 0. -1.
          1   -1    0    0  501    0 -0.00000000000E+00 -0.00000000000E+00 -0.18319328597E+04  0.18319328597E+04  0.00000000000E+00 0. -1.
         25    2    1    2    0    0  0.58976135613E+02  0.65786210701E+01  0.40569768361E+02  0.14419733173E+03  0.12500200617E+03 0.  0.
          2    1    1    2  501    0 -0.37615844738E+02  0.41679695188E+02 -0.17784641153E+04  0.17793500943E+04  0.00000000000E+00 0. -1.
          1    1    1    2  502    0 -0.21360290875E+02 -0.48258316259E+02  0.57329063423E+03  0.57571458069E+03  0.00000000000E+00 0. -1.
         22    1    3    3    0    0 -0.27362311682E+02  0.62443566119E+01 -0.23562680489E+02  0.36645436304E+02  0.00000000000E+00 0. -1.
         22    1    3    3    0    0  0.86338447295E+02  0.33426445818E+00  0.64132448850E+02  0.10755189542E+03  0.00000000000E+00 0. -1.
</event>
<event>
 7    1  0.6219721E-006  0.1552593E+03  0.7818608E-02  0.1256165E+00
          2   -1    0    0  502    0  0.00000000000E+00  0.00000000000E+00  0.66442307152E+03  0.66442307152E+03  0.00000000000E+00 0. -1.
          1   -1    0    0  501    0 -0.00000000000E+00 -0.00000000000E+00 -0.31209773893E+03  0.31209773893E+03  0.00000000000E+00 0. -1.
         25    2    1    2    0    0 -0.31026567499E+02 -0.79611526718E+02  0.19350429978E+03  0.24570487925E+03  0.12500532221E+03 0.  0.
          2    1    1    2  501    0  0.25988199921E+02  0.16084669696E+03 -0.25853725986E+03  0.30559542077E+03  0.00000000000E+00 0. -1.
          1    1    1    2  502    0  0.50383675784E+01 -0.81235170242E+02  0.41735829267E+03  0.42522051043E+03  0.00000000000E+00 0. -1.
         22    1    3    3    0    0 -0.52601795991E+02 -0.59655767038E+02  0.39280436189E+02  0.88705761648E+02  0.00000000000E+00 0.  1.
         22    1    3    3    0    0  0.21575228492E+02 -0.19955759680E+02  0.15422386359E+03  0.15699911761E+03  0.00000000000E+00 0.  1.
</event>
<event>
 7    1  0.6390553E-006  0.7689132E+02  0.7818608E-02  0.1347050E+00
          2   -1    0    0  502    0  0.00000000000E+00  0.00000000000E+00  0.79552618145E+03  0.79552618145E+03  0.00000000000E+00 0. -1.
          1   -1    0    0  501    0 -0.00000000000E+00 -0.00000000000E+00 -0.11292810383E+04  0.11292810383E+04  0.00000000000E+00 0. -1.
         25    2    1    2    0    0  0.43024546210E+02 -0.54211301691E+02 -0.10675703729E+03  0.17835821047E+03  0.12499843768E+03 0.  0.
          2    1    1    2  501    0 -0.78198178913E+02 -0.76757093326E+01 -0.98348563959E+03  0.98661941749E+03  0.00000000000E+00 0. -1.
          1    1    1    2  502    0  0.35173632703E+02  0.61887011023E+02  0.75648782007E+03  0.75982959174E+03  0.00000000000E+00 0. -1.
         22    1    3    3    0    0 -0.15092994556E+01 -0.81317092840E+02 -0.94731119232E+02  0.12485484582E+03  0.00000000000E+00 0.  1.
         22    1    3    3    0    0  0.44533845666E+02  0.27105791149E+02 -0.12025918061E+02  0.53503364649E+02  0.00000000000E+00 0.  1.
</event>
<event>
 7    1  0.6219721E-006  0.4759326E+02  0.7818608E-02  0.1464956E+00
          2   -1    0    0  502    0  0.00000000000E+00  0.00000000000E+00  0.38948170723E+04  0.38948170723E+04  0.00000000000E+00 0. -1.
          1   -1    0    0  501    0 -0.00000000000E+00 -0.00000000000E+00 -0.13798341100E+04  0.13798341100E+04  0.00000000000E+00 0. -1.
         25    2    1    2    0    0 -0.61753141608E+02  0.17071422403E+02  0.12554022403E+04  0.12632359326E+04  0.12500140983E+03 0.  0.
          2    1    1    2  501    0  0.38372759084E+02  0.24464781126E+02 -0.13753253714E+04  0.13760780760E+04  0.00000000000E+00 0. -1.
          1    1    1    2  502    0  0.23380382523E+02 -0.41536203529E+02  0.26349060934E+04  0.26353371738E+04  0.00000000000E+00 0. -1.
         22    1    3    3    0    0  0.15619746700E+02 -0.21493547512E+02  0.73129790789E+02  0.77806910827E+02  0.00000000000E+00 0.  1.
         22    1    3    3    0    0 -0.77372888308E+02  0.38564969915E+02  0.11822724495E+04  0.11854290218E+04  0.00000000000E+00 0.  1.
</event>
<event>
 7    1  0.6219721E-006  0.8232359E+02  0.7818608E-02  0.1362609E+00
          2   -1    0    0  502    0  0.00000000000E+00  0.00000000000E+00  0.21052728286E+04  0.21052728286E+04  0.00000000000E+00 0. -1.
          1   -1    0    0  501    0 -0.00000000000E+00 -0.00000000000E+00 -0.26537759907E+03  0.26537759907E+03  0.00000000000E+00 0. -1.
         25    2    1    2    0    0 -0.70915472955E+01  0.35671967356E+02  0.18124348858E+03  0.22314679851E+03  0.12499004853E+03 0.  0.
          2    1    1    2  501    0 -0.33926462066E+02 -0.77071349249E+02 -0.23671204420E+03  0.25124408366E+03  0.00000000000E+00 0. -1.
          1    1    1    2  502    0  0.41018009362E+02  0.41399381893E+02  0.18953637851E+04  0.18962595455E+04  0.00000000000E+00 0. -1.
         22    1    3    3    0    0  0.14179544590E+02  0.27361226158E+01  0.18331658105E+03  0.18388451468E+03  0.00000000000E+00 0.  1.
         22    1    3    3    0    0 -0.21271091886E+02  0.32935844740E+02 -0.20730924655E+01  0.39262283825E+02  0.00000000000E+00 0.  1.
</event>
<event>
 7    1  0.6219721E-006  0.1079672E+03  0.7818608E-02  0.1434062E+00
          2   -1    0    0  502    0  0.00000000000E+00  0.00000000000E+00  0.18525301481E+04  0.18525301481E+04  0.00000000000E+00 0. -1.
          1   -1    0    0  501    0 -0.00000000000E+00 -0.00000000000E+00 -0.43291854362E+03  0.43291854362E+03  0.00000000000E+00 0. -1.
         25    2    1    2    0    0  0.70631262371E+02 -0.70706258647E+02 -0.26242358806E+03  0.30737545903E+03  0.12500153202E+03 0.  0.
          2    1    1    2  501    0 -0.13731794839E+02 -0.21120966806E+02 -0.14534029327E+03  0.14750748549E+03  0.00000000000E+00 0. -1.
          1    1    1    2  502    0 -0.56899467532E+02  0.91827225453E+02  0.18273754858E+04  0.18305657472E+04  0.00000000000E+00 0. -1.
         22    1    3    3    0    0  0.67272408797E+02 -0.14088033033E+02 -0.43769776004E+02  0.81485231493E+02  0.00000000000E+00 0. -1.
         22    1    3    3    0    0  0.33588535733E+01 -0.56618225615E+02 -0.21865381206E+03  0.22589022753E+03  0.00000000000E+00 0. -1.
</event>
<event>
 7    1  0.6219721E-006  0.9530432E+02  0.7818608E-02  0.1307357E+00
          2   -1    0    0  502    0  0.00000000000E+00  0.00000000000E+00  0.12458950021E+03  0.12458950021E+03  0.00000000000E+00 0. -1.
          1   -1    0    0  501    0 -0.00000000000E+00 -0.00000000000E+00 -0.23222728134E+04  0.23222728134E+04  0.00000000000E+00 0. -1.
         25    2    1    2    0    0  0.14339792205E+02  0.79294656190E+02 -0.95246780143E+02  0.17660493949E+03  0.12499633348E+03 0.  0.
          2    1    1    2  501    0 -0.81549595809E+02  0.13317137678E+01 -0.21524436708E+04  0.21539883625E+04  0.00000000000E+00 0. -1.
          1    1    1    2  502    0  0.67209803604E+02 -0.80626369958E+02  0.50007137726E+02  0.11626901159E+03  0.00000000000E+00 0. -1.
         22    1    3    3    0    0 -0.13802617165E+02 -0.31162659573E+02 -0.29105985205E+02  0.44819437379E+02  0.00000000000E+00 0. -1.
         22    1    3    3    0    0  0.28142409370E+02  0.11045731576E+03 -0.66140794938E+02  0.13178550211E+03  0.00000000000E+00 0. -1.
</event>
<event>
 7    1  0.6219721E-006  0.9649961E+02  0.7818608E-02  0.1434459E+00
          2   -1    0    0  502    0  0.00000000000E+00  0.00000000000E+00  0.12866602232E+04  0.12866602232E+04  0.00000000000E+00 0. -1.
          1   -1    0    0  501    0 -0.00000000000E+00 -0.00000000000E+00 -0.36804963151E+03  0.36804963151E+03  0.00000000000E+00 0. -1.
         25    2    1    2    0    0 -0.55551136126E+02  0.43172073363E+02  0.61768793393E+02  0.15617233234E+03  0.12499862763E+03 0.  0.
          2    1    1    2  501    0 -0.26164505620E+02  0.10253664323E+02 -0.31820415131E+03  0.31944264102E+03  0.00000000000E+00 0. -1.
          1    1    1    2  502    0  0.81715641746E+02 -0.53425737686E+02  0.11750459496E+04  0.11790948813E+04  0.00000000000E+00 0. -1.
         22    1    3    3    0    0  0.24014017029E+02  0.17514511561E+02 -0.22645967840E+02  0.37366709629E+02  0.00000000000E+00 0.  1.
         22    1    3    3    0    0 -0.79565153155E+02  0.25657561803E+02  0.84414761233E+02  0.11880562271E+03  0.00000000000E+00 0.  1.
</event>
<event>
 7    1  0.6219721E-006  0.9440396E+02  0.7818608E-02  0.1449716E+00
          2   -1    0    0  502    0  0.00000000000E+00  0.00000000000E+00  0.11013293408E+04  0.11013293408E+04  0.00000000000E+00 0. -1.
          1   -1    0    0  501    0 -0.00000000000E+00 -0.00000000000E+00 -0.10271822517E+04  0.10271822517E+04  0.00000000000E+00 0. -1.
         25    2    1    2    0    0 -0.21824305169E+02  0.70534360772E+02 -0.20674519980E+03  0.25262261730E+03  0.12499285094E+03 0.  0.
          2    1    1    2  501    0  0.16761028551E+02 -0.95668633082E+02 -0.79438777062E+03  0.80030328598E+03  0.00000000000E+00 0. -1.
          1    1    1    2  502    0  0.50632766180E+01  0.25134272310E+02  0.10752800595E+04  0.10755856892E+04  0.00000000000E+00 0. -1.
         22    1    3    3    0    0 -0.27208911348E+01  0.10000785826E+03 -0.18762770018E+03  0.21263379044E+03  0.00000000000E+00 0.  1.
         22    1    3    3    0    0 -0.19103414034E+02 -0.29473497488E+02 -0.19117499620E+02  0.39988826860E+02  0.00000000000E+00 0.  1.
</event>
<event>
 7    1  0.6219721E-006  0.5520744E+02  0.7818608E-02  0.1421207E+00
          2   -1    0    0  502    0  0.00000000000E+00  0.00000000000E+00  0.43305899754E+02  0.43305899754E+02  0.00000000000E+00 0. -1.
          1   -1    0    0  501    0 -0.00000000000E+00 -0.00000000000E+00 -0.15228189393E+04  0.15228189393E+04  0.00000000000E+00 0. -1.
         25    2    1    2    0    0 -0.44816433210E+02 -0.54122428477E+01 -0.21668484604E+03  0.25419630012E+03  0.12500252570E+03 0.  0.
          2    1    1    2  501    0  0.28796801524E+02 -0.47419881655E+02 -0.12549337988E+04  0.12561595203E+04  0.00000000000E+00 0. -1.
          1    1    1    2  502    0  0.16019631687E+02  0.52832124503E+02 -0.78943947275E+01  0.55769018702E+02  0.00000000000E+00 0. -1.
         22    1    3    3    0    0  0.23806180655E+02 -0.46721233950E+02 -0.76582575165E+02  0.92814324099E+02  0.00000000000E+00 0. -1.
         22    1    3    3    0    0 -0.68622613865E+02  0.41308991102E+02 -0.14010227088E+03  0.16138197602E+03  0.00000000000E+00 0. -1.
</event>
<event>
 7    1  0.6219721E-006  0.1915828E+03  0.7818608E-02  0.1209908E+00
          2   -1    0    0  502    0  0.00000000000E+00  0.00000000000E+00  0.39497737840E+03  0.39497737840E+03  0.00000000000E+00 0. -1.
          1   -1    0    0  501    0 -0.00000000000E+00 -0.00000000000E+00 -0.78669469836E+03  0.78669469836E+03  0.00000000000E+00 0. -1.
         25    2    1    2    0    0  0.40806271766E+00  0.27271094030E+03 -0.11229762251E+03  0.32032455667E+03  0.12500256842E+03 0.  0.
          2    1    1    2  501    0  0.43985565580E+02 -0.96554083101E+02 -0.53631491078E+03  0.54670934185E+03  0.00000000000E+00 0. -1.
          1    1    1    2  502    0 -0.44393628298E+02 -0.17615685720E+03  0.25689521333E+03  0.31463817824E+03  0.00000000000E+00 0. -1.
         22    1    3    3    0    0 -0.70241125988E+01  0.19388634102E+03 -0.14584055383E+02  0.19456090580E+03  0.00000000000E+00 0. -1.
         22    1    3    3    0    0  0.74321753164E+01  0.78824599277E+02 -0.97713567126E+02  0.12576365088E+03  0.00000000000E+00 0. -1.
</event>
<event>
 7    1  0.6219721E-006  0.2816983E+03  0.7818608E-02  0.1220261E+00
          2   -1    0    0  502    0  0.00000000000E+00  0.00000000000E+00  0.45958498596E+03  0.45958498596E+03  0.00000000000E+00 0. -1.
          1   -1    0    0  501    0 -0.00000000000E+00 -0.00000000000E+00 -0.18456359330E+04  0.18456359330E+04  0.00000000000E+00 0. -1.
         25    2    1    2    0    0  0.20139596084E+03  0.13626813385E+03 -0.61271491452E+03  0.67095007409E+03  0.12500039240E+03 0.  0.
          2    1    1    2  501    0 -0.25347802031E+03 -0.17460190793E+03 -0.11815419003E+04  0.12209742811E+04  0.00000000000E+00 0. -1.
          1    1    1    2  502    0  0.52082059469E+02  0.38333774081E+02  0.40820586775E+03  0.41329656376E+03  0.00000000000E+00 0. -1.
         22    1    3    3    0    0  0.68747040801E+02  0.32367108436E+02 -0.72336347534E+02  0.10491106949E+03  0.00000000000E+00 0.  1.
         22    1    3    3    0    0  0.13264892004E+03  0.10390102542E+03 -0.54037856698E+03  0.56603900460E+03  0.00000000000E+00 0.  1.
</event>
<event>
 7    1  0.6219721E-006  0.5951478E+02  0.7818608E-02  0.1402401E+00
          2   -1    0    0  502    0  0.00000000000E+00  0.00000000000E+00  0.16317844333E+04  0.16317844333E+04  0.00000000000E+00 0. -1.
          1   -1    0    0  501    0 -0.00000000000E+00 -0.00000000000E+00 -0.11607548937E+03  0.11607548937E+03  0.00000000000E+00 0. -1.
         25    2    1    2    0    0 -0.37962915583E+02 -0.26419369901E+02  0.25914501431E+03  0.29141167533E+03  0.12500184003E+03 0.  0.
          2    1    1    2  501    0 -0.97039020557E+01  0.60056140889E+02 -0.89994058999E+02  0.10862705201E+03  0.00000000000E+00 0. -1.
          1    1    1    2  502    0  0.47666817638E+02 -0.33636770988E+02  0.13465579886E+04  0.13478211953E+04  0.00000000000E+00 0. -1.
         22    1    3    3    0    0 -0.15890229143E+02 -0.16487977967E+02 -0.71730855829E+01  0.23995957085E+02  0.00000000000E+00 0.  1.
         22    1    3    3    0    0 -0.22072686440E+02 -0.99313919341E+01  0.26631809990E+03  0.26741571824E+03  0.00000000000E+00 0.  1.
</event>
<event>
 7    1  0.1013541E-005  0.4567884E+02  0.7818608E-02  0.1584673E+00
          2   -1    0    0  502    0  0.00000000000E+00  0.00000000000E+00  0.17673233167E+04  0.17673233167E+04  0.00000000000E+00 0. -1.
          1   -1    0    0  501    0 -0.00000000000E+00 -0.00000000000E+00 -0.93487353129E+03  0.93487353129E+03  0.00000000000E+00 0. -1.
         25    2    1    2    0    0  0.25619522275E+02  0.44504848682E+02 -0.37016088845E+03  0.39405708716E+03  0.12499945251E+03 0.  0.
          2    1    1    2  501    0  0.11567149857E+02 -0.17978734893E+02 -0.55226053728E+03  0.55267416703E+03  0.00000000000E+00 0. -1.
          1    1    1    2  502    0 -0.37186672132E+02 -0.26526113788E+02  0.17548712112E+04  0.17554655938E+04  0.00000000000E+00 0. -1.
         22    1    3    3    0    0 -0.27299309420E+02  0.31840529933E+02 -0.31045807906E+03  0.31327829560E+03  0.00000000000E+00 0.  1.
         22    1    3    3    0    0  0.52918831695E+02  0.12664318749E+02 -0.59702809391E+02  0.80778791564E+02  0.00000000000E+00 0.  1.
</event>
<event>
 7    1  0.6219721E-006  0.6320059E+02  0.7818608E-02  0.1393246E+00
          2   -1    0    0  502    0  0.00000000000E+00  0.00000000000E+00  0.52975571572E+03  0.52975571572E+03  0.00000000000E+00 0. -1.
          1   -1    0    0  501    0 -0.00000000000E+00 -0.00000000000E+00 -0.16592230392E+04  0.16592230392E+04  0.00000000000E+00 0. -1.
         25    2    1    2    0    0  0.50728321542E+02 -0.10906222516E+03  0.13971569728E+03  0.22274439419E+03  0.12500662987E+03 0.  0.
          2    1    1    2  501    0 -0.35700738798E+02  0.51923523164E+02 -0.16145858254E+04  0.16158149592E+04  0.00000000000E+00 0. -1.
          1    1    1    2  502    0 -0.15027582743E+02  0.57138701994E+02  0.34540280461E+03  0.35041940150E+03  0.00000000000E+00 0. -1.
         22    1    3    3    0    0  0.25408425017E+02 -0.64477543103E+01  0.10982038687E+03  0.11290561974E+03  0.00000000000E+00 0.  1.
         22    1    3    3    0    0  0.25319896524E+02 -0.10261447085E+03  0.29895310416E+02  0.10983877445E+03  0.00000000000E+00 0.  1.
</event>
<event>
 7    1  0.6219721E-006  0.9530803E+02  0.7818608E-02  0.1445440E+00
          2   -1    0    0  502    0  0.00000000000E+00  0.00000000000E+00  0.87163914492E+03  0.87163914492E+03  0.00000000000E+00 0. -1.
          1   -1    0    0  501    0 -0.00000000000E+00 -0.00000000000E+00 -0.56513865075E+02  0.56513865075E+02  0.00000000000E+00 0. -1.
         25    2    1    2    0    0  0.62621480420E+02  0.73677355973E+02  0.28220810128E+03  0.32344455537E+03  0.12500066151E+03 0.  0.
          2    1    1    2  501    0 -0.22649352157E+02  0.13192891059E+02 -0.26443339536E+02  0.37232992539E+02  0.00000000000E+00 0. -1.
          1    1    1    2  502    0 -0.39972128264E+02 -0.86870247032E+02  0.55936051810E+03  0.56747546208E+03  0.00000000000E+00 0. -1.
         22    1    3    3    0    0  0.78483827579E+02  0.97987555859E+02  0.25205393462E+03  0.28158916572E+03  0.00000000000E+00 0. -1.
         22    1    3    3    0    0 -0.15862347158E+02 -0.24310199886E+02  0.30154166660E+02  0.41855389650E+02  0.00000000000E+00 0. -1.
</event>
<event>
 7    1  0.6219721E-006  0.2944798E+03  0.7818608E-02  0.1216510E+00
          2   -1    0    0  502    0  0.00000000000E+00  0.00000000000E+00  0.11162969808E+04  0.11162969808E+04  0.00000000000E+00 0. -1.
          1   -1    0    0  501    0 -0.00000000000E+00 -0.00000000000E+00 -0.19300696091E+04  0.19300696091E+04  0.00000000000E+00 0. -1.
         25    2    1    2    0    0 -0.69211509954E+02  0.33694925627E+03  0.41910867504E+03  0.55641935807E+03  0.12500154453E+03 0.  0.
          2    1    1    2  501    0  0.22685660699E+02 -0.29248931712E+03 -0.18481666843E+04  0.18713056225E+04  0.00000000000E+00 0. -1.
          1    1    1    2  502    0  0.46525849255E+02 -0.44459939142E+02  0.61528538098E+03  0.61864160940E+03  0.00000000000E+00 0. -1.
         22    1    3    3    0    0 -0.16289984945E+00  0.26903278603E+03  0.31405414878E+03  0.41353195144E+03  0.00000000000E+00 0.  1.
         22    1    3    3    0    0 -0.69048610105E+02  0.67916470240E+02  0.10505452626E+03  0.14288740663E+03  0.00000000000E+00 0.  1.
</event>
<event>
 7    1  0.6219721E-006  0.9832638E+02  0.7818608E-02  0.1436307E+00
          2   -1    0    0  502    0  0.00000000000E+00  0.00000000000E+00  0.14020455191E+03  0.14020455191E+03  0.00000000000E+00 0. -1.
          1   -1    0    0  501    0 -0.00000000000E+00 -0.00000000000E+00 -0.11480667074E+04  0.11480667074E+04  0.00000000000E+00 0. -1.
         25    2    1    2    0    0 -0.53992895423E+02 -0.87585818984E+02 -0.30747604475E+03  0.34749416172E+03  0.12499666352E+03 0.  0.
          2    1    1    2  501    0  0.27600190921E+02  0.94160257174E+02 -0.81606538657E+03  0.82194320955E+03  0.00000000000E+00 0. -1.
          1    1    1    2  502    0  0.26392704502E+02 -0.65744381901E+01  0.11567927583E+03  0.11883388804E+03  0.00000000000E+00 0. -1.
         22    1    3    3    0    0 -0.36127280913E+02 -0.10013540269E+03 -0.30776898352E+03  0.32565937191E+03  0.00000000000E+00 0.  1.
         22    1    3    3    0    0 -0.17865614511E+02  0.12549583701E+02  0.29293876694E+00  0.21834789810E+02  0.00000000000E+00 0.  1.
</event>
<event>
 7    1  0.8244244E-006  0.6931565E+02  0.7818608E-02  0.1423714E+00
          2   -1    0    0  502    0  0.00000000000E+00  0.00000000000E+00  0.20413901492E+04  0.20413901492E+04  0.00000000000E+00 0. -1.
          1   -1    0    0  501    0 -0.00000000000E+00 -0.00000000000E+00 -0.11351123125E+04  0.11351123125E+04  0.00000000000E+00 0. -1.
         25    2    1    2    0    0 -0.29156083726E+02  0.77664233420E+02 -0.16733123725E+03  0.22473676175E+03  0.12500023500E+03 0.  0.
          2    1    1    2  501    0 -0.24946660803E+02 -0.34343366985E+02 -0.93800150206E+03  0.93896145854E+03  0.00000000000E+00 0. -1.
          1    1    1    2  502    0  0.54102744529E+02 -0.43320866435E+02  0.20116105761E+04  0.20128042414E+04  0.00000000000E+00 0. -1.
         22    1    3    3    0    0 -0.58565970785E+02  0.63479828306E+02 -0.43562360157E+02  0.96733348739E+02  0.00000000000E+00 0.  1.
         22    1    3    3    0    0  0.29409887059E+02  0.14184405114E+02 -0.12376887710E+03  0.12800341301E+03  0.00000000000E+00 0.  1.
</event>
<event>
 7    1  0.6219721E-006  0.6966701E+02  0.7818608E-02  0.1438984E+00
          2   -1    0    0  502    0  0.00000000000E+00  0.00000000000E+00  0.73253492246E+03  0.73253492246E+03  0.00000000000E+00 0. -1.
          1   -1    0    0  501    0 -0.00000000000E+00 -0.00000000000E+00 -0.20847872767E+04  0.20847872767E+04  0.00000000000E+00 0. -1.
         25    2    1    2    0    0 -0.15808465607E+02 -0.40352354189E+02  0.61914138574E+02  0.14607289676E+03  0.12500284213E+03 0.  0.
          2    1    1    2  501    0 -0.36882569008E+02 -0.74403746050E+01 -0.20405211195E+04  0.20408679826E+04  0.00000000000E+00 0. -1.
          1    1    1    2  502    0  0.52691034614E+02  0.47792728794E+02  0.62635462668E+03  0.63038131985E+03  0.00000000000E+00 0. -1.
         22    1    3    3    0    0  0.18677070014E+02 -0.54746629721E+02  0.84504547769E+02  0.10240627424E+03  0.00000000000E+00 0. -1.
         22    1    3    3    0    0 -0.34485535620E+02  0.14394275532E+02 -0.22590409196E+02  0.43666622525E+02  0.00000000000E+00 0. -1.
</event>
<event>
 7    1  0.6219721E-006  0.5057109E+02  0.7818608E-02  0.1449089E+00
          2   -1    0    0  502    0  0.00000000000E+00  0.00000000000E+00  0.48018790949E+03  0.48018790949E+03  0.00000000000E+00 0. -1.
          1   -1    0    0  501    0 -0.00000000000E+00 -0.00000000000E+00 -0.28813682816E+03  0.28813682816E+03  0.00000000000E+00 0. -1.
         25    2    1    2    0    0  0.60473899829E+01  0.24795292501E+02  0.36816086737E+02  0.13278521123E+03  0.12500044249E+03 0.  0.
          2    1    1    2  501    0  0.45261160894E+02 -0.16232459998E+02 -0.23600654806E+03  0.24085505220E+03  0.00000000000E+00 0. -1.
          1    1    1    2  502    0 -0.51308550877E+02 -0.85628325023E+01  0.39124154265E+03  0.39468447422E+03  0.00000000000E+00 0. -1.
         22    1    3    3    0    0 -0.43123002340E+02  0.29210978798E+02  0.58965969361E+02  0.78675664318E+02  0.00000000000E+00 0. -1.
         22    1    3    3    0    0  0.49170392323E+02 -0.44156862970E+01 -0.22149882624E+02  0.54109546911E+02  0.00000000000E+00 0. -1.
</event>
<event>
 7    1  0.6219721E-006  0.6812677E+02  0.7818608E-02  0.1425744E+00
          2   -1    0    0  502    0  0.00000000000E+00  0.00000000000E+00  0.27349180025E+04  0.27349180025E+04  0.00000000000E+00 0. -1.
          1   -1    0    0  501    0 -0.00000000000E+00 -0.00000000000E+00 -0.66501977226E+02  0.66501977226E+02  0.00000000000E+00 0. -1.
         25    2    1    2    0    0  0.99842983609E+02 -0.74836703389E+01  0.10215386205E+03  0.18995497879E+03  0.12499142265E+03 0.  0.
          2    1    1    2  501    0 -0.59421038139E+02 -0.57201095311E+01  0.17305311238E+02  0.62153465098E+02  0.00000000000E+00 0. -1.
          1    1    1    2  502    0 -0.40421945469E+02  0.13203779870E+02  0.25489568520E+04  0.25493115358E+04  0.00000000000E+00 0. -1.
         22    1    3    3    0    0  0.26132583512E+02  0.11685587035E+02  0.10974343151E+03  0.11341554402E+03  0.00000000000E+00 0.  1.
         22    1    3    3    0    0  0.73710400096E+02 -0.19169257374E+02 -0.75895694589E+01  0.76539434772E+02  0.00000000000E+00 0.  1.
</event>
<event>
 7    1  0.6219721E-006  0.1653166E+03  0.7818608E-02  0.1353285E+00
          2   -1    0    0  502    0  0.00000000000E+00  0.00000000000E+00  0.36940454087E+03  0.36940454087E+03  0.00000000000E+00 0. -1.
          1   -1    0    0  501    0 -0.00000000000E+00 -0.00000000000E+00 -0.25562411569E+04  0.25562411569E+04  0.00000000000E+00 0. -1.
         25    2    1    2    0    0  0.99838559115E+02 -0.10120913086E+03 -0.31712451100E+03  0.36932907985E+03  0.12499995076E+03 0.  0.
          2    1    1    2  501    0  0.31346856654E+02 -0.17227943006E+01 -0.21926474661E+04  0.21928722042E+04  0.00000000000E+00 0. -1.
          1    1    1    2  502    0 -0.13118541577E+03  0.10293192516E+03  0.32293536099E+03  0.36344441378E+03  0.00000000000E+00 0. -1.
         22    1    3    3    0    0  0.24010785521E+02 -0.98387639087E+02 -0.11396836108E+03  0.15246452923E+03  0.00000000000E+00 0.  1.
         22    1    3    3    0    0  0.75827773595E+02 -0.28214917686E+01 -0.20315614993E+03  0.21686455062E+03  0.00000000000E+00 0.  1.
</event>
<event>
 7    1  0.6219721E-006  0.6331551E+02  0.7818608E-02  0.1450761E+00
          2   -1    0    0  502    0  0.00000000000E+00  0.00000000000E+00  0.14891468673E+03  0.14891468673E+03  0.00000000000E+00 0. -1.
          1   -1    0    0  501    0 -0.00000000000E+00 -0.00000000000E+00 -0.20885610608E+03  0.20885610608E+03  0.00000000000E+00 0. -1.
         25    2    1    2    0    0  0.29934505280E+02 -0.17300303021E+02 -0.42073412042E+02  0.13634487592E+03  0.12499751237E+03 0.  0.
          2    1    1    2  501    0  0.36888633582E+02  0.88485247898E+01 -0.10479940804E+03  0.11145395284E+03  0.00000000000E+00 0. -1.
          1    1    1    2  502    0 -0.66823138862E+02  0.84517782309E+01  0.86931400730E+02  0.10997196404E+03  0.00000000000E+00 0. -1.
         22    1    3    3    0    0  0.79143301087E+02 -0.13986276384E+02 -0.25801171676E+02  0.84409587689E+02  0.00000000000E+00 0. -1.
         22    1    3    3    0    0 -0.49208795807E+02 -0.33140266368E+01 -0.16272240365E+02  0.51935288232E+02  0.00000000000E+00 0. -1.
</event>
<event>
 7    1  0.6219721E-006  0.7472528E+02  0.7818608E-02  0.1460179E+00
          2   -1    0    0  502    0  0.00000000000E+00  0.00000000000E+00  0.13443581472E+03  0.13443581472E+03  0.00000000000E+00 0. -1.
          1   -1    0    0  501    0 -0.00000000000E+00 -0.00000000000E+00 -0.75263307096E+03  0.75263307096E+03  0.00000000000E+00 0. -1.
         25    2    1    2    0    0  0.41233075093E+02  0.19649882847E+02  0.16125661677E+02  0.13405713155E+03  0.12499997270E+03 0.  0.
          2    1    1    2  501    0 -0.69765675876E+02 -0.28931694674E+02 -0.68767034940E+03  0.69180546538E+03  0.00000000000E+00 0. -1.
          1    1    1    2  502    0  0.28532600783E+02  0.92818118268E+01  0.53347431478E+02  0.61206288758E+02  0.00000000000E+00 0. -1.
         22    1    3    3    0    0  0.54809088325E+01 -0.52327318496E+02  0.38084485138E+01  0.52751236030E+02  0.00000000000E+00 0.  1.
         22    1    3    3    0    0  0.35752166261E+02  0.71977201343E+02  0.12317213163E+02  0.81305895516E+02  0.00000000000E+00 0.  1.
</event>
<event>
 7    1  0.6219721E-006  0.5662485E+02  0.7818608E-02  0.1458644E+00
          2   -1    0    0  502    0  0.00000000000E+00  0.00000000000E+00  0.10753075502E+04  0.10753075502E+04  0.00000000000E+00 0. -1.
          1   -1    0    0  501    0 -0.00000000000E+00 -0.00000000000E+00 -0.45718196623E+03  0.45718196623E+03  0.00000000000E+00 0. -1.
         25    2    1    2    0    0  0.12995832077E+02 -0.59323342934E+02 -0.17490724524E+03  0.22339603315E+03  0.12500037010E+03 0.  0.
          2    1    1    2  501    0 -0.39017578550E+02  0.89892116268E+01 -0.25570762327E+03  0.25882342622E+03  0.00000000000E+00 0. -1.
          1    1    1    2  502    0  0.26021746473E+02  0.50334131308E+02  0.10487404524E+04  0.10502700570E+04  0.00000000000E+00 0. -1.
         22    1    3    3    0    0 -0.41450806617E+02  0.17067392218E+02 -0.49431738466E+02  0.66730517862E+02  0.00000000000E+00 0.  1.
         22    1    3    3    0    0  0.54446638694E+02 -0.76390735153E+02 -0.12547550677E+03  0.15666551529E+03  0.00000000000E+00 0.  1.
</event>
<event>
 7    1  0.6219721E-006  0.3138857E+02  0.7818608E-02  0.1595324E+00
          2   -1    0    0  502    0  0.00000000000E+00  0.00000000000E+00  0.39018287961E+03  0.39018287961E+03  0.00000000000E+00 0. -1.
          1   -1    0    0  501    0 -0.00000000000E+00 -0.00000000000E+00 -0.55666061107E+02  0.55666061107E+02  0.00000000000E+00 0. -1.
         25    2    1    2    0    0 -0.33816700172E+02  0.96999836476E+00  0.76567463013E+02  0.15043096058E+03  0.12498954916E+03 0.  0.
          2    1    1    2  501    0  0.15380337015E+02  0.24769162859E+02 -0.58403227002E+01  0.29735089788E+02  0.00000000000E+00 0. -1.
          1    1    1    2  502    0  0.18436363156E+02 -0.25739161224E+02  0.26378967819E+03  0.26568289035E+03  0.00000000000E+00 0. -1.
         22    1    3    3    0    0 -0.56719311404E+01  0.22364166681E+01 -0.34915186785E+02  0.35443513237E+02  0.00000000000E+00 0. -1.
         22    1    3    3    0    0 -0.28144769031E+02 -0.12664183033E+01  0.11148264980E+03  0.11498744734E+03  0.00000000000E+00 0. -1.
</event>
<event>
 7    1  0.6219721E-006  0.3892631E+02  0.7818608E-02  0.1525017E+00
          2   -1    0    0  502    0  0.00000000000E+00  0.00000000000E+00  0.27834542838E+03  0.27834542838E+03  0.00000000000E+00 0. -1.
          1   -1    0    0  501    0 -0.00000000000E+00 -0.00000000000E+00 -0.19779712172E+03  0.19779712172E+03  0.00000000000E+00 0. -1.
         25    2    1    2    0    0 -0.29787424458E+02  0.58733204839E+02 -0.69834507812E+02  0.15760493203E+03  0.12500230443E+03 0.  0.
          2    1    1    2  501    0  0.29678113107E+02 -0.22017825265E+02 -0.78481852087E+02  0.86746620303E+02  0.00000000000E+00 0. -1.
          1    1    1    2  502    0  0.10931135139E+00 -0.36715379574E+02  0.22886466656E+03  0.23179099777E+03  0.00000000000E+00 0. -1.
         22    1    3    3    0    0  0.32521140435E+01  0.25773333914E+02 -0.99147339460E+02  0.10249407743E+03  0.00000000000E+00 0. -1.
         22    1    3    3    0    0 -0.33039538502E+02  0.32959870925E+02  0.29312831648E+02  0.55110854602E+02  0.00000000000E+00 0. -1.
</event>
<event>
 7    1  0.6219721E-006  0.4233713E+02  0.7818608E-02  0.1523693E+00
          2   -1    0    0  502    0  0.00000000000E+00  0.00000000000E+00  0.80620138903E+03  0.80620138903E+03  0.00000000000E+00 0. -1.
          1   -1    0    0  501    0 -0.00000000000E+00 -0.00000000000E+00 -0.10317086428E+04  0.10317086428E+04  0.00000000000E+00 0. -1.
         25    2    1    2    0    0  0.79670987936E+00  0.37570506939E+02 -0.72896285446E+01  0.13074415974E+03  0.12501487465E+03 0.  0.
          2    1    1    2  501    0 -0.33059883364E+02 -0.26666528562E+02 -0.96183334737E+03  0.96277071401E+03  0.00000000000E+00 0. -1.
          1    1    1    2  502    0  0.32263173485E+02 -0.10903978378E+02  0.74361572216E+03  0.74439515807E+03  0.00000000000E+00 0. -1.
         22    1    3    3    0    0  0.17518709115E+02 -0.39597904268E+02 -0.24753949343E+02  0.49876419274E+02  0.00000000000E+00 0.  1.
         22    1    3    3    0    0 -0.16721999236E+02  0.77168411208E+02  0.17464320798E+02  0.80867740464E+02  0.00000000000E+00 0.  1.
</event>
<event>
 7    1  0.6219721E-006  0.4901441E+02  0.7818608E-02  0.1566145E+00
          2   -1    0    0  502    0  0.00000000000E+00  0.00000000000E+00  0.50335379986E+03  0.50335379986E+03  0.00000000000E+00 0. -1.
          1   -1    0    0  501    0 -0.00000000000E+00 -0.00000000000E+00 -0.20212903567E+03  0.20212903567E+03  0.00000000000E+00 0. -1.
         25    2    1    2    0    0 -0.25163644000E+02  0.25070044302E+02  0.10013957605E+03  0.16406138020E+03  0.12500594258E+03 0.  0.
          2    1    1    2  501    0  0.67943523873E+01  0.21295972776E+02 -0.16774847705E+03  0.16923130099E+03  0.00000000000E+00 0. -1.
          1    1    1    2  502    0  0.18369291613E+02 -0.46366017078E+02  0.36883366519E+03  0.37219015434E+03  0.00000000000E+00 0. -1.
         22    1    3    3    0    0 -0.51816810117E+02 -0.35289193772E+02  0.60297788800E+02  0.86983517646E+02  0.00000000000E+00 0. -1.
         22    1    3    3    0    0  0.26653166117E+02  0.60359238074E+02  0.39841787254E+02  0.77077862558E+02  0.00000000000E+00 0. -1.
</event>
<event>
 7    1  0.6219721E-006  0.1729113E+03  0.7818608E-02  0.1401476E+00
          2   -1    0    0  502    0  0.00000000000E+00  0.00000000000E+00  0.32558810341E+03  0.32558810341E+03  0.00000000000E+00 0. -1.
          1   -1    0    0  501    0 -0.00000000000E+00 -0.00000000000E+00 -0.88167326568E+03  0.88167326568E+03  0.00000000000E+00 0. -1.
         25    2    1    2    0    0  0.13345534094E+03  0.92010622466E+02 -0.42413851822E+03  0.47095003500E+03  0.12499668058E+03 0.  0.
          2    1    1    2  501    0 -0.14664099087E+03 -0.10734969864E+03 -0.41473247160E+03  0.45280300462E+03  0.00000000000E+00 0. -1.
          1    1    1    2  502    0  0.13185649935E+02  0.15339076170E+02  0.28278582754E+03  0.28350832947E+03  0.00000000000E+00 0. -1.
         22    1    3    3    0    0  0.65323753659E+02 -0.31795943789E+01 -0.61085613599E+02  0.89491646545E+02  0.00000000000E+00 0. -1.
         22    1    3    3    0    0  0.68131587277E+02  0.95190216845E+02 -0.36305290462E+03  0.38145838845E+03  0.00000000000E+00 0. -1.
</event>
<event>
 7    1  0.6219721E-006  0.6412779E+03  0.7818608E-02  0.1189841E+00
          2   -1    0    0  502    0  0.00000000000E+00  0.00000000000E+00  0.14862897302E+04  0.14862897302E+04  0.00000000000E+00 0. -1.
          1   -1    0    0  501    0 -0.00000000000E+00 -0.00000000000E+00 -0.17227087629E+04  0.17227087629E+04  0.00000000000E+00 0. -1.
         25    2    1    2    0    0 -0.61701636302E+02 -0.61375083227E+03  0.25604505895E+02  0.62990360265E+03  0.12500312746E+03 0.  0.
          2    1    1    2  501    0  0.90677733116E+02  0.64047504536E+03 -0.13465442079E+04  0.14938581053E+04  0.00000000000E+00 0. -1.
          1    1    1    2  502    0 -0.28976096815E+02 -0.26724213092E+02  0.10845206693E+04  0.10852367852E+04  0.00000000000E+00 0. -1.
         22    1    3    3    0    0  0.23333006911E+02 -0.48040134583E+02  0.22174710572E+02  0.57827342419E+02  0.00000000000E+00 0.  1.
         22    1    3    3    0    0 -0.85034643213E+02 -0.56571069768E+03  0.34297953234E+01  0.57207626023E+03  0.00000000000E+00 0.  1.
</event>
<event>
 7    1  0.6219721E-006  0.1048117E+03  0.7818608E-02  0.1412459E+00
          2   -1    0    0  502    0  0.00000000000E+00  0.00000000000E+00  0.68472808465E+03  0.68472808465E+03  0.00000000000E+00 0. -1.
          1   -1    0    0  501    0 -0.00000000000E+00 -0.00000000000E+00 -0.19002844931E+04  0.19002844931E+04  0.00000000000E+00 0. -1.
         25    2    1    2    0    0  0.66359402661E+02 -0.77994903850E+02 -0.42058054311E+03  0.45055420530E+03  0.12499729328E+03 0.  0.
          2    1    1    2  501    0  0.21920200308E+02  0.21376294613E+02 -0.14604500080E+04  0.14607709154E+04  0.00000000000E+00 0. -1.
          1    1    1    2  502    0 -0.88279602969E+02  0.56618609237E+02  0.66547414271E+03  0.67368745708E+03  0.00000000000E+00 0. -1.
         22    1    3    3    0    0  0.71574394437E+02 -0.88153937216E+02 -0.42375219835E+03  0.43870256005E+03  0.00000000000E+00 0.  1.
         22    1    3    3    0    0 -0.52149917763E+01  0.10159033365E+02  0.31716552462E+01  0.11851645251E+02  0.00000000000E+00 0.  1.
</event>
<event>
 7    1  0.1182038E-005  0.7592452E+02  0.7818608E-02  0.1427237E+00
          2   -1    0    0  502    0  0.00000000000E+00  0.00000000000E+00  0.18467287463E+04  0.18467287463E+04  0.00000000000E+00 0. -1.
          1   -1    0    0  501    0 -0.00000000000E+00 -0.00000000000E+00 -0.56224133978E+03  0.56224133978E+03  0.00000000000E+00 0. -1.
         25    2    1    2    0    0  0.77193458723E+02  0.29386052384E+02 -0.16605037768E+03  0.22365270135E+03  0.12500173099E+03 0.  0.
          2    1    1    2  501    0 -0.17142700008E+01 -0.37685968902E+02 -0.36562591159E+03  0.36756697104E+03  0.00000000000E+00 0. -1.
          1    1    1    2  502    0 -0.75479188722E+02  0.82999165176E+01  0.18161636958E+04  0.18177504137E+04  0.00000000000E+00 0. -1.
         22    1    3    3    0    0  0.62116457470E+02  0.18964690903E+02 -0.90364081287E+01  0.65572635006E+02  0.00000000000E+00 0.  1.
         22    1    3    3    0    0  0.15077001253E+02  0.10421361480E+02 -0.15701396955E+03  0.15808006635E+03  0.00000000000E+00 0.  1.
</event>
<event>
 7    1  0.6219721E-006  0.1332108E+03  0.7818608E-02  0.1341547E+00
          2   -1    0    0  502    0  0.00000000000E+00  0.00000000000E+00  0.15173490928E+04  0.15173490928E+04  0.00000000000E+00 0. -1.
          1   -1    0    0  501    0 -0.00000000000E+00 -0.00000000000E+00 -0.28229921944E+04  0.28229921944E+04  0.00000000000E+00 0. -1.
         25    2    1    2    0    0  0.11573682558E+03 -0.30143011793E+02  0.30273401041E+03  0.34867864515E+03  0.12500121028E+03 0.  0.
          2    1    1    2  501    0 -0.11153104076E+03  0.73018490134E+02 -0.27980430856E+04  0.28012168751E+04  0.00000000000E+00 0. -1.
          1    1    1    2  502    0 -0.42057848142E+01 -0.42875478341E+02  0.11896659736E+04  0.11904457669E+04  0.00000000000E+00 0. -1.
         22    1    3    3    0    0  0.48086329616E+01  0.38447584745E+02  0.41989388894E+02  0.57135352483E+02  0.00000000000E+00 0.  1.
         22    1    3    3    0    0  0.11092819262E+03 -0.68590596538E+02  0.26074462152E+03  0.29154329267E+03  0.00000000000E+00 0.  1.
</event>
<event>
 7    1  0.6219721E-006  0.4500045E+02  0.7818608E-02  0.1510933E+00
          2   -1    0    0  502    0  0.00000000000E+00  0.00000000000E+00  0.22540252196E+04  0.22540252196E+04  0.00000000000E+00 0. -1.
          1   -1    0    0  501    0 -0.00000000000E+00 -0.00000000000E+00 -0.11084648915E+03  0.11084648915E+03  0.00000000000E+00 0. -1.
         25    2    1    2    0    0 -0.26457603478E+02 -0.46453294643E+02  0.63781485445E+03  0.65213766405E+03  0.12497132048E+03 0.  0.
          2    1    1    2  501    0 -0.15990674355E+02  0.31026645956E+02 -0.10042091531E+03  0.10631422604E+03  0.00000000000E+00 0. -1.
          1    1    1    2  502    0  0.42448277833E+02  0.15426648686E+02  0.16057847913E+04  0.16064198187E+04  0.00000000000E+00 0. -1.
         22    1    3    3    0    0 -0.50537266443E+02 -0.91823674391E+01  0.56161969434E+03  0.56396366217E+03  0.00000000000E+00 0.  1.
         22    1    3    3    0    0  0.24079662965E+02 -0.37270927204E+02  0.76195160111E+02  0.88174001880E+02  0.00000000000E+00 0.  1.
</event>
<event>
 7    1  0.6219721E-006  0.1602495E+03  0.7818608E-02  0.1260710E+00
          2   -1    0    0  502    0  0.00000000000E+00  0.00000000000E+00  0.53396183393E+03  0.53396183393E+03  0.00000000000E+00 0. -1.
          1   -1    0    0  501    0 -0.00000000000E+00 -0.00000000000E+00 -0.10346526530E+04  0.10346526530E+04  0.00000000000E+00 0. -1.
         25    2    1    2    0    0  0.61540083331E+02 -0.13434189204E+03  0.30537774122E+03  0.36154474529E+03  0.12499644875E+03 0.  0.
          2    1    1    2  501    0 -0.53497318128E+02 -0.53138497911E+02 -0.96085916799E+03  0.96381326185E+03  0.00000000000E+00 0. -1.
          1    1    1    2  502    0 -0.80427652029E+01  0.18748038995E+03  0.15479060775E+03  0.24325647974E+03  0.00000000000E+00 0. -1.
         22    1    3    3    0    0  0.97668272766E+02 -0.72061568833E+02  0.18433719039E+03  0.22070831649E+03  0.00000000000E+00 0.  1.
         22    1    3    3    0    0 -0.36128189435E+02 -0.62280323207E+02  0.12104055083E+03  0.14083642880E+03  0.00000000000E+00 0.  1.
</event>
<event>
 7    1  0.6219721E-006  0.2042948E+02  0.7818608E-02  0.1739230E+00
          2   -1    0    0  502    0  0.00000000000E+00  0.00000000000E+00  0.69076852770E+03  0.69076852770E+03  0.00000000000E+00 0. -1.
          1   -1    0    0  501    0 -0.00000000000E+00 -0.00000000000E+00 -0.17671656009E+02  0.17671656009E+02  0.00000000000E+00 0. -1.
         25    2    1    2    0    0 -0.19812621724E+01  0.10241183202E+02  0.48122442719E+03  0.49730354158E+03  0.12500022366E+03 0.  0.
          2    1    1    2  501    0 -0.18423096944E+02 -0.92284334577E+01  0.26043160962E+01  0.20769134489E+02  0.00000000000E+00 0. -1.
          1    1    1    2  502    0  0.20404359117E+02 -0.10127497446E+01  0.18926812841E+03  0.19036750763E+03  0.00000000000E+00 0. -1.
         22    1    3    3    0    0 -0.60260106328E+02  0.24330679969E+02  0.27216614938E+03  0.27981721761E+03  0.00000000000E+00 0.  1.
         22    1    3    3    0    0  0.58278844156E+02 -0.14089496767E+02  0.20905827781E+03  0.21748632397E+03  0.00000000000E+00 0.  1.
</event>
<event>
 7    1  0.6219721E-006  0.1032361E+03  0.7818608E-02  0.1393287E+00
          2   -1    0    0  502    0  0.00000000000E+00  0.00000000000E+00  0.18485747190E+03  0.18485747190E+03  0.00000000000E+00 0. -1.
          1   -1    0    0  501    0 -0.00000000000E+00 -0.00000000000E+00 -0.81365577193E+03  0.81365577193E+03  0.00000000000E+00 0. -1.
         25    2    1    2    0    0 -0.15495198926E+02 -0.75361858484E+02  0.93957143897E+02  0.17427691093E+03  0.12499994356E+03 0.  0.
          2    1    1    2  501    0  0.47255832159E+02  0.92642906715E+02 -0.76304584129E+03  0.77010049847E+03  0.00000000000E+00 0. -1.
          1    1    1    2  502    0 -0.31760633233E+02 -0.17281048232E+02  0.40290397355E+02  0.54135834438E+02  0.00000000000E+00 0. -1.
         22    1    3    3    0    0 -0.30102361757E+01 -0.10911656313E+03  0.81372132119E+02  0.13615032044E+03  0.00000000000E+00 0. -1.
         22    1    3    3    0    0 -0.12484962751E+02  0.33754704645E+02  0.12585011777E+02  0.38126590484E+02  0.00000000000E+00 0. -1.
</event>
<event>
 7    1  0.6219721E-006  0.2237729E+03  0.7818608E-02  0.1197885E+00
          2   -1    0    0  502    0  0.00000000000E+00  0.00000000000E+00  0.15346146686E+04  0.15346146686E+04  0.00000000000E+00 0. -1.
          1   -1    0    0  501    0 -0.00000000000E+00 -0.00000000000E+00 -0.10781942455E+03  0.10781942455E+03  0.00000000000E+00 0. -1.
         25    2    1    2    0    0  0.15336615207E+03  0.15852483645E+02  0.62702099079E+03  0.65768745078E+03  0.12499992872E+03 0.  0.
          2    1    1    2  501    0 -0.23953379842E+03  0.41335383348E+02  0.77534891575E+02  0.25514057677E+03  0.00000000000E+00 0. -1.
          1    1    1    2  502    0  0.86167646348E+02 -0.57187866993E+02  0.72223936163E+03  0.72960606556E+03  0.00000000000E+00 0. -1.
         22    1    3    3    0    0  0.16891001742E+03  0.23156248136E+02  0.47444021001E+03  0.50414315297E+03  0.00000000000E+00 0.  1.
         22    1    3    3    0    0 -0.15543865347E+02 -0.73037644915E+01  0.15258078078E+03  0.15354429781E+03  0.00000000000E+00 0.  1.
</event>
<event>
 7    1  0.6219721E-006  0.1168877E+03  0.7818608E-02  0.1285885E+00
          2   -1    0    0  502    0  0.00000000000E+00  0.00000000000E+00  0.16376849987E+04  0.16376849987E+04  0.00000000000E+00 0. -1.
          1   -1    0    0  501    0 -0.00000000000E+00 -0.00000000000E+00 -0.97688860978E+03  0.97688860978E+03  0.00000000000E+00 0. -1.
         25    2    1    2    0    0  0.16897355114E+03 -0.81253585824E+02  0.13361402935E+03  0.26197778672E+03  0.12500178280E+03 0.  0.
          2    1    1    2  501    0 -0.56807445462E+02  0.57940028645E+02 -0.90861710385E+03  0.91223307010E+03  0.00000000000E+00 0. -1.
          1    1    1    2  502    0 -0.11216610568E+03  0.23313557179E+02  0.14357994634E+04  0.14403627516E+04  0.00000000000E+00 0. -1.
         22    1    3    3    0    0  0.18591245976E+03 -0.89214665567E+02  0.12670659790E+03  0.24202739762E+03  0.00000000000E+00 0.  1.
         22    1    3    3    0    0 -0.16938908624E+02  0.79610797434E+01  0.69074314526E+01  0.19950389102E+02  0.00000000000E+00 0.  1.
</event>
<event>
 7    1  0.6219721E-006  0.7995918E+02  0.7818608E-02  0.1412972E+00
          2   -1    0    0  502    0  0.00000000000E+00  0.00000000000E+00  0.90640950025E+03  0.90640950025E+03  0.00000000000E+00 0. -1.
          1   -1    0    0  501    0 -0.00000000000E+00 -0.00000000000E+00 -0.12622842647E+04  0.12622842647E+04  0.00000000000E+00 0. -1.
         25    2    1    2    0    0 -0.68914862329E+02 -0.20537875865E+02  0.32035758169E+02  0.14772324131E+03  0.12499921450E+03 0.  0.
          2    1    1    2  501    0  0.55292097068E+02  0.58119156606E+02 -0.12026142394E+04  0.12052867132E+04  0.00000000000E+00 0. -1.
          1    1    1    2  502    0  0.13622765261E+02 -0.37581280740E+02  0.81470371678E+03  0.81568381038E+03  0.00000000000E+00 0. -1.
         22    1    3    3    0    0 -0.18937162727E+02 -0.31228877314E+02  0.73392741739E+02  0.81977761926E+02  0.00000000000E+00 0.  1.
         22    1    3    3    0    0 -0.49977699602E+02  0.10691001449E+02 -0.41356983570E+02  0.65745479384E+02  0.00000000000E+00 0.  1.
</event>
<event>
 7    1  0.6219721E-006  0.8856744E+02  0.7818608E-02  0.1316678E+00
          2   -1    0    0  502    0  0.00000000000E+00  0.00000000000E+00  0.48675308289E+02  0.48675308289E+02  0.00000000000E+00 0. -1.
          1   -1    0    0  501    0 -0.00000000000E+00 -0.00000000000E+00 -0.24606076262E+04  0.24606076262E+04  0.00000000000E+00 0. -1.
         25    2    1    2    0    0  0.52314637278E+02  0.16904955629E+02 -0.49817920788E+03  0.51655607406E+03  0.12500022273E+03 0.  0.
          2    1    1    2  501    0 -0.74547709703E+02  0.60638991266E+02 -0.19095317336E+04  0.19119481922E+04  0.00000000000E+00 0. -1.
          1    1    1    2  502    0  0.22233072425E+02 -0.77543946895E+02 -0.42213764161E+01  0.80778668152E+02  0.00000000000E+00 0. -1.
         22    1    3    3    0    0  0.59212390036E+02 -0.23179246654E+02 -0.11656935272E+03  0.13278478303E+03  0.00000000000E+00 0. -1.
         22    1    3    3    0    0 -0.68977527581E+01  0.40084202283E+02 -0.38160985516E+03  0.38377129103E+03  0.00000000000E+00 0. -1.
</event>
<event>
 7    1  0.6219721E-006  0.6331374E+02  0.7818608E-02  0.1434041E+00
          2   -1    0    0  502    0  0.00000000000E+00  0.00000000000E+00  0.81786525572E+03  0.81786525572E+03  0.00000000000E+00 0. -1.
          1   -1    0    0  501    0 -0.00000000000E+00 -0.00000000000E+00 -0.74119648913E+02  0.74119648913E+02  0.00000000000E+00 0. -1.
         25    2    1    2    0    0 -0.25548194513E+00 -0.30305183905E+02  0.37904206335E+03  0.40027021917E+03  0.12499957250E+03 0.  0.
          2    1    1    2  501    0 -0.31909853871E+01 -0.42848049657E+02 -0.52665611260E+02  0.67969142679E+02  0.00000000000E+00 0. -1.
          1    1    1    2  502    0  0.34464673323E+01  0.73153233561E+02  0.41736915472E+03  0.42374554278E+03  0.00000000000E+00 0. -1.
         22    1    3    3    0    0  0.15566876208E+02  0.44864465181E+02  0.97701510935E+02  0.10863117927E+03  0.00000000000E+00 0. -1.
         22    1    3    3    0    0 -0.15822358153E+02 -0.75169649086E+02  0.28134055241E+03  0.29163903990E+03  0.00000000000E+00 0. -1.
</event>
<event>
 7    1  0.6219721E-006  0.9122346E+02  0.7818608E-02  0.1311359E+00
          2   -1    0    0  502    0  0.00000000000E+00  0.00000000000E+00  0.25989062086E+03  0.25989062086E+03  0.00000000000E+00 0. -1.
          1   -1    0    0  501    0 -0.00000000000E+00 -0.00000000000E+00 -0.19405942785E+03  0.19405942785E+03  0.00000000000E+00 0. -1.
         25    2    1    2    0    0  0.11697030688E+03  0.82685540688E+02  0.50807555654E+02  0.19678600870E+03  0.12499749669E+03 0.  0.
          2    1    1    2  501    0 -0.34891323508E+02 -0.78877416216E+02 -0.89443726939E+02  0.12425470427E+03  0.00000000000E+00 0. -1.
          1    1    1    2  502    0 -0.82078983370E+02 -0.38081244720E+01  0.10446736429E+03  0.13290933573E+03  0.00000000000E+00 0. -1.
         22    1    3    3    0    0 -0.24715582484E+02  0.15546523795E+02  0.23841466681E+02  0.37695755107E+02  0.00000000000E+00 0. -1.
         22    1    3    3    0    0  0.14168588936E+03  0.67139016893E+02  0.26966088973E+02  0.15909025359E+03  0.00000000000E+00 0. -1.
</event>
<event>
 7    1  0.6219721E-006  0.1190959E+03  0.7818608E-02  0.1255702E+00
          2   -1    0    0  502    0  0.00000000000E+00  0.00000000000E+00  0.77419767485E+02  0.77419767485E+02  0.00000000000E+00 0. -1.
          1   -1    0    0  501    0 -0.00000000000E+00 -0.00000000000E+00 -0.98052259787E+03  0.98052259787E+03  0.00000000000E+00 0. -1.
         25    2    1    2    0    0 -0.49909808724E+02 -0.14886981713E+03 -0.25044468774E+03  0.32093636248E+03  0.12499758271E+03 0.  0.
          2    1    1    2  501    0  0.10401776303E+03  0.57031295322E+02 -0.61124725071E+03  0.62265196151E+03  0.00000000000E+00 0. -1.
          1    1    1    2  502    0 -0.54107954307E+02  0.91838521806E+02 -0.41410891937E+02  0.11435404137E+03  0.00000000000E+00 0. -1.
         22    1    3    3    0    0 -0.85618294219E+02 -0.10759231730E+03 -0.13239328233E+03  0.19087844366E+03  0.00000000000E+00 0. -1.
         22    1    3    3    0    0  0.35708485495E+02 -0.41277499828E+02 -0.11805140541E+03  0.13005791882E+03  0.00000000000E+00 0. -1.
</event>
<event>
 7    1  0.6219721E-006  0.4419626E+02  0.7818608E-02  0.1579820E+00
          2   -1    0    0  502    0  0.00000000000E+00  0.00000000000E+00  0.41445570294E+03  0.41445570294E+03  0.00000000000E+00 0. -1.
          1   -1    0    0  501    0 -0.00000000000E+00 -0.00000000000E+00 -0.75720899965E+03  0.75720899965E+03  0.00000000000E+00 0. -1.
         25    2    1    2    0    0  0.27653883897E+02 -0.42018187557E+01 -0.27446291157E+03  0.30287518706E+03  0.12498438518E+03 0.  0.
          2    1    1    2  501    0  0.14585589530E+02  0.17479527832E+02 -0.46703730984E+03  0.46759183280E+03  0.00000000000E+00 0. -1.
          1    1    1    2  502    0 -0.42239473426E+02 -0.13277709077E+02  0.39874692469E+03  0.40119768273E+03  0.00000000000E+00 0. -1.
         22    1    3    3    0    0 -0.42242533420E+02 -0.29542414876E+02 -0.85839594275E+02  0.10012802730E+03  0.00000000000E+00 0.  1.
         22    1    3    3    0    0  0.69896417317E+02  0.25340596120E+02 -0.18862331729E+03  0.20274715976E+03  0.00000000000E+00 0.  1.
</event>
<event>
 7    1  0.6219721E-006  0.3123569E+03  0.7818608E-02  0.1212387E+00
          2   -1    0    0  502    0  0.00000000000E+00  0.00000000000E+00  0.21208446504E+04  0.21208446504E+04  0.00000000000E+00 0. -1.
          1   -1    0    0  501    0 -0.00000000000E+00 -0.00000000000E+00 -0.38790678265E+03  0.38790678265E+03  0.00000000000E+00 0. -1.
         25    2    1    2    0    0  0.18691953446E+03  0.22251581492E+03  0.95595489432E+03  0.10069397537E+04  0.12500282910E+03 0.  0.
          2    1    1    2  501    0 -0.15168148279E+03 -0.27519707024E+03 -0.29318696662E+03  0.42976656115E+03  0.00000000000E+00 0. -1.
          1    1    1    2  502    0 -0.35238051670E+02  0.52681255318E+02  0.10701699401E+04  0.10720451183E+04  0.00000000000E+00 0. -1.
         22    1    3    3    0    0  0.10365182671E+03  0.81003027075E+02  0.60966081580E+03  0.62369183248E+03  0.00000000000E+00 0. -1.
         22    1    3    3    0    0  0.83267707748E+02  0.14151278784E+03  0.34629407852E+03  0.38324792119E+03  0.00000000000E+00 0. -1.
</event>
<event>
 7    1  0.6219721E-006  0.1522053E+03  0.7818608E-02  0.1262142E+00
          2   -1    0    0  502    0  0.00000000000E+00  0.00000000000E+00  0.95144741062E+03  0.95144741062E+03  0.00000000000E+00 0. -1.
          1   -1    0    0  501    0 -0.00000000000E+00 -0.00000000000E+00 -0.18691537260E+03  0.18691537260E+03  0.00000000000E+00 0. -1.
         25    2    1    2    0    0 -0.57770001118E+02  0.67422249025E+02  0.23092102580E+03  0.27718745457E+03  0.12500092850E+03 0.  0.
          2    1    1    2  501    0  0.77246178315E+02 -0.14324256933E+03 -0.12043587960E+03  0.20246038335E+03  0.00000000000E+00 0. -1.
          1    1    1    2  502    0 -0.19476177197E+02  0.75820320302E+02  0.65404689183E+03  0.65871494530E+03  0.00000000000E+00 0. -1.
         22    1    3    3    0    0 -0.70959822087E+02  0.97380081663E+02  0.18560908857E+03  0.22128920085E+03  0.00000000000E+00 0. -1.
         22    1    3    3    0    0  0.13189820969E+02 -0.29957832638E+02  0.45311937228E+02  0.55898253720E+02  0.00000000000E+00 0. -1.
</event>
<event>
 7    1  0.6219721E-006  0.6820411E+02  0.7818608E-02  0.1515147E+00
          2   -1    0    0  502    0  0.00000000000E+00  0.00000000000E+00  0.67252247306E+03  0.67252247306E+03  0.00000000000E+00 0. -1.
          1   -1    0    0  501    0 -0.00000000000E+00 -0.00000000000E+00 -0.16787492806E+03  0.16787492806E+03  0.00000000000E+00 0. -1.
         25    2    1    2    0    0  0.57466476095E+02  0.61726922471E+01 -0.24079631897E+02  0.13980687900E+03  0.12500254693E+03 0.  0.
          2    1    1    2  501    0  0.50739644377E+01  0.21801475475E+02 -0.82526997181E+02  0.85508799031E+02  0.00000000000E+00 0. -1.
          1    1    1    2  502    0 -0.62540440532E+02 -0.27974167722E+02  0.61125417408E+03  0.61508172310E+03  0.00000000000E+00 0. -1.
         22    1    3    3    0    0  0.26584030923E+02  0.53840716506E+02 -0.49270937834E+02  0.77673410952E+02  0.00000000000E+00 0.  1.
         22    1    3    3    0    0  0.30882445171E+02 -0.47668024259E+02  0.25191305936E+02  0.62133468044E+02  0.00000000000E+00 0.  1.
</event>
<event>
 7    1  0.6219721E-006  0.1255904E+03  0.7818608E-02  0.1375564E+00
          2   -1    0    0  502    0  0.00000000000E+00  0.00000000000E+00  0.11600068267E+04  0.11600068267E+04  0.00000000000E+00 0. -1.
          1   -1    0    0  501    0 -0.00000000000E+00 -0.00000000000E+00 -0.18638865380E+03  0.18638865380E+03  0.00000000000E+00 0. -1.
         25    2    1    2    0    0  0.14837781349E+03  0.36485076148E+02  0.15009927755E+03  0.24799372227E+03  0.12499582732E+03 0.  0.
          2    1    1    2  501    0 -0.12095500943E+03 -0.15862998295E+02 -0.10999478322E+03  0.16425772846E+03  0.00000000000E+00 0. -1.
          1    1    1    2  502    0 -0.27422804059E+02 -0.20622077853E+02  0.93351367857E+03  0.93414402977E+03  0.00000000000E+00 0. -1.
         22    1    3    3    0    0  0.10850190156E+03 -0.36262330344E+02  0.84234512635E+02  0.14206714034E+03  0.00000000000E+00 0.  1.
         22    1    3    3    0    0  0.39875911931E+02  0.72747406492E+02  0.65864764910E+02  0.10592658193E+03  0.00000000000E+00 0.  1.
</event>
<event>
 7    1  0.6219721E-006  0.7917644E+02  0.7818608E-02  0.1407513E+00
          2   -1    0    0  502    0  0.00000000000E+00  0.00000000000E+00  0.43434808766E+03  0.43434808766E+03  0.00000000000E+00 0. -1.
          1   -1    0    0  501    0 -0.00000000000E+00 -0.00000000000E+00 -0.19112488669E+04  0.19112488669E+04  0.00000000000E+00 0. -1.
         25    2    1    2    0    0 -0.37307494278E+02 -0.28733045873E+02 -0.28303939310E+03  0.31297122744E+03  0.12498901593E+03 0.  0.
          2    1    1    2  501    0  0.78783409975E+02  0.21363670151E+02 -0.16111498402E+04  0.16132163648E+04  0.00000000000E+00 0. -1.
          1    1    1    2  502    0 -0.41475915697E+02  0.73693757223E+01  0.41728845407E+03  0.41940936230E+03  0.00000000000E+00 0. -1.
         22    1    3    3    0    0  0.45252278299E+01  0.15668081094E+01 -0.25334629604E+03  0.25339155135E+03  0.00000000000E+00 0.  1.
         22    1    3    3    0    0 -0.41832722108E+02 -0.30299853983E+02 -0.29693097055E+02  0.59579676090E+02  0.00000000000E+00 0.  1.
</event>
<event>
 7    1  0.6219721E-006  0.1159891E+03  0.7818608E-02  0.1353252E+00
          2   -1    0    0  502    0  0.00000000000E+00  0.00000000000E+00  0.16037153003E+04  0.16037153003E+04  0.00000000000E+00 0. -1.
          1   -1    0    0  501    0 -0.00000000000E+00 -0.00000000000E+00 -0.47825833152E+03  0.47825833152E+03  0.00000000000E+00 0. -1.
         25    2    1    2    0    0  0.58881188259E+02  0.82097144992E+02 -0.16501503590E+03  0.23035697545E+03  0.12500975368E+03 0.  0.
          2    1    1    2  501    0 -0.10213284557E+03 -0.70583380931E+02 -0.26650131823E+03  0.29400014359E+03  0.00000000000E+00 0. -1.
          1    1    1    2  502    0  0.43251657313E+02 -0.11513764061E+02  0.15569733229E+04  0.15576165128E+04  0.00000000000E+00 0. -1.
         22    1    3    3    0    0  0.89533891782E+02  0.33275002714E+02 -0.67092540580E+02  0.11672597219E+03  0.00000000000E+00 0. -1.
         22    1    3    3    0    0 -0.30652703523E+02  0.48822142277E+02 -0.97922495325E+02  0.11363100325E+03  0.00000000000E+00 0. -1.
</event>
<event>
 7    1  0.6219721E-006  0.6753881E+02  0.7818608E-02  0.1403808E+00
          2   -1    0    0  502    0  0.00000000000E+00  0.00000000000E+00  0.74366813060E+03  0.74366813060E+03  0.00000000000E+00 0. -1.
          1   -1    0    0  501    0 -0.00000000000E+00 -0.00000000000E+00 -0.25342713483E+03  0.25342713483E+03  0.00000000000E+00 0. -1.
         25    2    1    2    0    0 -0.68368270593E+02  0.23178183302E+02  0.84459906241E+02  0.16724059724E+03  0.12499797197E+03 0.  0.
          2    1    1    2  501    0  0.62412140323E+02  0.27313798987E+02 -0.20548173086E+03  0.21648108599E+03  0.00000000000E+00 0. -1.
          1    1    1    2  502    0  0.59561302697E+01 -0.50491982289E+02  0.61126282038E+03  0.61337358220E+03  0.00000000000E+00 0. -1.
         22    1    3    3    0    0 -0.35423291890E+02 -0.41230646711E+02 -0.21377870427E+01  0.54399871047E+02  0.00000000000E+00 0. -1.
         22    1    3    3    0    0 -0.32944978702E+02  0.64408830013E+02  0.86597693283E+02  0.11284072619E+03  0.00000000000E+00 0. -1.
</event>
<event>
 7    1  0.6219721E-006  0.1175363E+03  0.7818608E-02  0.1391716E+00
          2   -1    0    0  502    0  0.00000000000E+00  0.00000000000E+00  0.59788397755E+03  0.59788397755E+03  0.00000000000E+00 0. -1.
          1   -1    0    0  501    0 -0.00000000000E+00 -0.00000000000E+00 -0.34332495236E+03  0.34332495236E+03  0.00000000000E+00 0. -1.
         25    2    1    2    0    0  0.49001591274E+01 -0.91948599102E+02  0.31527976200E+02  0.15842326529E+03  0.12500144505E+03 0.  0.
          2    1    1    2  501    0 -0.15622920838E+02 -0.28110881230E+02 -0.27169263933E+03  0.27358945075E+03  0.00000000000E+00 0. -1.
          1    1    1    2  502    0  0.10722761711E+02  0.12005948033E+03  0.49472368832E+03  0.50919621387E+03  0.00000000000E+00 0. -1.
         22    1    3    3    0    0  0.35832088702E+02  0.16953757259E+02 -0.38175316845E+01  0.39823887481E+02  0.00000000000E+00 0. -1.
         22    1    3    3    0    0 -0.30931929575E+02 -0.10890235636E+03  0.35345507884E+02  0.11859937781E+03  0.00000000000E+00 0. -1.
</event>
<event>
 7    1  0.6219721E-006  0.1945095E+03  0.7818608E-02  0.1182559E+00
          2   -1    0    0  502    0  0.00000000000E+00  0.00000000000E+00  0.13518822143E+04  0.13518822143E+04  0.00000000000E+00 0. -1.
          1   -1    0    0  501    0 -0.00000000000E+00 -0.00000000000E+00 -0.20743711081E+03  0.20743711081E+03  0.00000000000E+00 0. -1.
         25    2    1    2    0    0 -0.25509140316E+03 -0.15865529992E+03  0.64940673633E+03  0.72635892412E+03  0.12500019718E+03 0.  0.
          2    1    1    2  501    0  0.13290818225E+03  0.46835736420E+02 -0.12672261549E+03  0.18951726146E+03  0.00000000000E+00 0. -1.
          1    1    1    2  502    0  0.12218322091E+03  0.11181956350E+03  0.62176098268E+03  0.64344313956E+03  0.00000000000E+00 0. -1.
         22    1    3    3    0    0 -0.21238933590E+03 -0.65783346478E+02  0.46810603708E+03  0.51822769188E+03  0.00000000000E+00 0.  1.
         22    1    3    3    0    0 -0.42702067255E+02 -0.92871953446E+02  0.18130069926E+03  0.20813123224E+03  0.00000000000E+00 0.  1.
</event>
<event>
 7    1  0.6219721E-006  0.3890271E+02  0.7818608E-02  0.1604347E+00
          2   -1    0    0  502    0  0.00000000000E+00  0.00000000000E+00  0.76487399907E+03  0.76487399907E+03  0.00000000000E+00 0. -1.
          1   -1    0    0  501    0 -0.00000000000E+00 -0.00000000000E+00 -0.33507246251E+03  0.33507246251E+03  0.00000000000E+00 0. -1.
         25    2    1    2    0    0 -0.46289338650E+02  0.33261071860E+02 -0.11092886013E+03  0.17657678797E+03  0.12500059306E+03 0.  0.
          2    1    1    2  501    0  0.22095406663E+02 -0.28699236312E+01 -0.19015339430E+03  0.19145432046E+03  0.00000000000E+00 0. -1.
          1    1    1    2  502    0  0.24193931987E+02 -0.30391148228E+02  0.73088379100E+03  0.73191535315E+03  0.00000000000E+00 0. -1.
         22    1    3    3    0    0 -0.68704581427E+02 -0.23039444980E+02 -0.81988111992E+02  0.10942205464E+03  0.00000000000E+00 0.  1.
         22    1    3    3    0    0  0.22415242777E+02  0.56300516840E+02 -0.28940748140E+02  0.67154733326E+02  0.00000000000E+00 0.  1.
</event>
<event>
 7    1  0.6219721E-006  0.8842368E+02  0.7818608E-02  0.1417537E+00
          2   -1    0    0  502    0  0.00000000000E+00  0.00000000000E+00  0.15951861710E+04  0.15951861710E+04  0.00000000000E+00 0. -1.
          1   -1    0    0  501    0 -0.00000000000E+00 -0.00000000000E+00 -0.72421265996E+03  0.72421265996E+03  0.00000000000E+00 0. -1.
         25    2    1    2    0    0 -0.32901066735E+02  0.89726693087E+02  0.69103974983E+03  0.70872759616E+03  0.12500204025E+03 0.  0.
          2    1    1    2  501    0 -0.25428869970E+02 -0.23892137290E+02 -0.71278062774E+03  0.71363413941E+03  0.00000000000E+00 0. -1.
          1    1    1    2  502    0  0.58329936705E+02 -0.65834555797E+02  0.89271438897E+03  0.89703709540E+03  0.00000000000E+00 0. -1.
         22    1    3    3    0    0 -0.30523615027E+02  0.11731572971E+03  0.44783130370E+03  0.46394778595E+03  0.00000000000E+00 0. -1.
         22    1    3    3    0    0 -0.23774517088E+01 -0.27589036622E+02  0.24320844613E+03  0.24477981021E+03  0.00000000000E+00 0. -1.
</event>
<event>
 7    1  0.6219721E-006  0.1959939E+03  0.7818608E-02  0.1313276E+00
          2   -1    0    0  502    0  0.00000000000E+00  0.00000000000E+00  0.49246469881E+03  0.49246469881E+03  0.00000000000E+00 0. -1.
          1   -1    0    0  501    0 -0.00000000000E+00 -0.00000000000E+00 -0.35757508787E+03  0.35757508787E+03  0.00000000000E+00 0. -1.
         25    2    1    2    0    0  0.18053555454E+03  0.30772741188E+02 -0.70180602306E+02  0.23257085284E+03  0.12499534630E+03 0.  0.
          2    1    1    2  501    0  0.59395514236E+01  0.37114696734E+02 -0.18020780611E+03  0.18408593745E+03  0.00000000000E+00 0. -1.
          1    1    1    2  502    0 -0.18647510596E+03 -0.67887437921E+02  0.38527801936E+03  0.43338299640E+03  0.00000000000E+00 0. -1.
         22    1    3    3    0    0  0.12198437607E+03 -0.41319276152E+02 -0.43516624962E+02  0.13594545684E+03  0.00000000000E+00 0.  1.
         22    1    3    3    0    0  0.58551178467E+02  0.72092017340E+02 -0.26663977344E+02  0.96625395998E+02  0.00000000000E+00 0.  1.
</event>
<event>
 7    1  0.6219721E-006  0.1232892E+03  0.7818608E-02  0.1388906E+00
          2   -1    0    0  502    0  0.00000000000E+00  0.00000000000E+00  0.12632220251E+04  0.12632220251E+04  0.00000000000E+00 0. -1.
          1   -1    0    0  501    0 -0.00000000000E+00 -0.00000000000E+00 -0.34359011847E+03  0.34359011847E+03  0.00000000000E+00 0. -1.
         25    2    1    2    0    0  0.12828181391E+03  0.62796842176E+02  0.91001378642E+02  0.21048971365E+03  0.12500000588E+03 0.  0.
          2    1    1    2  501    0 -0.10585449508E+02 -0.29519005862E+02 -0.27960491579E+03  0.28135801460E+03  0.00000000000E+00 0. -1.
          1    1    1    2  502    0 -0.11769636440E+03 -0.33277836314E+02  0.11082354437E+04  0.11149644153E+04  0.00000000000E+00 0. -1.
         22    1    3    3    0    0  0.90111529678E+02  0.85010668764E+02  0.18020348459E+02  0.12518639919E+03  0.00000000000E+00 0. -1.
         22    1    3    3    0    0  0.38170284234E+02 -0.22213826588E+02  0.72981030183E+02  0.85303314454E+02  0.00000000000E+00 0. -1.
</event>
<event>
 7    1  0.6219721E-006  0.3012693E+03  0.7818608E-02  0.1194351E+00
          2   -1    0    0  502    0  0.00000000000E+00  0.00000000000E+00  0.10713419455E+04  0.10713419455E+04  0.00000000000E+00 0. -1.
          1   -1    0    0  501    0 -0.00000000000E+00 -0.00000000000E+00 -0.14817182022E+04  0.14817182022E+04  0.00000000000E+00 0. -1.
         25    2    1    2    0    0 -0.33217408820E+03 -0.96721310625E+02  0.24336614825E+03  0.44107336507E+03  0.12499597780E+03 0.  0.
          2    1    1    2  501    0  0.29847381407E+03  0.24341096241E+02 -0.13643902813E+04  0.13968679058E+04  0.00000000000E+00 0. -1.
          1    1    1    2  502    0  0.33700274123E+02  0.72380214384E+02  0.71064787632E+03  0.71511887685E+03  0.00000000000E+00 0. -1.
         22    1    3    3    0    0 -0.26868015549E+03 -0.49684561858E+02  0.12923370870E+03  0.30225640292E+03  0.00000000000E+00 0.  1.
         22    1    3    3    0    0 -0.63493932710E+02 -0.47036748767E+02  0.11413243954E+03  0.13881696216E+03  0.00000000000E+00 0.  1.
</event>
<event>
 7    1  0.6219721E-006  0.8266024E+02  0.7818608E-02  0.1334350E+00
          2   -1    0    0  502    0  0.00000000000E+00  0.00000000000E+00  0.36928992187E+04  0.36928992187E+04  0.00000000000E+00 0. -1.
          1   -1    0    0  501    0 -0.00000000000E+00 -0.00000000000E+00 -0.13090829890E+03  0.13090829890E+03  0.00000000000E+00 0. -1.
         25    2    1    2    0    0 -0.11700199024E+02  0.35580782029E+02  0.26733641908E+03  0.29748379372E+03  0.12499983940E+03 0.  0.
          2    1    1    2  501    0  0.68639979756E+02  0.27405357086E+02 -0.10346063616E+03  0.12714795969E+03  0.00000000000E+00 0. -1.
          1    1    1    2  502    0 -0.56939780732E+02 -0.62986139115E+02  0.33981151369E+04  0.33991757642E+04  0.00000000000E+00 0. -1.
         22    1    3    3    0    0 -0.60999793289E+02 -0.68193370432E+01  0.93134600064E+02  0.11154161496E+03  0.00000000000E+00 0. -1.
         22    1    3    3    0    0  0.49299594264E+02  0.42400119072E+02  0.17420181902E+03  0.18594217876E+03  0.00000000000E+00 0. -1.
</event>
<event>
 7    1  0.6219721E-006  0.8802292E+02  0.7818608E-02  0.1333749E+00
          2   -1    0    0  502    0  0.00000000000E+00  0.00000000000E+00  0.29584917963E+04  0.29584917963E+04  0.00000000000E+00 0. -1.
          1   -1    0    0  501    0 -0.00000000000E+00 -0.00000000000E+00 -0.79950042909E+03  0.79950042909E+03  0.00000000000E+00 0. -1.
         25    2    1    2    0    0 -0.29339614651E+02  0.10742751010E+02  0.23762846143E+03  0.27031167367E+03  0.12499958223E+03 0.  0.
          2    1    1    2  501    0 -0.16771895429E+02  0.67725451607E+02 -0.78083717558E+03  0.78394816668E+03  0.00000000000E+00 0. -1.
          1    1    1    2  502    0  0.46111510080E+02 -0.78468202616E+02  0.27022000814E+04  0.27037323851E+04  0.00000000000E+00 0. -1.
         22    1    3    3    0    0  0.43096085234E+02 -0.52447293214E+01  0.39281540429E+02  0.58547580365E+02  0.00000000000E+00 0.  1.
         22    1    3    3    0    0 -0.72435699885E+02  0.15987480331E+02  0.19834692100E+03  0.21176409331E+03  0.00000000000E+00 0.  1.
</event>
<event>
 7    1  0.6219721E-006  0.8658808E+02  0.7818608E-02  0.1386373E+00
          2   -1    0    0  502    0  0.00000000000E+00  0.00000000000E+00  0.13142424285E+03  0.13142424285E+03  0.00000000000E+00 0. -1.
          1   -1    0    0  501    0 -0.00000000000E+00 -0.00000000000E+00 -0.11069643962E+04  0.11069643962E+04  0.00000000000E+00 0. -1.
         25    2    1    2    0    0  0.74114365432E+01  0.11231591268E+03 -0.12771001495E+03  0.21119712528E+03  0.12499833669E+03 0.  0.
          2    1    1    2  501    0  0.26250707334E+02 -0.81595175604E+02 -0.92961936931E+03  0.93356255501E+03  0.00000000000E+00 0. -1.
          1    1    1    2  502    0 -0.33662143878E+02 -0.30720737074E+02  0.81789230938E+02  0.93628958737E+02  0.00000000000E+00 0. -1.
         22    1    3    3    0    0  0.29224668024E+02  0.28065402602E+02  0.15693639236E+02  0.43451563341E+02  0.00000000000E+00 0. -1.
         22    1    3    3    0    0 -0.21813231481E+02  0.84250510076E+02 -0.14340365418E+03  0.16774556193E+03  0.00000000000E+00 0. -1.
</event>
<event>
 7    1  0.6219721E-006  0.5838771E+02  0.7818608E-02  0.1464959E+00
          2   -1    0    0  502    0  0.00000000000E+00  0.00000000000E+00  0.13208969520E+03  0.13208969520E+03  0.00000000000E+00 0. -1.
          1   -1    0    0  501    0 -0.00000000000E+00 -0.00000000000E+00 -0.92627768177E+03  0.92627768177E+03  0.00000000000E+00 0. -1.
         25    2    1    2    0    0  0.22109932885E+02  0.74395521327E+02 -0.24001121262E+03  0.28151906043E+03  0.12499622587E+03 0.  0.
          2    1    1    2  501    0 -0.32801948985E+02 -0.17320659159E+02 -0.65738258500E+03  0.65842830753E+03  0.00000000000E+00 0. -1.
          1    1    1    2  502    0  0.10692016100E+02 -0.57074862168E+02  0.10320581104E+03  0.11842000901E+03  0.00000000000E+00 0. -1.
         22    1    3    3    0    0 -0.44349737273E+02  0.64265528671E+02 -0.10673344446E+03  0.13224592824E+03  0.00000000000E+00 0.  1.
         22    1    3    3    0    0  0.66459670158E+02  0.10129992657E+02 -0.13327776816E+03  0.14927313219E+03  0.00000000000E+00 0.  1.
</event>
<event>
 7    1  0.6219721E-006  0.5492075E+02  0.7818608E-02  0.1565236E+00
          2   -1    0    0  502    0  0.00000000000E+00  0.00000000000E+00  0.47067117632E+02  0.47067117632E+02  0.00000000000E+00 0. -1.
          1   -1    0    0  501    0 -0.00000000000E+00 -0.00000000000E+00 -0.31066037235E+03  0.31066037235E+03  0.00000000000E+00 0. -1.
         25    2    1    2    0    0 -0.27752730673E+02 -0.33094656759E+02 -0.16905159251E+03  0.21463403128E+03  0.12499542427E+03 0.  0.
          2    1    1    2  501    0  0.26304054630E+02  0.53106389789E+02 -0.10492263807E+03  0.12050291244E+03  0.00000000000E+00 0. -1.
          1    1    1    2  502    0  0.14486760421E+01 -0.20011733031E+02  0.10380975854E+02  0.22590546271E+02  0.00000000000E+00 0. -1.
         22    1    3    3    0    0  0.37999126896E+02 -0.14896769709E+02 -0.10674484853E+02  0.42187581342E+02  0.00000000000E+00 0.  1.
         22    1    3    3    0    0 -0.65751857568E+02 -0.18197887050E+02 -0.15837710765E+03  0.17244644994E+03  0.00000000000E+00 0.  1.
</event>
<event>
 7    1  0.6219721E-006  0.1072059E+03  0.7818608E-02  0.1340774E+00
          2   -1    0    0  502    0  0.00000000000E+00  0.00000000000E+00  0.31154033840E+04  0.31154033840E+04  0.00000000000E+00 0. -1.
          1   -1    0    0  501    0 -0.00000000000E+00 -0.00000000000E+00 -0.44713292976E+02  0.44713292976E+02  0.00000000000E+00 0. -1.
         25    2    1    2    0    0 -0.55906361446E+02 -0.57984209822E+02  0.13960386536E+04  0.14039365866E+04  0.12500530836E+03 0.  0.
          2    1    1    2  501    0  0.29585034636E+02  0.10500992820E+03  0.33473561995E+02  0.11411765266E+03  0.00000000000E+00 0. -1.
          1    1    1    2  502    0  0.26321326810E+02 -0.47025718382E+02  0.16411778755E+04  0.16420624377E+04  0.00000000000E+00 0. -1.
         22    1    3    3    0    0 -0.78477832177E+02 -0.52060490804E+02  0.13390163551E+04  0.13423240533E+04  0.00000000000E+00 0.  1.
         22    1    3    3    0    0  0.22571470731E+02 -0.59237190172E+01  0.57022298485E+02  0.61612533323E+02  0.00000000000E+00 0.  1.
</event>
<event>
 7    1  0.6219721E-006  0.4828172E+02  0.7818608E-02  0.1567218E+00
          2   -1    0    0  502    0  0.00000000000E+00  0.00000000000E+00  0.21734222651E+04  0.21734222651E+04  0.00000000000E+00 0. -1.
          1   -1    0    0  501    0 -0.00000000000E+00 -0.00000000000E+00 -0.17979264471E+02  0.17979264471E+02  0.00000000000E+00 0. -1.
         25    2    1    2    0    0  0.26495938969E+02  0.60277869917E+02  0.11656886051E+04  0.11742193954E+04  0.12500323152E+03 0.  0.
          2    1    1    2  501    0  0.17515272317E+00 -0.22539611934E+02 -0.35371997475E+01  0.22816147060E+02  0.00000000000E+00 0. -1.
          1    1    1    2  502    0 -0.26671091692E+02 -0.37738257983E+02  0.99329159527E+03  0.99436598719E+03  0.00000000000E+00 0. -1.
         22    1    3    3    0    0 -0.10440194888E+02 -0.34483011089E+02  0.43452113617E+03  0.43601226302E+03  0.00000000000E+00 0.  1.
         22    1    3    3    0    0  0.36936133857E+02  0.94760881006E+02  0.73116746897E+03  0.73820713234E+03  0.00000000000E+00 0.  1.
</event>
<event>
 7    1  0.6219721E-006  0.4715900E+02  0.7818608E-02  0.1484211E+00
          2   -1    0    0  502    0  0.00000000000E+00  0.00000000000E+00  0.41212805232E+03  0.41212805232E+03  0.00000000000E+00 0. -1.
          1   -1    0    0  501    0 -0.00000000000E+00 -0.00000000000E+00 -0.18914913124E+03  0.18914913124E+03  0.00000000000E+00 0. -1.
         25    2    1    2    0    0  0.56129307809E+02  0.19585693920E+01 -0.76925027932E+02  0.15715222838E+03  0.12500011109E+03 0.  0.
          2    1    1    2  501    0 -0.21314202007E+02 -0.33901887745E+02 -0.64907352872E+02  0.76266622167E+02  0.00000000000E+00 0. -1.
          1    1    1    2  502    0 -0.34815105802E+02  0.31943318353E+02  0.36481130189E+03  0.36785833301E+03  0.00000000000E+00 0. -1.
         22    1    3    3    0    0 -0.37880475212E+02  0.11842114193E+02 -0.88502182671E+01  0.40663158193E+02  0.00000000000E+00 0.  1.
         22    1    3    3    0    0  0.94009783022E+02 -0.98835448008E+01 -0.68074809665E+02  0.11648907018E+03  0.00000000000E+00 0.  1.
</event>
<event>
 7    1  0.6219721E-006  0.6820854E+02  0.7818608E-02  0.1451537E+00
          2   -1    0    0  502    0  0.00000000000E+00  0.00000000000E+00  0.28899938940E+04  0.28899938940E+04  0.00000000000E+00 0. -1.
          1   -1    0    0  501    0 -0.00000000000E+00 -0.00000000000E+00 -0.93485293752E+02  0.93485293752E+02  0.00000000000E+00 0. -1.
         25    2    1    2    0    0  0.17931045333E+02  0.62121513853E+02  0.34206303872E+03  0.36988165838E+03  0.12499885552E+03 0.  0.
          2    1    1    2  501    0  0.31738792952E+02 -0.14784803102E+02 -0.75236680397E+02  0.82984935127E+02  0.00000000000E+00 0. -1.
          1    1    1    2  502    0 -0.49669838285E+02 -0.47336710751E+02  0.25296822420E+04  0.25306125943E+04  0.00000000000E+00 0. -1.
         22    1    3    3    0    0 -0.19827809813E+02  0.35297768934E+02  0.21213965718E+02  0.45706748683E+02  0.00000000000E+00 0. -1.
         22    1    3    3    0    0  0.37758855146E+02  0.26823744919E+02  0.32084907300E+03  0.32417490970E+03  0.00000000000E+00 0. -1.
</event>
<event>
 7    1  0.6219721E-006  0.1530283E+03  0.7818608E-02  0.1362736E+00
          2   -1    0    0  502    0  0.00000000000E+00  0.00000000000E+00  0.12277195134E+04  0.12277195134E+04  0.00000000000E+00 0. -1.
          1   -1    0    0  501    0 -0.00000000000E+00 -0.00000000000E+00 -0.73974221050E+03  0.73974221050E+03  0.00000000000E+00 0. -1.
         25    2    1    2    0    0  0.67079900296E+02  0.13869171781E+03 -0.19425033679E+03  0.27765572867E+03  0.12499761879E+03 0.  0.
          2    1    1    2  501    0  0.26127194447E+02 -0.17268578424E+02 -0.49835653974E+03  0.49933963871E+03  0.00000000000E+00 0. -1.
          1    1    1    2  502    0 -0.93207094742E+02 -0.12142313939E+03  0.11805841794E+04  0.11904663565E+04  0.00000000000E+00 0. -1.
         22    1    3    3    0    0  0.87585873665E+02  0.54787956788E+02 -0.14558523385E+03  0.17851628998E+03  0.00000000000E+00 0.  1.
         22    1    3    3    0    0 -0.20505973370E+02  0.83903761023E+02 -0.48665102940E+02  0.99139438681E+02  0.00000000000E+00 0.  1.
</event>
<event>
 7    1  0.6219721E-006  0.1345153E+03  0.7818608E-02  0.1297950E+00
          2   -1    0    0  502    0  0.00000000000E+00  0.00000000000E+00  0.41823110701E+04  0.41823110701E+04  0.00000000000E+00 0. -1.
          1   -1    0    0  501    0 -0.00000000000E+00 -0.00000000000E+00 -0.26671955926E+03  0.26671955926E+03  0.00000000000E+00 0. -1.
         25    2    1    2    0    0  0.25346711151E+02 -0.76572915134E+02  0.21373462039E+03  0.26041058618E+03  0.12500127336E+03 0.  0.
          2    1    1    2  501    0 -0.71543697459E+02  0.11940453994E+03 -0.22320527433E+03  0.26305235086E+03  0.00000000000E+00 0. -1.
          1    1    1    2  502    0  0.46196986308E+02 -0.42831624803E+02  0.39250621648E+04  0.39255676923E+04  0.00000000000E+00 0. -1.
         22    1    3    3    0    0 -0.46386578403E+02 -0.23162801509E+02  0.41770330400E+02  0.66580706900E+02  0.00000000000E+00 0. -1.
         22    1    3    3    0    0  0.71733289554E+02 -0.53410113625E+02  0.17196428999E+03  0.19382987928E+03  0.00000000000E+00 0. -1.
</event>
<event>
 7    1  0.6219721E-006  0.5980753E+02  0.7818608E-02  0.1421801E+00
          2   -1    0    0  502    0  0.00000000000E+00  0.00000000000E+00  0.74656975956E+03  0.74656975956E+03  0.00000000000E+00 0. -1.
          1   -1    0    0  501    0 -0.00000000000E+00 -0.00000000000E+00 -0.13894642817E+03  0.13894642817E+03  0.00000000000E+00 0. -1.
         25    2    1    2    0    0  0.77643178378E+02  0.69558561904E+02  0.36200077749E+03  0.39690947125E+03  0.12500283511E+03 0.  0.
          2    1    1    2  501    0 -0.31840057275E+02 -0.49702064368E+02 -0.11248760296E+03  0.12703363833E+03  0.00000000000E+00 0. -1.
          1    1    1    2  502    0 -0.45803121103E+02 -0.19856497536E+02  0.35811015686E+03  0.36157307815E+03  0.00000000000E+00 0. -1.
         22    1    3    3    0    0  0.61116781983E+02 -0.24934475648E+02  0.12821700549E+03  0.14421022714E+03  0.00000000000E+00 0.  1.
         22    1    3    3    0    0  0.16526396395E+02  0.94493037553E+02  0.23378377200E+03  0.25269924411E+03  0.00000000000E+00 0.  1.
</event>
<event>
 7    1  0.6219721E-006  0.2982847E+02  0.7818608E-02  0.1666694E+00
          2   -1    0    0  502    0  0.00000000000E+00  0.00000000000E+00  0.15171541231E+04  0.15171541231E+04  0.00000000000E+00 0. -1.
          1   -1    0    0  501    0 -0.00000000000E+00 -0.00000000000E+00 -0.12358547967E+04  0.12358547967E+04  0.00000000000E+00 0. -1.
         25    2    1    2    0    0  0.35160946227E+02 -0.22061878968E+01 -0.31552718951E+03  0.34120976975E+03  0.12500216099E+03 0.  0.
          2    1    1    2  501    0 -0.23283996958E+02  0.18670989810E+02 -0.90717240285E+03  0.90766321886E+03  0.00000000000E+00 0. -1.
          1    1    1    2  502    0 -0.11876949269E+02 -0.16464801913E+02  0.15039989188E+04  0.15041359312E+04  0.00000000000E+00 0. -1.
         22    1    3    3    0    0 -0.40023674155E+02  0.10107198481E+01 -0.44185799764E+02  0.59626344414E+02  0.00000000000E+00 0.  1.
         22    1    3    3    0    0  0.75184620382E+02 -0.32169077449E+01 -0.27134138974E+03  0.28158342534E+03  0.00000000000E+00 0.  1.
</event>
<event>
 7    1  0.6219721E-006  0.8772447E+02  0.7818608E-02  0.1358569E+00
          2   -1    0    0  502    0  0.00000000000E+00  0.00000000000E+00  0.25147548953E+04  0.25147548953E+04  0.00000000000E+00 0. -1.
          1   -1    0    0  501    0 -0.00000000000E+00 -0.00000000000E+00 -0.12178027215E+04  0.12178027215E+04  0.00000000000E+00 0. -1.
         25    2    1    2    0    0  0.13676192403E+03 -0.20913559496E+02 -0.40210418018E+02  0.19072220249E+03  0.12496751566E+03 0.  0.
          2    1    1    2  501    0 -0.81033328171E+02  0.30675631451E+02 -0.11003050292E+04  0.11037112629E+04  0.00000000000E+00 0. -1.
          1    1    1    2  502    0 -0.55728595860E+02 -0.97620719551E+01  0.24374676210E+04  0.24381241514E+04  0.00000000000E+00 0. -1.
         22    1    3    3    0    0  0.15399187881E+03 -0.40276025665E+02 -0.42367694081E+02  0.16471392923E+03  0.00000000000E+00 0.  1.
         22    1    3    3    0    0 -0.17229954775E+02  0.19362466169E+02  0.21572760627E+01  0.26008273255E+02  0.00000000000E+00 0.  1.
</event>
<event>
 7    1  0.6219721E-006  0.1776092E+03  0.7818608E-02  0.1242738E+00
          2   -1    0    0  502    0  0.00000000000E+00  0.00000000000E+00  0.62696114472E+02  0.62696114472E+02  0.00000000000E+00 0. -1.
          1   -1    0    0  501    0 -0.00000000000E+00 -0.00000000000E+00 -0.33677801055E+04  0.33677801055E+04  0.00000000000E+00 0. -1.
         25    2    1    2    0    0  0.70270297065E+02  0.22677527621E+03 -0.10892155095E+04  0.11217757624E+04  0.12500197809E+03 0.  0.
          2    1    1    2  501    0 -0.16071012666E+02 -0.16608165976E+03 -0.22209137777E+04  0.22271729621E+04  0.00000000000E+00 0. -1.
          1    1    1    2  502    0 -0.54199284400E+02 -0.60693616445E+02  0.50452961103E+01  0.81527495482E+02  0.00000000000E+00 0. -1.
         22    1    3    3    0    0  0.59351895043E+02  0.80701045785E+02 -0.67563098742E+03  0.68301723068E+03  0.00000000000E+00 0.  1.
         22    1    3    3    0    0  0.10918402022E+02  0.14607423042E+03 -0.41358452204E+03  0.43875853173E+03  0.00000000000E+00 0.  1.
</event>
<event>
 7    1  0.6219721E-006  0.5459425E+02  0.7818608E-02  0.1436253E+00
          2   -1    0    0  502    0  0.00000000000E+00  0.00000000000E+00  0.22386177580E+04  0.22386177580E+04  0.00000000000E+00 0. -1.
          1   -1    0    0  501    0 -0.00000000000E+00 -0.00000000000E+00 -0.14989062752E+02  0.14989062752E+02  0.00000000000E+00 0. -1.
         25    2    1    2    0    0 -0.98606517341E+01  0.71633923707E+01  0.42298185636E+03  0.44123169231E+03  0.12499283519E+03 0.  0.
          2    1    1    2  501    0  0.16363031718E+00  0.49006557821E+02  0.10611463028E+03  0.11688449104E+03  0.00000000000E+00 0. -1.
          1    1    1    2  502    0  0.96970214169E+01 -0.56169950192E+02  0.16945322086E+04  0.16954906374E+04  0.00000000000E+00 0. -1.
         22    1    3    3    0    0  0.30612765239E+01  0.61536226837E+02  0.14270888578E+03  0.15544100073E+03  0.00000000000E+00 0. -1.
         22    1    3    3    0    0 -0.12921928258E+02 -0.54372834466E+02  0.28027297058E+03  0.28579069158E+03  0.00000000000E+00 0. -1.
</event>
<event>
 7    1  0.6219721E-006  0.7117485E+02  0.7818608E-02  0.1427148E+00
          2   -1    0    0  502    0  0.00000000000E+00  0.00000000000E+00  0.10698317764E+04  0.10698317764E+04  0.00000000000E+00 0. -1.
          1   -1    0    0  501    0 -0.00000000000E+00 -0.00000000000E+00 -0.72063765173E+02  0.72063765173E+02  0.00000000000E+00 0. -1.
         25    2    1    2    0    0 -0.25197158035E+02  0.40957247052E+02  0.18804902031E+03  0.23086628703E+03  0.12499766232E+03 0.  0.
          2    1    1    2  501    0  0.23938261051E+02  0.32382019658E+02 -0.40815903986E+02  0.57337366154E+02  0.00000000000E+00 0. -1.
          1    1    1    2  502    0  0.12588969840E+01 -0.73339266710E+02  0.85053489493E+03  0.85369188842E+03  0.00000000000E+00 0. -1.
         22    1    3    3    0    0  0.13696070403E+01  0.82209668156E+02  0.13894015799E+03  0.16144557245E+03  0.00000000000E+00 0. -1.
         22    1    3    3    0    0 -0.26566765075E+02 -0.41252421104E+02  0.49108862325E+02  0.69420714577E+02  0.00000000000E+00 0. -1.
</event>
<event>
 7    1  0.6219721E-006  0.6995282E+02  0.7818608E-02  0.1417375E+00
          2   -1    0    0  502    0  0.00000000000E+00  0.00000000000E+00  0.14891629697E+03  0.14891629697E+03  0.00000000000E+00 0. -1.
          1   -1    0    0  501    0 -0.00000000000E+00 -0.00000000000E+00 -0.18410188647E+04  0.18410188647E+04  0.00000000000E+00 0. -1.
         25    2    1    2    0    0  0.18061391496E+02 -0.93181698897E+02 -0.10646181972E+03  0.18966079757E+03  0.12501222423E+03 0.  0.
          2    1    1    2  501    0 -0.35219157038E+02  0.26641368952E+02 -0.16816377439E+04  0.16822174810E+04  0.00000000000E+00 0. -1.
          1    1    1    2  502    0  0.17157765542E+02  0.66540329944E+02  0.95996995907E+02  0.11805688311E+03  0.00000000000E+00 0. -1.
         22    1    3    3    0    0 -0.48775456273E+02 -0.56469158062E+02 -0.26542870654E+02  0.79198074026E+02  0.00000000000E+00 0.  1.
         22    1    3    3    0    0  0.66836847770E+02 -0.36712540834E+02 -0.79918949061E+02  0.11046272355E+03  0.00000000000E+00 0.  1.
</event>
<event>
 7    1  0.6219721E-006  0.1172372E+03  0.7818608E-02  0.1319107E+00
          2   -1    0    0  502    0  0.00000000000E+00  0.00000000000E+00  0.13635292442E+04  0.13635292442E+04  0.00000000000E+00 0. -1.
          1   -1    0    0  501    0 -0.00000000000E+00 -0.00000000000E+00 -0.34446113623E+03  0.34446113623E+03  0.00000000000E+00 0. -1.
         25    2    1    2    0    0  0.35427115525E+02  0.82186899755E+02 -0.81756941777E+02  0.17412652898E+03  0.12500433416E+03 0.  0.
          2    1    1    2  501    0 -0.94280955810E+02 -0.91770026971E+02 -0.19578335358E+03  0.23588505255E+03  0.00000000000E+00 0. -1.
          1    1    1    2  502    0  0.58853840285E+02  0.95831272161E+01  0.12966084033E+04  0.12979787989E+04  0.00000000000E+00 0. -1.
         22    1    3    3    0    0 -0.32095351665E+02  0.78697406916E+02 -0.55963642143E+02  0.10176110601E+03  0.00000000000E+00 0.  1.
         22    1    3    3    0    0  0.67522467191E+02  0.34894928386E+01 -0.25793299634E+02  0.72365422971E+02  0.00000000000E+00 0.  1.
</event>
<event>
 7    1  0.6219721E-006  0.5189562E+02  0.7818608E-02  0.1454173E+00
          2   -1    0    0  502    0  0.00000000000E+00  0.00000000000E+00  0.21409435597E+04  0.21409435597E+04  0.00000000000E+00 0. -1.
          1   -1    0    0  501    0 -0.00000000000E+00 -0.00000000000E+00 -0.60179644139E+03  0.60179644139E+03  0.00000000000E+00 0. -1.
         25    2    1    2    0    0 -0.34899560158E+02  0.57158637465E+02 -0.91487929421E+02  0.16876224089E+03  0.12500225432E+03 0.  0.
          2    1    1    2  501    0 -0.98192976412E+01 -0.51020939691E+02 -0.46999732282E+03  0.47286048508E+03  0.00000000000E+00 0. -1.
          1    1    1    2  502    0  0.44718857799E+02 -0.61376977739E+01  0.21006323705E+04  0.21011172751E+04  0.00000000000E+00 0. -1.
         22    1    3    3    0    0  0.34820746063E+00  0.73596779444E+02 -0.48052301848E+01  0.73754304485E+02  0.00000000000E+00 0. -1.
         22    1    3    3    0    0 -0.35247767618E+02 -0.16438141980E+02 -0.86682699237E+02  0.95007936409E+02  0.00000000000E+00 0. -1.
</event>
<event>
 7    1  0.6219721E-006  0.3987700E+03  0.7818608E-02  0.1171817E+00
          2   -1    0    0  502    0  0.00000000000E+00  0.00000000000E+00  0.11478856471E+04  0.11478856471E+04  0.00000000000E+00 0. -1.
          1   -1    0    0  501    0 -0.00000000000E+00 -0.00000000000E+00 -0.50620974930E+03  0.50620974930E+03  0.00000000000E+00 0. -1.
         25    2    1    2    0    0  0.10656091152E+03 -0.44512506804E+03  0.20956387219E+03  0.51868440983E+03  0.12499978564E+03 0.  0.
          2    1    1    2  501    0 -0.28582780441E+02  0.72147669274E+02 -0.30010761559E+03  0.30997877743E+03  0.00000000000E+00 0. -1.
          1    1    1    2  502    0 -0.77978131081E+02  0.37297739877E+03  0.73221964125E+03  0.82543220918E+03  0.00000000000E+00 0. -1.
         22    1    3    3    0    0 -0.17094511982E+02 -0.18827955491E+03  0.73861573083E+02  0.20297030599E+03  0.00000000000E+00 0.  1.
         22    1    3    3    0    0  0.12365542350E+03 -0.25684551314E+03  0.13570229911E+03  0.31571410384E+03  0.00000000000E+00 0.  1.
</event>
<event>
 7    1  0.6219721E-006  0.8317061E+02  0.7818608E-02  0.1462586E+00
          2   -1    0    0  502    0  0.00000000000E+00  0.00000000000E+00  0.10779620594E+04  0.10779620594E+04  0.00000000000E+00 0. -1.
          1   -1    0    0  501    0 -0.00000000000E+00 -0.00000000000E+00 -0.29332737233E+02  0.29332737233E+02  0.00000000000E+00 0. -1.
         25    2    1    2    0    0 -0.60660639590E+02  0.54179161755E+02  0.36030416077E+03  0.38994734883E+03  0.12499900732E+03 0.  0.
          2    1    1    2  501    0 -0.16502562666E+02 -0.20723343273E+02  0.27510366685E+01  0.26633808096E+02  0.00000000000E+00 0. -1.
          1    1    1    2  502    0  0.77163202256E+02 -0.33455818481E+02  0.68557412476E+03  0.69071363974E+03  0.00000000000E+00 0. -1.
         22    1    3    3    0    0 -0.30352325808E+02  0.44111827992E+02  0.35319280257E+03  0.35722860025E+03  0.00000000000E+00 0.  1.
         22    1    3    3    0    0 -0.30308313782E+02  0.10067333763E+02  0.71113582005E+01  0.32718748583E+02  0.00000000000E+00 0.  1.
</event>
<event>
 7    1  0.6219721E-006  0.4042400E+02  0.7818608E-02  0.1521404E+00
          2   -1    0    0  502    0  0.00000000000E+00  0.00000000000E+00  0.10435023661E+04  0.10435023661E+04  0.00000000000E+00 0. -1.
          1   -1    0    0  501    0 -0.00000000000E+00 -0.00000000000E+00 -0.27437607691E+03  0.27437607691E+03  0.00000000000E+00 0. -1.
         25    2    1    2    0    0  0.64380525964E+02  0.88007257978E+01  0.65585042085E+02  0.15539242459E+03  0.12499241168E+03 0.  0.
          2    1    1    2  501    0 -0.32553524878E+02  0.15870053770E+02 -0.22760557567E+03  0.23046884533E+03  0.00000000000E+00 0. -1.
          1    1    1    2  502    0 -0.31827001086E+02 -0.24670779568E+02  0.93114682277E+03  0.93201717308E+03  0.00000000000E+00 0. -1.
         22    1    3    3    0    0 -0.13233708773E+02  0.50779784912E+02  0.20914671527E+02  0.56490185773E+02  0.00000000000E+00 0. -1.
         22    1    3    3    0    0  0.77614234737E+02 -0.41979059114E+02  0.44670370558E+02  0.98902238820E+02  0.00000000000E+00 0. -1.
</event>
<event>
 7    1  0.6219721E-006  0.9737991E+02  0.7818608E-02  0.1431739E+00
          2   -1    0    0  502    0  0.00000000000E+00  0.00000000000E+00  0.10576850893E+03  0.10576850893E+03  0.00000000000E+00 0. -1.
          1   -1    0    0  501    0 -0.00000000000E+00 -0.00000000000E+00 -0.12634798424E+04  0.12634798424E+04  0.00000000000E+00 0. -1.
         25    2    1    2    0    0 -0.14340479558E+02  0.12014084004E+03 -0.36387589030E+03  0.40332362657E+03  0.12499925364E+03 0.  0.
          2    1    1    2  501    0  0.19932868088E+02 -0.92270789479E+02 -0.87492212333E+03  0.87999996574E+03  0.00000000000E+00 0. -1.
          1    1    1    2  502    0 -0.55923885304E+01 -0.27870050557E+02  0.81086680116E+02  0.85924759061E+02  0.00000000000E+00 0. -1.
         22    1    3    3    0    0  0.48292140344E+02  0.71687160309E+02 -0.25080415278E+03  0.26528079995E+03  0.00000000000E+00 0.  1.
         22    1    3    3    0    0 -0.62632619902E+02  0.48453679727E+02 -0.11307173753E+03  0.13804282662E+03  0.00000000000E+00 0.  1.
</event>
<event>
 7    1  0.6219721E-006  0.1281719E+03  0.7818608E-02  0.1394686E+00
          2   -1    0    0  502    0  0.00000000000E+00  0.00000000000E+00  0.92420470142E+03  0.92420470142E+03  0.00000000000E+00 0. -1.
          1   -1    0    0  501    0 -0.00000000000E+00 -0.00000000000E+00 -0.44044769798E+02  0.44044769798E+02  0.00000000000E+00 0. -1.
         25    2    1    2    0    0 -0.84601003882E+02  0.82016629441E+02  0.45487841655E+03  0.48623426258E+03  0.12500130762E+03 0.  0.
          2    1    1    2  501    0  0.11135397921E+03 -0.71354088629E+02  0.13039437646E+03  0.18572508732E+03  0.00000000000E+00 0. -1.
          1    1    1    2  502    0 -0.26752975325E+02 -0.10662540811E+02  0.29488713862E+03  0.29629012131E+03  0.00000000000E+00 0. -1.
         22    1    3    3    0    0 -0.63405141035E+02 -0.16730756536E+02  0.12381475606E+03  0.14010790107E+03  0.00000000000E+00 0.  1.
         22    1    3    3    0    0 -0.21195862848E+02  0.98747385976E+02  0.33106366049E+03  0.34612636152E+03  0.00000000000E+00 0.  1.
</event>
<event>
 7    1  0.1036893E-005  0.9346568E+02  0.7818608E-02  0.1341799E+00
          2   -1    0    0  502    0  0.00000000000E+00  0.00000000000E+00  0.14625465983E+04  0.14625465983E+04  0.00000000000E+00 0. -1.
          1   -1    0    0  501    0 -0.00000000000E+00 -0.00000000000E+00 -0.92611420504E+03  0.92611420504E+03  0.00000000000E+00 0. -1.
         25    2    1    2    0    0 -0.10329435265E+03  0.56758585310E+02 -0.65349579254E+02  0.18381388288E+03  0.12500286291E+03 0.  0.
          2    1    1    2  501    0  0.99982310070E+01 -0.60446634067E+02 -0.79880502500E+03  0.80115118933E+03  0.00000000000E+00 0. -1.
          1    1    1    2  502    0  0.93296121640E+02  0.36880487568E+01  0.14005869975E+04  0.14036957311E+04  0.00000000000E+00 0. -1.
         22    1    3    3    0    0 -0.38400576198E+02  0.78751159743E+02 -0.74087038087E+02  0.11473987374E+03  0.00000000000E+00 0. -1.
         22    1    3    3    0    0 -0.64893776449E+02 -0.21992574434E+02  0.87374588331E+01  0.69074009141E+02  0.00000000000E+00 0. -1.
</event>
<event>
 7    1  0.6219721E-006  0.7360988E+02  0.7818608E-02  0.1399175E+00
          2   -1    0    0  502    0  0.00000000000E+00  0.00000000000E+00  0.16211985563E+03  0.16211985563E+03  0.00000000000E+00 0. -1.
          1   -1    0    0  501    0 -0.00000000000E+00 -0.00000000000E+00 -0.43617064574E+03  0.43617064574E+03  0.00000000000E+00 0. -1.
         25    2    1    2    0    0  0.56708006983E+01  0.98291528148E+02 -0.16536053714E+03  0.22948506696E+03  0.12500362486E+03 0.  0.
          2    1    1    2  501    0  0.32256432694E+02 -0.36067996338E+02 -0.22577158506E+03  0.23089864969E+03  0.00000000000E+00 0. -1.
          1    1    1    2  502    0 -0.37927233392E+02 -0.62223531810E+02  0.11708133209E+03  0.13790678471E+03  0.00000000000E+00 0. -1.
         22    1    3    3    0    0  0.63069599785E+02  0.53665149597E+02 -0.63581425305E+02  0.10440459924E+03  0.00000000000E+00 0. -1.
         22    1    3    3    0    0 -0.57398799087E+02  0.44626378551E+02 -0.10177911184E+03  0.12508046772E+03  0.00000000000E+00 0. -1.
</event>
<event>
 7    1  0.6219721E-006  0.6940099E+02  0.7818608E-02  0.1421437E+00
          2   -1    0    0  502    0  0.00000000000E+00  0.00000000000E+00  0.64278881525E+03  0.64278881525E+03  0.00000000000E+00 0. -1.
          1   -1    0    0  501    0 -0.00000000000E+00 -0.00000000000E+00 -0.18956737912E+04  0.18956737912E+04  0.00000000000E+00 0. -1.
         25    2    1    2    0    0 -0.80265453855E+02  0.17561934095E+02  0.83046341447E+02  0.17108302256E+03  0.12498696400E+03 0.  0.
          2    1    1    2  501    0  0.30397559119E+02  0.30613261197E+02 -0.18490721730E+04  0.18495753795E+04  0.00000000000E+00 0. -1.
          1    1    1    2  502    0  0.49867894736E+02 -0.48175195292E+02  0.51314085563E+03  0.51780420439E+03  0.00000000000E+00 0. -1.
         22    1    3    3    0    0 -0.25235541061E+02 -0.34436897977E+02 -0.16711852806E+02  0.45847775291E+02  0.00000000000E+00 0.  1.
         22    1    3    3    0    0 -0.55029912795E+02  0.51998832072E+02  0.99758194254E+02  0.12523524727E+03  0.00000000000E+00 0.  1.
</event>
<event>
 7    1  0.6219721E-006  0.4938441E+02  0.7818608E-02  0.1568114E+00
          2   -1    0    0  502    0  0.00000000000E+00  0.00000000000E+00  0.66705085611E+03  0.66705085611E+03  0.00000000000E+00 0. -1.
          1   -1    0    0  501    0 -0.00000000000E+00 -0.00000000000E+00 -0.15686873472E+03  0.15686873472E+03  0.00000000000E+00 0. -1.
         25    2    1    2    0    0  0.40219928480E+02  0.33282176680E+00  0.38132033983E+03  0.40329678404E+03  0.12500136410E+03 0.  0.
          2    1    1    2  501    0  0.74640140634E+01  0.20603194824E+02 -0.14256799032E+03  0.14424227884E+03  0.00000000000E+00 0. -1.
          1    1    1    2  502    0 -0.47683942544E+02 -0.20936016590E+02  0.27142977188E+03  0.27638052795E+03  0.00000000000E+00 0. -1.
         22    1    3    3    0    0 -0.17470894366E+02 -0.20128566166E+02  0.30165668031E+03  0.30283187431E+03  0.00000000000E+00 0. -1.
         22    1    3    3    0    0  0.57690822846E+02  0.20461387933E+02  0.79663659524E+02  0.10046490972E+03  0.00000000000E+00 0. -1.
</event>
<event>
 7    1  0.6219721E-006  0.8557712E+02  0.7818608E-02  0.1381586E+00
          2   -1    0    0  502    0  0.00000000000E+00  0.00000000000E+00  0.16440659902E+03  0.16440659902E+03  0.00000000000E+00 0. -1.
          1   -1    0    0  501    0 -0.00000000000E+00 -0.00000000000E+00 -0.53682614990E+03  0.53682614990E+03  0.00000000000E+00 0. -1.
         25    2    1    2    0    0  0.13897529780E+02  0.11051350413E+03 -0.49647030839E+02  0.17462943007E+03  0.12499693695E+03 0.  0.
          2    1    1    2  501    0  0.27845451734E+02 -0.39019126167E+02 -0.40623015533E+03  0.40904865296E+03  0.00000000000E+00 0. -1.
          1    1    1    2  502    0 -0.41742981515E+02 -0.71494377959E+02  0.83457635287E+02  0.11755466589E+03  0.00000000000E+00 0. -1.
         22    1    3    3    0    0  0.57478521353E+02  0.11377009442E+02 -0.24150498390E+02  0.63375573632E+02  0.00000000000E+00 0.  1.
         22    1    3    3    0    0 -0.43580991573E+02  0.99136494683E+02 -0.25496532449E+02  0.11125385643E+03  0.00000000000E+00 0.  1.
</event>
<event>
 7    1  0.6219721E-006  0.1866448E+03  0.7818608E-02  0.1385379E+00
          2   -1    0    0  502    0  0.00000000000E+00  0.00000000000E+00  0.96486946452E+03  0.96486946452E+03  0.00000000000E+00 0. -1.
          1   -1    0    0  501    0 -0.00000000000E+00 -0.00000000000E+00 -0.90132084247E+03  0.90132084247E+03  0.00000000000E+00 0. -1.
         25    2    1    2    0    0  0.20442646989E+03 -0.26264636746E+01  0.62772351705E+03  0.67190684322E+03  0.12499964885E+03 0.  0.
          2    1    1    2  501    0 -0.18591238794E+03  0.13184192748E+02 -0.86897569744E+03  0.88873843265E+03  0.00000000000E+00 0. -1.
          1    1    1    2  502    0 -0.18514081950E+02 -0.10557729074E+02  0.30480080243E+03  0.30554503111E+03  0.00000000000E+00 0. -1.
         22    1    3    3    0    0  0.83924408764E+02  0.59840374515E+02  0.24365156382E+03  0.26455672617E+03  0.00000000000E+00 0. -1.
         22    1    3    3    0    0  0.12050206113E+03 -0.62466838189E+02  0.38407195323E+03  0.40735011706E+03  0.00000000000E+00 0. -1.
</event>
<event>
 7    1  0.6219721E-006  0.1196320E+03  0.7818608E-02  0.1280860E+00
          2   -1    0    0  502    0  0.00000000000E+00  0.00000000000E+00  0.66771926500E+03  0.66771926500E+03  0.00000000000E+00 0. -1.
          1   -1    0    0  501    0 -0.00000000000E+00 -0.00000000000E+00 -0.28065973277E+03  0.28065973277E+03  0.00000000000E+00 0. -1.
         25    2    1    2    0    0 -0.56664901392E+02 -0.98081643750E+02  0.17496178192E+03  0.24303849599E+03  0.12500066204E+03 0.  0.
          2    1    1    2  501    0  0.11551831118E+03  0.39353505203E+02 -0.22738398592E+03  0.25806327836E+03  0.00000000000E+00 0. -1.
          1    1    1    2  502    0 -0.58853409786E+02  0.58728138547E+02  0.43948173624E+03  0.44727722341E+03  0.00000000000E+00 0. -1.
         22    1    3    3    0    0  0.33013665869E+02 -0.24966981210E+02  0.11848998434E+02  0.43054047995E+02  0.00000000000E+00 0.  1.
         22    1    3    3    0    0 -0.89678567260E+02 -0.73114662539E+02  0.16311278348E+03  0.19998444799E+03  0.00000000000E+00 0.  1.
</event>
<event>
 7    1  0.6219721E-006  0.4986873E+02  0.7818608E-02  0.1471190E+00
          2   -1    0    0  502    0  0.00000000000E+00  0.00000000000E+00  0.75637454936E+03  0.75637454936E+03  0.00000000000E+00 0. -1.
          1   -1    0    0  501    0 -0.00000000000E+00 -0.00000000000E+00 -0.53214035983E+03  0.53214035983E+03  0.00000000000E+00 0. -1.
         25    2    1    2    0    0 -0.35337891966E+02  0.43960549941E+01  0.30662909294E+03  0.33303813808E+03  0.12499963547E+03 0.  0.
          2    1    1    2  501    0  0.74559614384E+01  0.40855304221E+02 -0.51648135043E+03  0.51814836928E+03  0.00000000000E+00 0. -1.
          1    1    1    2  502    0  0.27881930528E+02 -0.45251359215E+02  0.43408644702E+03  0.43732840183E+03  0.00000000000E+00 0. -1.
         22    1    3    3    0    0 -0.50958845972E+02  0.10118476836E+02  0.39177611590E+02  0.65069753389E+02  0.00000000000E+00 0. -1.
         22    1    3    3    0    0  0.15620954006E+02 -0.57224218421E+01  0.26745148135E+03  0.26796838469E+03  0.00000000000E+00 0. -1.
</event>
<event>
 7    1  0.6219721E-006  0.5606716E+02  0.7818608E-02  0.1445928E+00
          2   -1    0    0  502    0  0.00000000000E+00  0.00000000000E+00  0.11420991368E+04  0.11420991368E+04  0.00000000000E+00 0. -1.
          1   -1    0    0  501    0 -0.00000000000E+00 -0.00000000000E+00 -0.13549214251E+03  0.13549214251E+03  0.00000000000E+00 0. -1.
         25    2    1    2    0    0 -0.29667687857E+02 -0.91547117732E+02  0.57575380372E+02  0.16795143947E+03  0.12502685762E+03 0.  0.
          2    1    1    2  501    0  0.90743099756E+01  0.52216422184E+02 -0.71023822673E+02  0.88618740875E+02  0.00000000000E+00 0. -1.
          1    1    1    2  502    0  0.20593377881E+02  0.39330695548E+02  0.10200554366E+04  0.10210210990E+04  0.00000000000E+00 0. -1.
         22    1    3    3    0    0 -0.68677667445E+02 -0.12940485249E+02  0.28969890650E+02  0.75652711309E+02  0.00000000000E+00 0. -1.
         22    1    3    3    0    0  0.39009979588E+02 -0.78606632483E+02  0.28605489722E+02  0.92298728161E+02  0.00000000000E+00 0. -1.
</event>
<event>
 7    1  0.6219721E-006  0.6218315E+02  0.7818608E-02  0.1507657E+00
          2   -1    0    0  502    0  0.00000000000E+00  0.00000000000E+00  0.47418940810E+03  0.47418940810E+03  0.00000000000E+00 0. -1.
          1   -1    0    0  501    0 -0.00000000000E+00 -0.00000000000E+00 -0.12328983764E+04  0.12328983764E+04  0.00000000000E+00 0. -1.
         25    2    1    2    0    0  0.82665565332E+02 -0.97852448971E+01 -0.38413833414E+02  0.15501598034E+03  0.12499993942E+03 0.  0.
          2    1    1    2  501    0 -0.61678187159E+02 -0.52679271413E+01 -0.11349382038E+04  0.11366251257E+04  0.00000000000E+00 0. -1.
          1    1    1    2  502    0 -0.20987378173E+02  0.15053172038E+02  0.41464306894E+03  0.41544667847E+03  0.00000000000E+00 0. -1.
         22    1    3    3    0    0 -0.67106854137E+00  0.48354801361E+02 -0.85904046274E+01  0.49116516563E+02  0.00000000000E+00 0.  1.
         22    1    3    3    0    0  0.83336633873E+02 -0.58140046258E+02 -0.29823428787E+02  0.10589946378E+03  0.00000000000E+00 0.  1.
</event>
<event>
 7    1  0.6219721E-006  0.9761556E+02  0.7818608E-02  0.1446872E+00
          2   -1    0    0  502    0  0.00000000000E+00  0.00000000000E+00  0.10355690840E+03  0.10355690840E+03  0.00000000000E+00 0. -1.
          1   -1    0    0  501    0 -0.00000000000E+00 -0.00000000000E+00 -0.10603987090E+04  0.10603987090E+04  0.00000000000E+00 0. -1.
         25    2    1    2    0    0  0.69445490449E+02  0.91892675305E+02 -0.29999593693E+03  0.34480327798E+03  0.12499919365E+03 0.  0.
          2    1    1    2  501    0 -0.45444405004E+02 -0.83821199010E+02 -0.73285741393E+03  0.73903394814E+03  0.00000000000E+00 0. -1.
          1    1    1    2  502    0 -0.24001085445E+02 -0.80714762953E+01  0.76011550315E+02  0.80118391231E+02  0.00000000000E+00 0. -1.
         22    1    3    3    0    0  0.34232254633E+02 -0.28097092825E+02 -0.65851896194E+02  0.79358465931E+02  0.00000000000E+00 0.  1.
         22    1    3    3    0    0  0.35213235816E+02  0.11998976813E+03 -0.23414404074E+03  0.26544481205E+03  0.00000000000E+00 0.  1.
</event>
<event>
 7    1  0.6219721E-006  0.6221277E+02  0.7818608E-02  0.1464151E+00
          2   -1    0    0  502    0  0.00000000000E+00  0.00000000000E+00  0.94606982711E+03  0.94606982711E+03  0.00000000000E+00 0. -1.
          1   -1    0    0  501    0 -0.00000000000E+00 -0.00000000000E+00 -0.12580958240E+03  0.12580958240E+03  0.00000000000E+00 0. -1.
         25    2    1    2    0    0  0.48684392638E+02 -0.81687454819E+02  0.86399537010E+02  0.17925710521E+03  0.12500087764E+03 0.  0.
          2    1    1    2  501    0 -0.10912259863E+02  0.33273216463E+02 -0.74296812949E+02  0.82135258954E+02  0.00000000000E+00 0. -1.
          1    1    1    2  502    0 -0.37772132775E+02  0.48414238356E+02  0.80815752065E+03  0.81048704535E+03  0.00000000000E+00 0. -1.
         22    1    3    3    0    0  0.62906867757E+02 -0.72395702083E+02  0.49298582695E+01  0.96034968598E+02  0.00000000000E+00 0. -1.
         22    1    3    3    0    0 -0.14222475119E+02 -0.92917527357E+01  0.81469678740E+02  0.83222136607E+02  0.00000000000E+00 0. -1.
</event>
<event>
 7    1  0.6219721E-006  0.6186391E+02  0.7818608E-02  0.1425612E+00
          2   -1    0    0  502    0  0.00000000000E+00  0.00000000000E+00  0.18196127213E+03  0.18196127213E+03  0.00000000000E+00 0. -1.
          1   -1    0    0  501    0 -0.00000000000E+00 -0.00000000000E+00 -0.11576990533E+04  0.11576990533E+04  0.00000000000E+00 0. -1.
         25    2    1    2    0    0  0.21295603207E+02  0.74481284805E-01 -0.12848519433E+03  0.18051911896E+03  0.12500079553E+03 0.  0.
          2    1    1    2  501    0  0.32941344259E+02  0.33349842952E+02 -0.99611578274E+03  0.99721812900E+03  0.00000000000E+00 0. -1.
          1    1    1    2  502    0 -0.54236947467E+02 -0.33424324237E+02  0.14886319590E+03  0.16192307747E+03  0.00000000000E+00 0. -1.
         22    1    3    3    0    0 -0.48662333193E+02  0.19582218592E+02 -0.68790029060E+02  0.86507537561E+02  0.00000000000E+00 0.  1.
         22    1    3    3    0    0  0.69957936400E+02 -0.19507737307E+02 -0.59695165272E+02  0.94011581399E+02  0.00000000000E+00 0.  1.
</event>
<event>
 7    1  0.6219721E-006  0.2836904E+03  0.7818608E-02  0.1258091E+00
          2   -1    0    0  502    0  0.00000000000E+00  0.00000000000E+00  0.16760594141E+04  0.16760594141E+04  0.00000000000E+00 0. -1.
          1   -1    0    0  501    0 -0.00000000000E+00 -0.00000000000E+00 -0.51773939281E+03  0.51773939281E+03  0.00000000000E+00 0. -1.
         25    2    1    2    0    0  0.61625368927E+02  0.25830453501E+03 -0.72376937853E+02  0.30230004176E+03  0.12501190028E+03 0.  0.
          2    1    1    2  501    0 -0.34665584063E+02 -0.29270351280E+03 -0.26428186262E+03  0.39588123476E+03  0.00000000000E+00 0. -1.
          1    1    1    2  502    0 -0.26959784864E+02  0.34398977781E+02  0.14949788218E+04  0.14956175304E+04  0.00000000000E+00 0. -1.
         22    1    3    3    0    0  0.83704751985E+02  0.17888824664E+03 -0.91520986863E+02  0.21767770057E+03  0.00000000000E+00 0.  1.
         22    1    3    3    0    0 -0.22079383058E+02  0.79416288377E+02  0.19144049010E+02  0.84622341189E+02  0.00000000000E+00 0.  1.
</event>
<event>
 7    1  0.6219721E-006  0.1080551E+03  0.7818608E-02  0.1269530E+00
          2   -1    0    0  502    0  0.00000000000E+00  0.00000000000E+00  0.21746210850E+04  0.21746210850E+04  0.00000000000E+00 0. -1.
          1   -1    0    0  501    0 -0.00000000000E+00 -0.00000000000E+00 -0.25117578073E+03  0.25117578073E+03  0.00000000000E+00 0. -1.
         25    2    1    2    0    0 -0.83443632192E+01 -0.23445575149E-01  0.19994451330E+03  0.23594892091E+03  0.12499782371E+03 0.  0.
          2    1    1    2  501    0  0.10941562188E+02 -0.10800046123E+03 -0.21895595685E+03  0.24438806936E+03  0.00000000000E+00 0. -1.
          1    1    1    2  502    0 -0.25971989689E+01  0.10802390680E+03  0.19424567478E+04  0.19454598755E+04  0.00000000000E+00 0. -1.
         22    1    3    3    0    0  0.30137329430E+02  0.56098215419E+01 -0.15898684113E+01  0.30696195277E+02  0.00000000000E+00 0. -1.
         22    1    3    3    0    0 -0.38481692649E+02 -0.56332671171E+01  0.20153438171E+03  0.20525272563E+03  0.00000000000E+00 0. -1.
</event>
<event>
 7    1  0.6219721E-006  0.6590771E+02  0.7818608E-02  0.1512613E+00
          2   -1    0    0  502    0  0.00000000000E+00  0.00000000000E+00  0.18347818370E+04  0.18347818370E+04  0.00000000000E+00 0. -1.
          1   -1    0    0  501    0 -0.00000000000E+00 -0.00000000000E+00 -0.56220664526E+03  0.56220664526E+03  0.00000000000E+00 0. -1.
         25    2    1    2    0    0  0.27542770062E+02  0.67551434202E+02  0.14918928199E+03  0.20785660866E+03  0.12500050984E+03 0.  0.
          2    1    1    2  501    0  0.15505880254E+02 -0.17742400653E+02 -0.53195786783E+03  0.53247948153E+03  0.00000000000E+00 0. -1.
          1    1    1    2  502    0 -0.43048650316E+02 -0.49809033549E+02  0.16553437776E+04  0.16566523921E+04  0.00000000000E+00 0. -1.
         22    1    3    3    0    0 -0.48341879859E+02  0.42683900760E+02  0.74238747181E+02  0.98337400390E+02  0.00000000000E+00 0.  1.
         22    1    3    3    0    0  0.75884649921E+02  0.24867533442E+02  0.74950534804E+02  0.10951920827E+03  0.00000000000E+00 0.  1.
</event>
<event>
 7    1  0.6219721E-006  0.7468353E+02  0.7818608E-02  0.1385358E+00
          2   -1    0    0  502    0  0.00000000000E+00  0.00000000000E+00  0.14607185445E+03  0.14607185445E+03  0.00000000000E+00 0. -1.
          1   -1    0    0  501    0 -0.00000000000E+00 -0.00000000000E+00 -0.13032878908E+04  0.13032878908E+04  0.00000000000E+00 0. -1.
         25    2    1    2    0    0  0.10858466185E+03  0.58464293343E+02 -0.46375136573E+03  0.49588186549E+03  0.12499917169E+03 0.  0.
          2    1    1    2  501    0 -0.60642253154E+02 -0.35237343356E+02 -0.81644657391E+03  0.81945357482E+03  0.00000000000E+00 0. -1.
          1    1    1    2  502    0 -0.47942408696E+02 -0.23226949987E+02  0.12298190333E+03  0.13402430490E+03  0.00000000000E+00 0. -1.
         22    1    3    3    0    0 -0.22618787160E+02 -0.55937683871E+01 -0.12268157478E+03  0.12487461139E+03  0.00000000000E+00 0. -1.
         22    1    3    3    0    0  0.13120344901E+03  0.64058061730E+02 -0.34106979094E+03  0.37100725410E+03  0.00000000000E+00 0. -1.
</event>
<event>
 7    1  0.6219721E-006  0.1718161E+03  0.7818608E-02  0.1284142E+00
          2   -1    0    0  502    0  0.00000000000E+00  0.00000000000E+00  0.57124112417E+03  0.57124112417E+03  0.00000000000E+00 0. -1.
          1   -1    0    0  501    0 -0.00000000000E+00 -0.00000000000E+00 -0.38559596184E+04  0.38559596184E+04  0.00000000000E+00 0. -1.
         25    2    1    2    0    0 -0.71242297370E+02 -0.16166281002E+03 -0.38249396281E+01  0.21643532664E+03  0.12497716342E+03 0.  0.
          2    1    1    2  501    0  0.11556621628E+03  0.12724481107E+03 -0.37421560381E+04  0.37461017880E+04  0.00000000000E+00 0. -1.
          1    1    1    2  502    0 -0.44323918913E+02  0.34417998952E+02  0.46126248352E+03  0.46466362795E+03  0.00000000000E+00 0. -1.
         22    1    3    3    0    0 -0.88685290077E+02 -0.59393334507E+02 -0.27072622575E+02  0.11011619206E+03  0.00000000000E+00 0. -1.
         22    1    3    3    0    0  0.17442992707E+02 -0.10226947551E+03  0.23247682947E+02  0.10631913458E+03  0.00000000000E+00 0. -1.
</event>
<event>
 7    1  0.6219721E-006  0.1028315E+03  0.7818608E-02  0.1339480E+00
          2   -1    0    0  502    0  0.00000000000E+00  0.00000000000E+00  0.11581089540E+04  0.11581089540E+04  0.00000000000E+00 0. -1.
          1   -1    0    0  501    0 -0.00000000000E+00 -0.00000000000E+00 -0.55520546034E+03  0.55520546034E+03  0.00000000000E+00 0. -1.
         25    2    1    2    0    0  0.58074895059E+02 -0.12730039712E+03 -0.24038588718E+03  0.30494024433E+03  0.12500037325E+03 0.  0.
          2    1    1    2  501    0 -0.63159991955E+02  0.70712066358E+02 -0.27384606958E+03  0.28979484249E+03  0.00000000000E+00 0. -1.
          1    1    1    2  502    0  0.50850968960E+01  0.56588330758E+02  0.11171354504E+04  0.11185793275E+04  0.00000000000E+00 0. -1.
         22    1    3    3    0    0  0.70201210746E+02 -0.58158080908E+02 -0.54428821115E+02  0.10617470948E+03  0.00000000000E+00 0. -1.
         22    1    3    3    0    0 -0.12126315687E+02 -0.69142316208E+02 -0.18595706607E+03  0.19876553485E+03  0.00000000000E+00 0. -1.
</event>
<event>
 7    1  0.6219721E-006  0.1367111E+03  0.7818608E-02  0.1258284E+00
          2   -1    0    0  502    0  0.00000000000E+00  0.00000000000E+00  0.12768417259E+04  0.12768417259E+04  0.00000000000E+00 0. -1.
          1   -1    0    0  501    0 -0.00000000000E+00 -0.00000000000E+00 -0.27402281076E+04  0.27402281076E+04  0.00000000000E+00 0. -1.
         25    2    1    2    0    0  0.13113571659E+03  0.16302604577E+03 -0.55395969439E+03  0.60519767257E+03  0.12497524600E+03 0.  0.
          2    1    1    2  501    0 -0.10774388243E+03 -0.75579722423E+02 -0.21570039200E+04  0.21610152590E+04  0.00000000000E+00 0. -1.
          1    1    1    2  502    0 -0.23391834164E+02 -0.87446323349E+02  0.12475772327E+04  0.12508569019E+04  0.00000000000E+00 0. -1.
         22    1    3    3    0    0  0.36134681760E+02  0.14092462895E+03 -0.30909027800E+03  0.34161713398E+03  0.00000000000E+00 0.  1.
         22    1    3    3    0    0  0.95001034833E+02  0.22101416819E+02 -0.24486941639E+03  0.26358053860E+03  0.00000000000E+00 0.  1.
</event>
<event>
 7    1  0.6219721E-006  0.6562714E+02  0.7818608E-02  0.1459379E+00
          2   -1    0    0  502    0  0.00000000000E+00  0.00000000000E+00  0.13214165996E+04  0.13214165996E+04  0.00000000000E+00 0. -1.
          1   -1    0    0  501    0 -0.00000000000E+00 -0.00000000000E+00 -0.36129414736E+03  0.36129414736E+03  0.00000000000E+00 0. -1.
         25    2    1    2    0    0  0.18263280415E+02  0.27273664982E+02  0.15391185676E+03  0.20098178974E+03  0.12500967940E+03 0.  0.
          2    1    1    2  501    0 -0.26872103862E+02 -0.60540866094E+02 -0.33425054003E+03  0.34075024570E+03  0.00000000000E+00 0. -1.
          1    1    1    2  502    0  0.86088234466E+01  0.33267201112E+02  0.11404611355E+04  0.11409787115E+04  0.00000000000E+00 0. -1.
         22    1    3    3    0    0  0.32424895207E+02  0.25271986250E+02  0.17261155504E+03  0.17743955605E+03  0.00000000000E+00 0.  1.
         22    1    3    3    0    0 -0.14161614792E+02  0.20016787321E+01 -0.18699698284E+02  0.23542233691E+02  0.00000000000E+00 0.  1.
</event>
<event>
 7    1  0.6219721E-006  0.6762941E+02  0.7818608E-02  0.1397308E+00
          2   -1    0    0  502    0  0.00000000000E+00  0.00000000000E+00  0.16656614082E+03  0.16656614082E+03  0.00000000000E+00 0. -1.
          1   -1    0    0  501    0 -0.00000000000E+00 -0.00000000000E+00 -0.58344889148E+03  0.58344889148E+03  0.00000000000E+00 0. -1.
         25    2    1    2    0    0 -0.11683450178E+03  0.12806477910E+02 -0.78908575776E+02  0.18885449919E+03  0.12500060740E+03 0.  0.
          2    1    1    2  501    0  0.53312179954E+02 -0.38833799554E+01 -0.43859057794E+03  0.44183590192E+03  0.00000000000E+00 0. -1.
          1    1    1    2  502    0  0.63522321825E+02 -0.89230979544E+01  0.10061640305E+03  0.11932463120E+03  0.00000000000E+00 0. -1.
         22    1    3    3    0    0 -0.10919726711E+02  0.25404564522E+02  0.26926105429E+02  0.38595951648E+02  0.00000000000E+00 0.  1.
         22    1    3    3    0    0 -0.10591477507E+03 -0.12598086612E+02 -0.10583468120E+03  0.15025854754E+03  0.00000000000E+00 0.  1.
</event>
<event>
 7    1  0.6743207E-006  0.1775882E+03  0.7818608E-02  0.1207159E+00
          2   -1    0    0  502    0  0.00000000000E+00  0.00000000000E+00  0.15137478067E+04  0.15137478067E+04  0.00000000000E+00 0. -1.
          1   -1    0    0  501    0 -0.00000000000E+00 -0.00000000000E+00 -0.13033168845E+04  0.13033168845E+04  0.00000000000E+00 0. -1.
         25    2    1    2    0    0 -0.21658103334E+02  0.77045121310E+02 -0.28197688406E+03  0.31865481555E+03  0.12499961667E+03 0.  0.
          2    1    1    2  501    0 -0.10807368973E+03  0.47070950964E+02 -0.99411718027E+03  0.10010816974E+04  0.00000000000E+00 0. -1.
          1    1    1    2  502    0  0.12973179306E+03 -0.12411607227E+03  0.14865249866E+04  0.14973281782E+04  0.00000000000E+00 0. -1.
         22    1    3    3    0    0 -0.30912776952E+02  0.98418135777E+02 -0.13530152003E+03  0.17014179543E+03  0.00000000000E+00 0. -1.
         22    1    3    3    0    0  0.92546736189E+01 -0.21373014466E+02 -0.14667536404E+03  0.14851302012E+03  0.00000000000E+00 0. -1.
</event>
<event>
 7    1  0.6219721E-006  0.9067365E+02  0.7818608E-02  0.1416416E+00
          2   -1    0    0  502    0  0.00000000000E+00  0.00000000000E+00  0.25917585343E+03  0.25917585343E+03  0.00000000000E+00 0. -1.
          1   -1    0    0  501    0 -0.00000000000E+00 -0.00000000000E+00 -0.12469229306E+03  0.12469229306E+03  0.00000000000E+00 0. -1.
         25    2    1    2    0    0  0.65448843786E+02 -0.23479749613E+02  0.73855187547E+02  0.16100351921E+03  0.12503077491E+03 0.  0.
          2    1    1    2  501    0 -0.79430792741E+02  0.54824939350E+02 -0.48821141184E+02  0.10815973667E+03  0.00000000000E+00 0. -1.
          1    1    1    2  502    0  0.13981948955E+02 -0.31345189738E+02  0.10944951400E+03  0.11470489062E+03  0.00000000000E+00 0. -1.
         22    1    3    3    0    0  0.68853004941E+02 -0.66650743795E+02  0.67546100926E+02  0.11724134803E+03  0.00000000000E+00 0.  1.
         22    1    3    3    0    0 -0.34041611549E+01  0.43170994183E+02  0.63090866208E+01  0.43762171174E+02  0.00000000000E+00 0.  1.
</event>
<event>
 7    1  0.6219721E-006  0.2487546E+03  0.7818608E-02  0.1229927E+00
          2   -1    0    0  502    0  0.00000000000E+00  0.00000000000E+00  0.26702630711E+04  0.26702630711E+04  0.00000000000E+00 0. -1.
          1   -1    0    0  501    0 -0.00000000000E+00 -0.00000000000E+00 -0.62794922641E+02  0.62794922641E+02  0.00000000000E+00 0. -1.
         25    2    1    2    0    0  0.15312632914E+03 -0.20695549527E+03  0.49198585818E+03  0.56916560118E+03  0.12498458794E+03 0.  0.
          2    1    1    2  501    0  0.41070951155E+02  0.51949287078E+02  0.48637349090E+02  0.82165340522E+02  0.00000000000E+00 0. -1.
          1    1    1    2  502    0 -0.19419728030E+03  0.15500620819E+03  0.20668449412E+04  0.20817270520E+04  0.00000000000E+00 0. -1.
         22    1    3    3    0    0  0.70335304960E+02 -0.18573979352E+03  0.37416972337E+03  0.42361457471E+03  0.00000000000E+00 0. -1.
         22    1    3    3    0    0  0.82791024184E+02 -0.21215701756E+02  0.11781613481E+03  0.14555102648E+03  0.00000000000E+00 0. -1.
</event>
<event>
 7    1  0.6219721E-006  0.2604736E+03  0.7818608E-02  0.1257446E+00
          2   -1    0    0  502    0  0.00000000000E+00  0.00000000000E+00  0.44021721542E+03  0.44021721542E+03  0.00000000000E+00 0. -1.
          1   -1    0    0  501    0 -0.00000000000E+00 -0.00000000000E+00 -0.60910205047E+03  0.60910205047E+03  0.00000000000E+00 0. -1.
         25    2    1    2    0    0 -0.22357200450E+03  0.48026604321E+01 -0.22561491360E+03  0.34136984179E+03  0.12499509152E+03 0.  0.
          2    1    1    2  501    0 -0.42541848636E+02 -0.22023158253E+02 -0.27680213066E+03  0.28091679893E+03  0.00000000000E+00 0. -1.
          1    1    1    2  502    0  0.26611385313E+03  0.17220497821E+02  0.33353220921E+03  0.42703262516E+03  0.00000000000E+00 0. -1.
         22    1    3    3    0    0  0.13074066399E+01  0.56270436817E+01  0.12547868535E+02  0.13813831383E+02  0.00000000000E+00 0. -1.
         22    1    3    3    0    0 -0.22487941114E+03 -0.82438324961E+00 -0.23816278213E+03  0.32755601041E+03  0.00000000000E+00 0. -1.
</event>
<event>
 7    1  0.6219721E-006  0.9984366E+02  0.7818608E-02  0.1291117E+00
          2   -1    0    0  502    0  0.00000000000E+00  0.00000000000E+00  0.12317781567E+04  0.12317781567E+04  0.00000000000E+00 0. -1.
          1   -1    0    0  501    0 -0.00000000000E+00 -0.00000000000E+00 -0.68768199785E+03  0.68768199785E+03  0.00000000000E+00 0. -1.
         25    2    1    2    0    0  0.75728432955E+02 -0.84513105633E+02  0.31791491209E+03  0.35996214330E+03  0.12500237076E+03 0.  0.
          2    1    1    2  501    0 -0.88737284907E+02 -0.17472879350E+02 -0.66060725351E+03  0.66676948838E+03  0.00000000000E+00 0. -1.
          1    1    1    2  502    0  0.13008851952E+02  0.10198598498E+03  0.88678850026E+03  0.89272852288E+03  0.00000000000E+00 0. -1.
         22    1    3    3    0    0  0.60370225083E+02 -0.34749210402E+01  0.23634832395E+03  0.24396140962E+03  0.00000000000E+00 0.  1.
         22    1    3    3    0    0  0.15358207872E+02 -0.81038184592E+02  0.81566588146E+02  0.11600073367E+03  0.00000000000E+00 0.  1.
</event>
<event>
 7    1  0.6219721E-006  0.8184799E+02  0.7818608E-02  0.1337840E+00
          2   -1    0    0  502    0  0.00000000000E+00  0.00000000000E+00  0.13763758998E+04  0.13763758998E+04  0.00000000000E+00 0. -1.
          1   -1    0    0  501    0 -0.00000000000E+00 -0.00000000000E+00 -0.76765107870E+03  0.76765107870E+03  0.00000000000E+00 0. -1.
         25    2    1    2    0    0 -0.24503010580E+02  0.24405522973E+02  0.75299916739E+02  0.14996668044E+03  0.12499560273E+03 0.  0.
          2    1    1    2  501    0  0.80323877036E+02  0.21709734713E+02 -0.72690531327E+03  0.73165194749E+03  0.00000000000E+00 0. -1.
          1    1    1    2  502    0 -0.55820866456E+02 -0.46115257686E+02  0.12603302176E+04  0.12624083505E+04  0.00000000000E+00 0. -1.
         22    1    3    3    0    0 -0.54512028755E+02  0.52889245000E+02  0.15935571460E+02  0.77606545815E+02  0.00000000000E+00 0.  1.
         22    1    3    3    0    0  0.30009018175E+02 -0.28483722027E+02  0.59364345279E+02  0.72360134624E+02  0.00000000000E+00 0.  1.
</event>
<event>
 7    1  0.6219721E-006  0.3115224E+02  0.7818608E-02  0.1605944E+00
          2   -1    0    0  502    0  0.00000000000E+00  0.00000000000E+00  0.28896722456E+03  0.28896722456E+03  0.00000000000E+00 0. -1.
          1   -1    0    0  501    0 -0.00000000000E+00 -0.00000000000E+00 -0.48810995203E+03  0.48810995203E+03  0.00000000000E+00 0. -1.
         25    2    1    2    0    0  0.21913912265E+02 -0.25686769662E+02 -0.49090556561E+02  0.13845843505E+03  0.12498330211E+03 0.  0.
          2    1    1    2  501    0  0.51576586338E+01  0.30853252519E+02 -0.39293454391E+03  0.39417772696E+03  0.00000000000E+00 0. -1.
          1    1    1    2  502    0 -0.27071570899E+02 -0.51664828570E+01  0.24288237300E+03  0.24444101459E+03  0.00000000000E+00 0. -1.
         22    1    3    3    0    0  0.66169940415E+02 -0.22327281260E+02  0.31539493370E+01  0.69906479667E+02  0.00000000000E+00 0.  1.
         22    1    3    3    0    0 -0.44256028150E+02 -0.33594884017E+01 -0.52244505898E+02  0.68551955380E+02  0.00000000000E+00 0.  1.
</event>
<event>
 7    1  0.6219721E-006  0.5134210E+02  0.7818608E-02  0.1491295E+00
          2   -1    0    0  502    0  0.00000000000E+00  0.00000000000E+00  0.75358922871E+03  0.75358922871E+03  0.00000000000E+00 0. -1.
          1   -1    0    0  501    0 -0.00000000000E+00 -0.00000000000E+00 -0.87948734470E+02  0.87948734470E+02  0.00000000000E+00 0. -1.
         25    2    1    2    0    0 -0.68396149651E+01 -0.35765036540E+02  0.36035031977E+03  0.38314889132E+03  0.12499920717E+03 0.  0.
          2    1    1    2  501    0 -0.35004760824E+02 -0.31489251970E+00 -0.70418421510E+02  0.78639598966E+02  0.00000000000E+00 0. -1.
          1    1    1    2  502    0  0.41844375789E+02  0.36079929060E+02  0.37570859599E+03  0.37974947289E+03  0.00000000000E+00 0. -1.
         22    1    3    3    0    0  0.34241097779E+02 -0.66077417748E+02  0.16106191606E+03  0.17742496644E+03  0.00000000000E+00 0.  1.
         22    1    3    3    0    0 -0.41080712744E+02  0.30312381208E+02  0.19928840371E+03  0.20572392488E+03  0.00000000000E+00 0.  1.
</event>
<event>
 7    1  0.6219721E-006  0.1725527E+03  0.7818608E-02  0.1278462E+00
          2   -1    0    0  502    0  0.00000000000E+00  0.00000000000E+00  0.46596931031E+03  0.46596931031E+03  0.00000000000E+00 0. -1.
          1   -1    0    0  501    0 -0.00000000000E+00 -0.00000000000E+00 -0.52247110926E+03  0.52247110926E+03  0.00000000000E+00 0. -1.
         25    2    1    2    0    0  0.64815029101E+02 -0.11612423236E+03 -0.23702489301E+02  0.18404321225E+03  0.12499708252E+03 0.  0.
          2    1    1    2  501    0 -0.11921003134E+03  0.13891001365E+03 -0.39609467930E+03  0.43634621396E+03  0.00000000000E+00 0. -1.
          1    1    1    2  502    0  0.54395002241E+02 -0.22785781295E+02  0.36329536965E+03  0.36805099336E+03  0.00000000000E+00 0. -1.
         22    1    3    3    0    0  0.61819374069E+02 -0.14002956916E+03 -0.35629374239E+02  0.15716032437E+03  0.00000000000E+00 0.  1.
         22    1    3    3    0    0  0.29956550315E+01  0.23905336797E+02  0.11926884938E+02  0.26882887881E+02  0.00000000000E+00 0.  1.
</event>
<event>
 7    1  0.6219721E-006  0.6284615E+02  0.7818608E-02  0.1435116E+00
          2   -1    0    0  502    0  0.00000000000E+00  0.00000000000E+00  0.36466714629E+03  0.36466714629E+03  0.00000000000E+00 0. -1.
          1   -1    0    0  501    0 -0.00000000000E+00 -0.00000000000E+00 -0.23752329990E+04  0.23752329990E+04  0.00000000000E+00 0. -1.
         25    2    1    2    0    0 -0.76748503550E+02  0.63295101629E+02 -0.13520972618E+04  0.13615037953E+04  0.12501590559E+03 0.  0.
          2    1    1    2  501    0  0.19089280161E+02 -0.38460534178E+02 -0.10152379151E+04  0.10161454805E+04  0.00000000000E+00 0. -1.
          1    1    1    2  502    0  0.57659223389E+02 -0.24834567451E+02  0.35676932416E+03  0.36225086949E+03  0.00000000000E+00 0. -1.
         22    1    3    3    0    0 -0.69481313097E+02  0.70813608488E+02 -0.13454729583E+04  0.13491255321E+04  0.00000000000E+00 0.  1.
         22    1    3    3    0    0 -0.72671904529E+01 -0.75185068587E+01 -0.66243035189E+01  0.12378263189E+02  0.00000000000E+00 0.  1.
</event>
<event>
 7    1  0.6219721E-006  0.2051281E+03  0.7818608E-02  0.1161186E+00
          2   -1    0    0  502    0  0.00000000000E+00  0.00000000000E+00  0.15271839698E+04  0.15271839698E+04  0.00000000000E+00 0. -1.
          1   -1    0    0  501    0 -0.00000000000E+00 -0.00000000000E+00 -0.42629640971E+03  0.42629640971E+03  0.00000000000E+00 0. -1.
         25    2    1    2    0    0  0.62460782364E+02 -0.96065330687E+01  0.14460637922E+03  0.20131712552E+03  0.12499578115E+03 0.  0.
          2    1    1    2  501    0 -0.23152123781E+03  0.31651684173E+02 -0.35764803565E+03  0.42721894863E+03  0.00000000000E+00 0. -1.
          1    1    1    2  502    0  0.16906045544E+03 -0.22045151105E+02  0.13139292165E+04  0.13249443053E+04  0.00000000000E+00 0. -1.
         22    1    3    3    0    0  0.87580099165E+02  0.20248743664E+02  0.13315112466E+03  0.16065337653E+03  0.00000000000E+00 0.  1.
         22    1    3    3    0    0 -0.25119316801E+02 -0.29855276733E+02  0.11455254560E+02  0.40663748996E+02  0.00000000000E+00 0.  1.
</event>
<event>
 7    1  0.6219721E-006  0.9542303E+02  0.7818608E-02  0.1422952E+00
          2   -1    0    0  502    0  0.00000000000E+00  0.00000000000E+00  0.24036360030E+04  0.24036360030E+04  0.00000000000E+00 0. -1.
          1   -1    0    0  501    0 -0.00000000000E+00 -0.00000000000E+00 -0.23936505829E+04  0.23936505829E+04  0.00000000000E+00 0. -1.
         25    2    1    2    0    0 -0.32731076942E+02  0.93102580719E+02  0.37879988746E+03  0.41091839036E+03  0.12500061945E+03 0.  0.
          2    1    1    2  501    0  0.58299296338E+02 -0.75548236448E+02 -0.23765139976E+04  0.23784291296E+04  0.00000000000E+00 0. -1.
          1    1    1    2  502    0 -0.25568219396E+02 -0.17554344271E+02  0.20076995302E+04  0.20079390659E+04  0.00000000000E+00 0. -1.
         22    1    3    3    0    0 -0.38720542623E+02  0.11968312738E+03  0.34669504157E+03  0.36880995546E+03  0.00000000000E+00 0. -1.
         22    1    3    3    0    0  0.59894656812E+01 -0.26580546658E+02  0.32104845891E+02  0.42108434897E+02  0.00000000000E+00 0. -1.
</event>
<event>
 7    1  0.6219721E-006  0.9478632E+02  0.7818608E-02  0.1406124E+00
          2   -1    0    0  502    0  0.00000000000E+00  0.00000000000E+00  0.22385283200E+03  0.22385283200E+03  0.00000000000E+00 0. -1.
          1   -1    0    0  501    0 -0.00000000000E+00 -0.00000000000E+00 -0.52794824692E+03  0.52794824692E+03  0.00000000000E+00 0. -1.
         25    2    1    2    0    0 -0.85163990823E+02 -0.91213385477E+02  0.49405634394E+01  0.17669585141E+03  0.12499691083E+03 0.  0.
          2    1    1    2  501    0  0.52552374750E+02  0.77002910198E+02 -0.43465811881E+03  0.44454345178E+03  0.00000000000E+00 0. -1.
          1    1    1    2  502    0  0.32611616073E+02  0.14210475279E+02  0.12562214045E+03  0.13056177573E+03  0.00000000000E+00 0. -1.
         22    1    3    3    0    0 -0.64867873208E+02 -0.51145681782E+02  0.62572117401E+02  0.10362910603E+03  0.00000000000E+00 0. -1.
         22    1    3    3    0    0 -0.20296117615E+02 -0.40067703695E+02 -0.57631553962E+02  0.73066745389E+02  0.00000000000E+00 0. -1.
</event>
<event>
 7    1  0.6219721E-006  0.4778627E+02  0.7818608E-02  0.1561937E+00
          2   -1    0    0  502    0  0.00000000000E+00  0.00000000000E+00  0.29450763802E+03  0.29450763802E+03  0.00000000000E+00 0. -1.
          1   -1    0    0  501    0 -0.00000000000E+00 -0.00000000000E+00 -0.17003492201E+04  0.17003492201E+04  0.00000000000E+00 0. -1.
         25    2    1    2    0    0 -0.69024579376E+02  0.10960486605E+02 -0.26740205495E+03  0.30333727262E+03  0.12500046856E+03 0.  0.
          2    1    1    2  501    0  0.47269136630E+02 -0.19578269137E+01 -0.14140821044E+04  0.14148732813E+04  0.00000000000E+00 0. -1.
          1    1    1    2  502    0  0.21755442747E+02 -0.90026596909E+01  0.27564257728E+03  0.27664630412E+03  0.00000000000E+00 0. -1.
         22    1    3    3    0    0 -0.65455415510E+02 -0.34070731254E+02 -0.73159159560E+02  0.10391096562E+03  0.00000000000E+00 0. -1.
         22    1    3    3    0    0 -0.35691638661E+01  0.45031217859E+02 -0.19424289539E+03  0.19942630700E+03  0.00000000000E+00 0. -1.
</event>
<event>
 7    1  0.6219721E-006  0.1418703E+03  0.7818608E-02  0.1230551E+00
          2   -1    0    0  502    0  0.00000000000E+00  0.00000000000E+00  0.78966078271E+03  0.78966078271E+03  0.00000000000E+00 0. -1.
          1   -1    0    0  501    0 -0.00000000000E+00 -0.00000000000E+00 -0.23391534245E+04  0.23391534245E+04  0.00000000000E+00 0. -1.
         25    2    1    2    0    0  0.62471712887E+00  0.11798181803E+03 -0.19929209784E+03  0.26317844697E+03  0.12500182012E+03 0.  0.
          2    1    1    2  501    0  0.11184649382E+03 -0.28295791073E+02 -0.20994925757E+04  0.21026600689E+04  0.00000000000E+00 0. -1.
          1    1    1    2  502    0 -0.11247121094E+03 -0.89686026954E+02  0.74929203175E+03  0.76297569133E+03  0.00000000000E+00 0. -1.
         22    1    3    3    0    0  0.41697272460E+01  0.13924576487E+03 -0.12975438851E+03  0.19037586768E+03  0.00000000000E+00 0. -1.
         22    1    3    3    0    0 -0.35450101172E+01 -0.21263946841E+02 -0.69537709329E+02  0.72802579286E+02  0.00000000000E+00 0. -1.
</event>
<event>
 7    1  0.6219721E-006  0.4452471E+02  0.7818608E-02  0.1511395E+00
          2   -1    0    0  502    0  0.00000000000E+00  0.00000000000E+00  0.24720748924E+04  0.24720748924E+04  0.00000000000E+00 0. -1.
          1   -1    0    0  501    0 -0.00000000000E+00 -0.00000000000E+00 -0.46121587663E+02  0.46121587663E+02  0.00000000000E+00 0. -1.
         25    2    1    2    0    0 -0.16164662172E+02  0.71130239881E+02  0.47771275003E+03  0.49915467566E+03  0.12500044543E+03 0.  0.
          2    1    1    2  501    0  0.21885129245E+02 -0.27528549010E+02 -0.26360829474E+02  0.43950804580E+02  0.00000000000E+00 0. -1.
          1    1    1    2  502    0 -0.57204670727E+01 -0.43601690871E+02  0.19746013842E+04  0.19750909999E+04  0.00000000000E+00 0. -1.
         22    1    3    3    0    0 -0.66691325295E+01 -0.27967565658E+02  0.23598453454E+03  0.23772959975E+03  0.00000000000E+00 0. -1.
         22    1    3    3    0    0 -0.94955296423E+01  0.99097805539E+02  0.24172821550E+03  0.26142507591E+03  0.00000000000E+00 0. -1.
</event>
<event>
 7    1  0.6219721E-006  0.4918331E+02  0.7818608E-02  0.1552763E+00
          2   -1    0    0  502    0  0.00000000000E+00  0.00000000000E+00  0.71384067748E+03  0.71384067748E+03  0.00000000000E+00 0. -1.
          1   -1    0    0  501    0 -0.00000000000E+00 -0.00000000000E+00 -0.33953163655E+03  0.33953163655E+03  0.00000000000E+00 0. -1.
         25    2    1    2    0    0 -0.68558944486E+02 -0.13588894895E+02 -0.31926295326E+02  0.14674153115E+03  0.12501520587E+03 0.  0.
          2    1    1    2  501    0  0.44778517059E+02  0.18339589283E+02 -0.24763124486E+03  0.25231466377E+03  0.00000000000E+00 0. -1.
          1    1    1    2  502    0  0.23780427427E+02 -0.47506943882E+01  0.65386658111E+03  0.65431611910E+03  0.00000000000E+00 0. -1.
         22    1    3    3    0    0 -0.34565572034E+02  0.10218335908E+02 -0.77275820348E+02  0.85268666984E+02  0.00000000000E+00 0. -1.
         22    1    3    3    0    0 -0.33993372452E+02 -0.23807230803E+02  0.45349525022E+02  0.61472864167E+02  0.00000000000E+00 0. -1.
</event>
<event>
 7    1  0.6219721E-006  0.5921478E+02  0.7818608E-02  0.1498555E+00
          2   -1    0    0  502    0  0.00000000000E+00  0.00000000000E+00  0.19671735250E+04  0.19671735250E+04  0.00000000000E+00 0. -1.
          1   -1    0    0  501    0 -0.00000000000E+00 -0.00000000000E+00 -0.25010165342E+03  0.25010165342E+03  0.00000000000E+00 0. -1.
         25    2    1    2    0    0 -0.34814963844E+02  0.62679068672E+02  0.10051570610E+04  0.10154345993E+04  0.12500384372E+03 0.  0.
          2    1    1    2  501    0  0.46696560608E+02 -0.36372694382E+02 -0.24116560404E+03  0.24832315688E+03  0.00000000000E+00 0. -1.
          1    1    1    2  502    0 -0.11881596764E+02 -0.26306374290E+02  0.95308041468E+03  0.95351742224E+03  0.00000000000E+00 0. -1.
         22    1    3    3    0    0  0.14110769128E+02 -0.32814801643E+02  0.30889924699E+03  0.31095766562E+03  0.00000000000E+00 0.  1.
         22    1    3    3    0    0 -0.48925732972E+02  0.95493870315E+02  0.69625781399E+03  0.70447693373E+03  0.00000000000E+00 0.  1.
</event>
<event>
 7    1  0.6219721E-006  0.2375098E+03  0.7818608E-02  0.1164449E+00
          2   -1    0    0  502    0  0.00000000000E+00  0.00000000000E+00  0.13751900723E+04  0.13751900723E+04  0.00000000000E+00 0. -1.
          1   -1    0    0  501    0 -0.00000000000E+00 -0.00000000000E+00 -0.20580991639E+04  0.20580991639E+04  0.00000000000E+00 0. -1.
         25    2    1    2    0    0  0.80485134366E+02 -0.17715480393E+03 -0.11514423207E+02  0.23155783530E+03  0.12499907095E+03 0.  0.
          2    1    1    2  501    0 -0.12682163831E+03 -0.63403256063E+02 -0.19220680583E+04  0.19272906687E+04  0.00000000000E+00 0. -1.
          1    1    1    2  502    0  0.46336503947E+02  0.24055805999E+03  0.12506733899E+04  0.12744407323E+04  0.00000000000E+00 0. -1.
         22    1    3    3    0    0  0.19012713480E+02  0.14838848371E+01 -0.36314420918E+02  0.41017342122E+02  0.00000000000E+00 0. -1.
         22    1    3    3    0    0  0.61472420886E+02 -0.17863868877E+03  0.24799997711E+02  0.19054049318E+03  0.00000000000E+00 0. -1.
</event>
<event>
 7    1  0.6219721E-006  0.6922368E+02  0.7818608E-02  0.1396588E+00
          2   -1    0    0  502    0  0.00000000000E+00  0.00000000000E+00  0.93884216615E+03  0.93884216615E+03  0.00000000000E+00 0. -1.
          1   -1    0    0  501    0 -0.00000000000E+00 -0.00000000000E+00 -0.17010666164E+03  0.17010666164E+03  0.00000000000E+00 0. -1.
         25    2    1    2    0    0 -0.95885351307E+02 -0.57330550726E+02  0.14261976894E+03  0.22010659748E+03  0.12500289245E+03 0.  0.
          2    1    1    2  501    0  0.52235334216E+02  0.54828440300E+01 -0.12452482484E+03  0.13514815470E+03  0.00000000000E+00 0. -1.
          1    1    1    2  502    0  0.43650017091E+02  0.51847706696E+02  0.75064056041E+03  0.75369407561E+03  0.00000000000E+00 0. -1.
         22    1    3    3    0    0 -0.73023705628E+02 -0.22439259513E+02  0.15811887668E+03  0.17560626730E+03  0.00000000000E+00 0. -1.
         22    1    3    3    0    0 -0.22861645679E+02 -0.34891291213E+02 -0.15499107742E+02  0.44500330184E+02  0.00000000000E+00 0. -1.
</event>
<event>
 7    1  0.6219721E-006  0.1631359E+03  0.7818608E-02  0.1227637E+00
          2   -1    0    0  502    0  0.00000000000E+00  0.00000000000E+00  0.22566771807E+04  0.22566771807E+04  0.00000000000E+00 0. -1.
          1   -1    0    0  501    0 -0.00000000000E+00 -0.00000000000E+00 -0.85159076294E+03  0.85159076294E+03  0.00000000000E+00 0. -1.
         25    2    1    2    0    0 -0.15859873831E+03 -0.17469010793E+03 -0.49585666436E+03  0.56317971381E+03  0.12500945903E+03 0.  0.
          2    1    1    2  501    0  0.82350332630E+02  0.10484954975E+03 -0.30701328192E+03  0.33471205631E+03  0.00000000000E+00 0. -1.
          1    1    1    2  502    0  0.76248405680E+02  0.69840558186E+02  0.22079563641E+04  0.22103761735E+04  0.00000000000E+00 0. -1.
         22    1    3    3    0    0 -0.41322055147E+02 -0.12132964656E+02 -0.21340355200E+02  0.48063830819E+02  0.00000000000E+00 0.  1.
         22    1    3    3    0    0 -0.11727668316E+03 -0.16255714328E+03 -0.47451630917E+03  0.51511588299E+03  0.00000000000E+00 0.  1.
</event>
<event>
 7    1  0.6219721E-006  0.8161915E+02  0.7818608E-02  0.1355104E+00
          2   -1    0    0  502    0  0.00000000000E+00  0.00000000000E+00  0.38464709374E+03  0.38464709374E+03  0.00000000000E+00 0. -1.
          1   -1    0    0  501    0 -0.00000000000E+00 -0.00000000000E+00 -0.11718445200E+04  0.11718445200E+04  0.00000000000E+00 0. -1.
         25    2    1    2    0    0  0.12056223935E+03  0.49852248504E+02 -0.56932310171E+03  0.59730577329E+03  0.12499956970E+03 0.  0.
          2    1    1    2  501    0 -0.39255015765E+02 -0.48782070465E+02 -0.58237191339E+03  0.58572834332E+03  0.00000000000E+00 0. -1.
          1    1    1    2  502    0 -0.81307223583E+02 -0.10701780388E+01  0.36449758884E+03  0.37345749712E+03  0.00000000000E+00 0. -1.
         22    1    3    3    0    0  0.34998651495E+01  0.56502734889E+02 -0.11617328463E+03  0.12923250430E+03  0.00000000000E+00 0.  1.
         22    1    3    3    0    0  0.11706237420E+03 -0.66504863848E+01 -0.45314981707E+03  0.46807326898E+03  0.00000000000E+00 0.  1.
</event>
<event>
 7    1  0.6219721E-006  0.1002060E+03  0.7818608E-02  0.1328911E+00
          2   -1    0    0  502    0  0.00000000000E+00  0.00000000000E+00  0.52392245668E+03  0.52392245668E+03  0.00000000000E+00 0. -1.
          1   -1    0    0  501    0 -0.00000000000E+00 -0.00000000000E+00 -0.73759352211E+03  0.73759352211E+03  0.00000000000E+00 0. -1.
         25    2    1    2    0    0 -0.12442261249E+03  0.86152541065E+02  0.11820958915E+02  0.19664232967E+03  0.12500089567E+03 0.  0.
          2    1    1    2  501    0  0.63081636756E+02 -0.10486148316E+02 -0.63791078695E+03  0.64110796618E+03  0.00000000000E+00 0. -1.
          1    1    1    2  502    0  0.61340975731E+02 -0.75666392749E+02  0.41241876260E+03  0.42376568294E+03  0.00000000000E+00 0. -1.
         22    1    3    3    0    0  0.45565368032E+00 -0.20290404457E+02 -0.21109190749E+02  0.29283204527E+02  0.00000000000E+00 0. -1.
         22    1    3    3    0    0 -0.12487826617E+03  0.10644294552E+03  0.32930149663E+02  0.16735912514E+03  0.00000000000E+00 0. -1.
</event>
<event>
 7    1  0.6219721E-006  0.3927552E+03  0.7818608E-02  0.1170123E+00
          2   -1    0    0  502    0  0.00000000000E+00  0.00000000000E+00  0.44125148607E+03  0.44125148607E+03  0.00000000000E+00 0. -1.
          1   -1    0    0  501    0 -0.00000000000E+00 -0.00000000000E+00 -0.18293769753E+04  0.18293769753E+04  0.00000000000E+00 0. -1.
         25    2    1    2    0    0 -0.15866906440E+03  0.37383593443E+03 -0.48856824813E+03  0.64749783257E+03  0.12500132895E+03 0.  0.
          2    1    1    2  501    0  0.78735366993E+02 -0.38180479370E+03 -0.12262400879E+04  0.12867163291E+04  0.00000000000E+00 0. -1.
          1    1    1    2  502    0  0.79933697410E+02  0.79688592667E+01  0.32668284673E+03  0.33641429971E+03  0.00000000000E+00 0. -1.
         22    1    3    3    0    0 -0.18322884146E+02  0.19382516249E+03 -0.25612914459E+03  0.32172357764E+03  0.00000000000E+00 0.  1.
         22    1    3    3    0    0 -0.14034618026E+03  0.18001077194E+03 -0.23243910353E+03  0.32577425493E+03  0.00000000000E+00 0.  1.
</event>
<event>
 7    1  0.6219721E-006  0.1920731E+03  0.7818608E-02  0.1268468E+00
          2   -1    0    0  502    0  0.00000000000E+00  0.00000000000E+00  0.18413858696E+03  0.18413858696E+03  0.00000000000E+00 0. -1.
          1   -1    0    0  501    0 -0.00000000000E+00 -0.00000000000E+00 -0.14592604834E+04  0.14592604834E+04  0.00000000000E+00 0. -1.
         25    2    1    2    0    0 -0.52593512847E+02 -0.21817308666E+03 -0.14963049222E+03  0.29728671902E+03  0.12499814305E+03 0.  0.
          2    1    1    2  501    0  0.18756659596E+01  0.18937213722E+03 -0.12202413160E+04  0.12348498669E+04  0.00000000000E+00 0. -1.
          1    1    1    2  502    0  0.50717846887E+02  0.28800949441E+02  0.94749911735E+02  0.11126248449E+03  0.00000000000E+00 0. -1.
         22    1    3    3    0    0 -0.65145682259E+02 -0.69564573881E+02 -0.10458144215E+03  0.14149370268E+03  0.00000000000E+00 0.  1.
         22    1    3    3    0    0  0.12552169412E+02 -0.14860851278E+03 -0.45049050073E+02  0.15579301634E+03  0.00000000000E+00 0.  1.
</event>
<event>
 7    1  0.6219721E-006  0.6976425E+02  0.7818608E-02  0.1419364E+00
          2   -1    0    0  502    0  0.00000000000E+00  0.00000000000E+00  0.23321626747E+03  0.23321626747E+03  0.00000000000E+00 0. -1.
          1   -1    0    0  501    0 -0.00000000000E+00 -0.00000000000E+00 -0.36387794618E+03  0.36387794618E+03  0.00000000000E+00 0. -1.
         25    2    1    2    0    0  0.75613398618E+02  0.79905726931E+02 -0.27691448254E+03  0.32312449710E+03  0.12500199494E+03 0.  0.
          2    1    1    2  501    0 -0.20371858179E+02 -0.38554905231E+02 -0.49761515310E+02  0.66164202776E+02  0.00000000000E+00 0. -1.
          1    1    1    2  502    0 -0.55241540439E+02 -0.41350821700E+02  0.19601431914E+03  0.20780551377E+03  0.00000000000E+00 0. -1.
         22    1    3    3    0    0 -0.64946505499E+01  0.23105370523E+02 -0.18771112666E+03  0.18923928161E+03  0.00000000000E+00 0. -1.
         22    1    3    3    0    0  0.82108049168E+02  0.56800356408E+02 -0.89203355881E+02  0.13388521549E+03  0.00000000000E+00 0. -1.
</event>
<event>
 7    1  0.6219721E-006  0.1431074E+03  0.7818608E-02  0.1308340E+00
          2   -1    0    0  502    0  0.00000000000E+00  0.00000000000E+00  0.24144742284E+03  0.24144742284E+03  0.00000000000E+00 0. -1.
          1   -1    0    0  501    0 -0.00000000000E+00 -0.00000000000E+00 -0.98607020612E+03  0.98607020612E+03  0.00000000000E+00 0. -1.
         25    2    1    2    0    0 -0.14257662074E+03 -0.12458088774E+03 -0.18568687988E+03  0.29317841844E+03  0.12500190923E+03 0.  0.
          2    1    1    2  501    0  0.48587514705E+02  0.23177869734E+02 -0.72003442495E+03  0.72204399682E+03  0.00000000000E+00 0. -1.
          1    1    1    2  502    0  0.93989106032E+02  0.10140301800E+03  0.16109852155E+03  0.21229521369E+03  0.00000000000E+00 0. -1.
         22    1    3    3    0    0 -0.14271483763E+03 -0.13162834443E+03 -0.19905963903E+03  0.27806165832E+03  0.00000000000E+00 0. -1.
         22    1    3    3    0    0  0.13821689471E+00  0.70474566883E+01  0.13372759143E+02  0.15116760128E+02  0.00000000000E+00 0. -1.
</event>
<event>
 7    1  0.6219721E-006  0.8469177E+02  0.7818608E-02  0.1407659E+00
          2   -1    0    0  502    0  0.00000000000E+00  0.00000000000E+00  0.36156492061E+03  0.36156492061E+03  0.00000000000E+00 0. -1.
          1   -1    0    0  501    0 -0.00000000000E+00 -0.00000000000E+00 -0.40357469966E+03  0.40357469966E+03  0.00000000000E+00 0. -1.
         25    2    1    2    0    0  0.40648992431E+02 -0.28500450423E+02 -0.13226923877E+02  0.13514850106E+03  0.12500219824E+03 0.  0.
          2    1    1    2  501    0  0.37812082388E+02 -0.10847810219E+02 -0.32175602929E+03  0.32415177146E+03  0.00000000000E+00 0. -1.
          1    1    1    2  502    0 -0.78461074819E+02  0.39348260642E+02  0.29297317412E+03  0.30583934775E+03  0.00000000000E+00 0. -1.
         22    1    3    3    0    0 -0.31581303830E+01  0.26253472983E+02 -0.49559869586E+02  0.56172941035E+02  0.00000000000E+00 0. -1.
         22    1    3    3    0    0  0.43807122814E+02 -0.54753923406E+02  0.36332945709E+02  0.78975560026E+02  0.00000000000E+00 0. -1.
</event>
<event>
 7    1  0.6219721E-006  0.8456940E+02  0.7818608E-02  0.1371336E+00
          2   -1    0    0  502    0  0.00000000000E+00  0.00000000000E+00  0.18399470548E+04  0.18399470548E+04  0.00000000000E+00 0. -1.
          1   -1    0    0  501    0 -0.00000000000E+00 -0.00000000000E+00 -0.57978635506E+03  0.57978635506E+03  0.00000000000E+00 0. -1.
         25    2    1    2    0    0 -0.61124595046E+02  0.12215287927E+03  0.23987505791E+03  0.30302281918E+03  0.12500097401E+03 0.  0.
          2    1    1    2  501    0  0.40050988595E+02 -0.73784522005E+02 -0.54455109137E+03  0.55098468989E+03  0.00000000000E+00 0. -1.
          1    1    1    2  502    0  0.21073606450E+02 -0.48368357263E+02  0.15648367332E+04  0.15657259008E+04  0.00000000000E+00 0. -1.
         22    1    3    3    0    0  0.24987645369E+02  0.75294132091E+02  0.15158882147E+03  0.17109283896E+03  0.00000000000E+00 0. -1.
         22    1    3    3    0    0 -0.86112240415E+02  0.46858747176E+02  0.88286236440E+02  0.13192998022E+03  0.00000000000E+00 0. -1.
</event>
<event>
 7    1  0.6219721E-006  0.3555496E+02  0.7818608E-02  0.1584127E+00
          2   -1    0    0  502    0  0.00000000000E+00  0.00000000000E+00  0.15554522461E+04  0.15554522461E+04  0.00000000000E+00 0. -1.
          1   -1    0    0  501    0 -0.00000000000E+00 -0.00000000000E+00 -0.10496591742E+04  0.10496591742E+04  0.00000000000E+00 0. -1.
         25    2    1    2    0    0 -0.31893123811E+02  0.16079663103E+02 -0.30620386008E+03  0.33266464345E+03  0.12501693550E+03 0.  0.
          2    1    1    2  501    0  0.11078313064E+02 -0.34140071687E+02 -0.72966065191E+03  0.73054290802E+03  0.00000000000E+00 0. -1.
          1    1    1    2  502    0  0.20814810747E+02  0.18060408583E+02  0.15416575839E+04  0.15419038688E+04  0.00000000000E+00 0. -1.
         22    1    3    3    0    0  0.13413558375E+02  0.46553584773E+02 -0.24867074768E+03  0.25334620691E+03  0.00000000000E+00 0. -1.
         22    1    3    3    0    0 -0.45306682186E+02 -0.30473921670E+02 -0.57533112398E+02  0.79318436539E+02  0.00000000000E+00 0. -1.
</event>
<event>
 7    1  0.6219721E-006  0.5476499E+02  0.7818608E-02  0.1522105E+00
          2   -1    0    0  502    0  0.00000000000E+00  0.00000000000E+00  0.38835613742E+03  0.38835613742E+03  0.00000000000E+00 0. -1.
          1   -1    0    0  501    0 -0.00000000000E+00 -0.00000000000E+00 -0.73046042611E+02  0.73046042611E+02  0.00000000000E+00 0. -1.
         25    2    1    2    0    0  0.46147303133E+02  0.35766090411E+02  0.30968671432E+03  0.33902813153E+03  0.12500170452E+03 0.  0.
          2    1    1    2  501    0 -0.23428435841E+02 -0.49615705936E+02 -0.41134375548E+02  0.68575846573E+02  0.00000000000E+00 0. -1.
          1    1    1    2  502    0 -0.22718867292E+02  0.13849615525E+02  0.46757756041E+02  0.53798201933E+02  0.00000000000E+00 0. -1.
         22    1    3    3    0    0  0.56098743927E+02 -0.31218606631E+02  0.10145683596E+03  0.12006315019E+03  0.00000000000E+00 0.  1.
         22    1    3    3    0    0 -0.99514407942E+01  0.66984697041E+02  0.20822987836E+03  0.21896498134E+03  0.00000000000E+00 0.  1.
</event>
<event>
 7    1  0.6219721E-006  0.9645777E+02  0.7818608E-02  0.1348563E+00
          2   -1    0    0  502    0  0.00000000000E+00  0.00000000000E+00  0.33464134418E+03  0.33464134418E+03  0.00000000000E+00 0. -1.
          1   -1    0    0  501    0 -0.00000000000E+00 -0.00000000000E+00 -0.45657836659E+03  0.45657836659E+03  0.00000000000E+00 0. -1.
         25    2    1    2    0    0 -0.58475853140E+02  0.16756581715E+02  0.73752798544E+01  0.13921097226E+03  0.12500036645E+03 0.  0.
          2    1    1    2  501    0 -0.16799567552E+02  0.53435902569E+02 -0.37838474972E+03  0.38250835281E+03  0.00000000000E+00 0. -1.
          1    1    1    2  502    0  0.75275420692E+02 -0.70192484284E+02  0.24907244745E+03  0.26950038570E+03  0.00000000000E+00 0. -1.
         22    1    3    3    0    0 -0.65902403052E+02 -0.17400374569E+02 -0.40989824680E+02  0.79536567002E+02  0.00000000000E+00 0.  1.
         22    1    3    3    0    0  0.74265499117E+01  0.34156956284E+02  0.48365104534E+02  0.59674405257E+02  0.00000000000E+00 0.  1.
</event>
<event>
 7    1  0.6219721E-006  0.4643793E+02  0.7818608E-02  0.1510865E+00
          2   -1    0    0  502    0  0.00000000000E+00  0.00000000000E+00  0.56491974414E+03  0.56491974414E+03  0.00000000000E+00 0. -1.
          1   -1    0    0  501    0 -0.00000000000E+00 -0.00000000000E+00 -0.61890119340E+03  0.61890119340E+03  0.00000000000E+00 0. -1.
         25    2    1    2    0    0  0.65200302261E+02  0.18585343445E+02  0.19489833572E+03  0.24126323845E+03  0.12500437814E+03 0.  0.
          2    1    1    2  501    0 -0.31610629392E+02  0.12079840723E+02 -0.59374383164E+03  0.59470740037E+03  0.00000000000E+00 0. -1.
          1    1    1    2  502    0 -0.33589672869E+02 -0.30665184168E+02  0.34486404666E+03  0.34785029872E+03  0.00000000000E+00 0. -1.
         22    1    3    3    0    0  0.47788627026E+02 -0.39221275622E+02  0.36602779809E+02  0.71845840688E+02  0.00000000000E+00 0. -1.
         22    1    3    3    0    0  0.17411675235E+02  0.57806619067E+02  0.15829555591E+03  0.16941739776E+03  0.00000000000E+00 0. -1.
</event>
<event>
 7    1  0.6219721E-006  0.9993159E+02  0.7818608E-02  0.1422216E+00
          2   -1    0    0  502    0  0.00000000000E+00  0.00000000000E+00  0.18261521524E+04  0.18261521524E+04  0.00000000000E+00 0. -1.
          1   -1    0    0  501    0 -0.00000000000E+00 -0.00000000000E+00 -0.36178306648E+03  0.36178306648E+03  0.00000000000E+00 0. -1.
         25    2    1    2    0    0 -0.50104080593E+02  0.61047623902E+02  0.21773961693E+02  0.14945673157E+03  0.12500391165E+03 0.  0.
          2    1    1    2  501    0  0.59486734058E+01  0.29182512002E+02 -0.29574370577E+03  0.29723954183E+03  0.00000000000E+00 0. -1.
          1    1    1    2  502    0  0.44155407187E+02 -0.90230135904E+02  0.17383388300E+04  0.17412389455E+04  0.00000000000E+00 0. -1.
         22    1    3    3    0    0  0.27582804891E+02  0.54528341949E+02  0.34942123320E+02  0.70392493800E+02  0.00000000000E+00 0.  1.
         22    1    3    3    0    0 -0.77686885483E+02  0.65192819531E+01 -0.13168161627E+02  0.79064237768E+02  0.00000000000E+00 0.  1.
</event>
<event>
 7    1  0.6219721E-006  0.1821337E+03  0.7818608E-02  0.1289319E+00
          2   -1    0    0  502    0  0.00000000000E+00  0.00000000000E+00  0.28476399187E+04  0.28476399187E+04  0.00000000000E+00 0. -1.
          1   -1    0    0  501    0 -0.00000000000E+00 -0.00000000000E+00 -0.10436200842E+04  0.10436200842E+04  0.00000000000E+00 0. -1.
         25    2    1    2    0    0 -0.15448460426E+03 -0.14640793205E+03  0.10851957066E+04  0.11129129863E+04  0.12499927228E+03 0.  0.
          2    1    1    2  501    0  0.15456021846E+03  0.95987278356E+02 -0.10213570138E+04  0.10374355731E+04  0.00000000000E+00 0. -1.
          1    1    1    2  502    0 -0.75614209355E-01  0.50420653693E+02  0.17401811417E+04  0.17409114435E+04  0.00000000000E+00 0. -1.
         22    1    3    3    0    0  0.21367298861E+02 -0.96706009773E+01  0.82331833952E+02  0.85607317828E+02  0.00000000000E+00 0.  1.
         22    1    3    3    0    0 -0.17585190312E+03 -0.13673733107E+03  0.10028638726E+04  0.10273056685E+04  0.00000000000E+00 0.  1.
</event>
<event>
 7    1  0.6219721E-006  0.5977096E+02  0.7818608E-02  0.1439476E+00
          2   -1    0    0  502    0  0.00000000000E+00  0.00000000000E+00  0.15427304185E+04  0.15427304185E+04  0.00000000000E+00 0. -1.
          1   -1    0    0  501    0 -0.00000000000E+00 -0.00000000000E+00 -0.15370662316E+04  0.15370662316E+04  0.00000000000E+00 0. -1.
         25    2    1    2    0    0  0.30155285265E+02 -0.24572559058E+02  0.34615023119E+02  0.13541217908E+03  0.12500042611E+03 0.  0.
          2    1    1    2  501    0 -0.59496569241E+02 -0.78039724144E+01 -0.14857344569E+04  0.14869457354E+04  0.00000000000E+00 0. -1.
          1    1    1    2  502    0  0.29341283976E+02  0.32376531472E+02  0.14567836206E+04  0.14574387356E+04  0.00000000000E+00 0. -1.
         22    1    3    3    0    0 -0.29299150389E+02  0.33596620799E+02 -0.17970500903E+01  0.44613927553E+02  0.00000000000E+00 0.  1.
         22    1    3    3    0    0  0.59454435654E+02 -0.58169179857E+02  0.36412073209E+02  0.90798251523E+02  0.00000000000E+00 0.  1.
</event>
<event>
 7    1  0.6219721E-006  0.9350272E+02  0.7818608E-02  0.1470478E+00
          2   -1    0    0  502    0  0.00000000000E+00  0.00000000000E+00  0.35195741654E+03  0.35195741654E+03  0.00000000000E+00 0. -1.
          1   -1    0    0  501    0 -0.00000000000E+00 -0.00000000000E+00 -0.53429943843E+03  0.53429943843E+03  0.00000000000E+00 0. -1.
         25    2    1    2    0    0 -0.94502701083E+02 -0.21362259173E+02  0.54519402206E+01  0.15824520091E+03  0.12499885331E+03 0.  0.
          2    1    1    2  501    0  0.83981846972E+02  0.40982232214E+02 -0.45266329956E+03  0.46220834777E+03  0.00000000000E+00 0. -1.
          1    1    1    2  502    0  0.10520854111E+02 -0.19619973041E+02  0.26486933746E+03  0.26580330630E+03  0.00000000000E+00 0. -1.
         22    1    3    3    0    0 -0.38187896983E+02  0.48746132140E+02  0.24027390741E+02  0.66421505406E+02  0.00000000000E+00 0.  1.
         22    1    3    3    0    0 -0.56314804099E+02 -0.70108391313E+02 -0.18575450520E+02  0.91823695499E+02  0.00000000000E+00 0.  1.
</event>
<event>
 7    1  0.6219721E-006  0.8198226E+02  0.7818608E-02  0.1439665E+00
          2   -1    0    0  502    0  0.00000000000E+00  0.00000000000E+00  0.11177570478E+04  0.11177570478E+04  0.00000000000E+00 0. -1.
          1   -1    0    0  501    0 -0.00000000000E+00 -0.00000000000E+00 -0.16907386873E+03  0.16907386873E+03  0.00000000000E+00 0. -1.
         25    2    1    2    0    0 -0.24729334857E+02  0.83505969064E+02 -0.53959999596E+02  0.16161533240E+03  0.12499218872E+03 0.  0.
          2    1    1    2  501    0 -0.25650441419E+02 -0.18814895927E+02 -0.55462495537E+02  0.63937734280E+02  0.00000000000E+00 0. -1.
          1    1    1    2  502    0  0.50379776276E+02 -0.64691073138E+02  0.10581056742E+04  0.10612778499E+04  0.00000000000E+00 0. -1.
         22    1    3    3    0    0 -0.33746049700E+02 -0.10937849505E+02 -0.56493863883E+02  0.66708238461E+02  0.00000000000E+00 0. -1.
         22    1    3    3    0    0  0.90167148428E+01  0.94443818569E+02  0.25338642878E+01  0.94907093943E+02  0.00000000000E+00 0. -1.
</event>
<event>
 7    1  0.6219721E-006  0.8975494E+02  0.7818608E-02  0.1476899E+00
          2   -1    0    0  502    0  0.00000000000E+00  0.00000000000E+00  0.16985129525E+04  0.16985129525E+04  0.00000000000E+00 0. -1.
          1   -1    0    0  501    0 -0.00000000000E+00 -0.00000000000E+00 -0.12111079342E+04  0.12111079342E+04  0.00000000000E+00 0. -1.
         25    2    1    2    0    0 -0.29060167669E+01 -0.11121504518E+03 -0.10770887762E+03  0.19901687840E+03  0.12501713626E+03 0.  0.
          2    1    1    2  501    0  0.47151211232E+01  0.21647608216E+02 -0.10564149275E+04  0.10566472213E+04  0.00000000000E+00 0. -1.
          1    1    1    2  502    0 -0.18091043563E+01  0.89567436965E+02  0.16515288234E+04  0.16539567869E+04  0.00000000000E+00 0. -1.
         22    1    3    3    0    0 -0.45202106056E+02 -0.11611840486E+03 -0.84085690319E+02  0.15032337694E+03  0.00000000000E+00 0. -1.
         22    1    3    3    0    0  0.42296089289E+02  0.49033596792E+01 -0.23623187304E+02  0.48693501452E+02  0.00000000000E+00 0. -1.
</event>
<event>
 7    1  0.6219721E-006  0.8574799E+02  0.7818608E-02  0.1394857E+00
          2   -1    0    0  502    0  0.00000000000E+00  0.00000000000E+00  0.12492304335E+04  0.12492304335E+04  0.00000000000E+00 0. -1.
          1   -1    0    0  501    0 -0.00000000000E+00 -0.00000000000E+00 -0.10378541096E+04  0.10378541096E+04  0.00000000000E+00 0. -1.
         25    2    1    2    0    0  0.66624021040E+02  0.82125093514E+02  0.10005238942E+04  0.10138323707E+04  0.12499888692E+03 0.  0.
          2    1    1    2  501    0 -0.70987097123E+01 -0.42399485125E+02 -0.10254501034E+04  0.10263508282E+04  0.00000000000E+00 0. -1.
          1    1    1    2  502    0 -0.59525311328E+02 -0.39725608389E+02  0.23630253304E+03  0.24690134421E+03  0.00000000000E+00 0. -1.
         22    1    3    3    0    0 -0.18149384712E+02  0.39880828782E+02  0.11186480033E+03  0.12013997762E+03  0.00000000000E+00 0.  1.
         22    1    3    3    0    0  0.84773405752E+02  0.42244264732E+02  0.88865909392E+03  0.89369239307E+03  0.00000000000E+00 0.  1.
</event>
<event>
 7    1  0.6219721E-006  0.5180389E+02  0.7818608E-02  0.1437607E+00
          2   -1    0    0  502    0  0.00000000000E+00  0.00000000000E+00  0.39261710365E+03  0.39261710365E+03  0.00000000000E+00 0. -1.
          1   -1    0    0  501    0 -0.00000000000E+00 -0.00000000000E+00 -0.13427845490E+04  0.13427845490E+04  0.00000000000E+00 0. -1.
         25    2    1    2    0    0 -0.13098757325E+02  0.62700869776E+01  0.77367253736E+02  0.14772216027E+03  0.12500101300E+03 0.  0.
          2    1    1    2  501    0 -0.12555522275E+02 -0.50491374414E+02 -0.13047512641E+04  0.13057882222E+04  0.00000000000E+00 0. -1.
          1    1    1    2  502    0  0.25654279599E+02  0.44221287436E+02  0.27721656498E+03  0.28189127021E+03  0.00000000000E+00 0. -1.
         22    1    3    3    0    0 -0.22125921757E+02 -0.18480148450E+02  0.10538897862E+03  0.10926073913E+03  0.00000000000E+00 0.  1.
         22    1    3    3    0    0  0.90271644327E+01  0.24750235427E+02 -0.28021724882E+02  0.38461421148E+02  0.00000000000E+00 0.  1.
</event>
<event>
 7    1  0.6219721E-006  0.1376896E+03  0.7818608E-02  0.1308245E+00
          2   -1    0    0  502    0  0.00000000000E+00  0.00000000000E+00  0.61166608166E+03  0.61166608166E+03  0.00000000000E+00 0. -1.
          1   -1    0    0  501    0 -0.00000000000E+00 -0.00000000000E+00 -0.74270414517E+02  0.74270414517E+02  0.00000000000E+00 0. -1.
         25    2    1    2    0    0  0.40762124263E+02 -0.14183005687E+03  0.33591805674E+03  0.38761273441E+03  0.12500150090E+03 0.  0.
          2    1    1    2  501    0  0.14974097424E+02  0.13641263653E+03  0.67127400575E+02  0.15277015057E+03  0.00000000000E+00 0. -1.
          1    1    1    2  502    0 -0.55736221687E+02  0.54174203369E+01  0.13435020983E+03  0.14555361119E+03  0.00000000000E+00 0. -1.
         22    1    3    3    0    0  0.58145861390E+02 -0.88167883479E+02  0.30610137008E+03  0.32380945884E+03  0.00000000000E+00 0. -1.
         22    1    3    3    0    0 -0.17383737127E+02 -0.53662173387E+02  0.29816686663E+02  0.63803275564E+02  0.00000000000E+00 0. -1.
</event>
<event>
 7    1  0.6219721E-006  0.7302151E+02  0.7818608E-02  0.1410059E+00
          2   -1    0    0  502    0  0.00000000000E+00  0.00000000000E+00  0.28787692160E+03  0.28787692160E+03  0.00000000000E+00 0. -1.
          1   -1    0    0  501    0 -0.00000000000E+00 -0.00000000000E+00 -0.12434842203E+03  0.12434842203E+03  0.00000000000E+00 0. -1.
         25    2    1    2    0    0 -0.18957536533E+02 -0.41140118907E+02  0.90393243632E+02  0.16076360560E+03  0.12498840272E+03 0.  0.
          2    1    1    2  501    0  0.16881400092E+02 -0.41471944623E+02 -0.71802903067E+02  0.84620096601E+02  0.00000000000E+00 0. -1.
          1    1    1    2  502    0  0.20761364409E+01  0.82612063530E+02  0.14493815900E+03  0.16684164144E+03  0.00000000000E+00 0. -1.
         22    1    3    3    0    0 -0.39736209672E+02 -0.22940671983E+02 -0.17713825422E+02  0.49183537909E+02  0.00000000000E+00 0.  1.
         22    1    3    3    0    0  0.20778673139E+02 -0.18199446924E+02  0.10810706905E+03  0.11158006769E+03  0.00000000000E+00 0.  1.
</event>
<event>
 7    1  0.6219721E-006  0.5852380E+02  0.7818608E-02  0.1523236E+00
          2   -1    0    0  502    0  0.00000000000E+00  0.00000000000E+00  0.67222609003E+03  0.67222609003E+03  0.00000000000E+00 0. -1.
          1   -1    0    0  501    0 -0.00000000000E+00 -0.00000000000E+00 -0.26836698085E+03  0.26836698085E+03  0.00000000000E+00 0. -1.
         25    2    1    2    0    0  0.81301256241E+01  0.34771501409E+02  0.10586409972E+03  0.16765341456E+03  0.12500121420E+03 0.  0.
          2    1    1    2  501    0 -0.23031867887E+02 -0.54484698496E+02 -0.23349713660E+03  0.24087333209E+03  0.00000000000E+00 0. -1.
          1    1    1    2  502    0  0.14901742263E+02  0.19713197086E+02  0.53149214606E+03  0.53206632424E+03  0.00000000000E+00 0. -1.
         22    1    3    3    0    0  0.45550749122E+02  0.62951135111E+02  0.88309746610E+02  0.11762791975E+03  0.00000000000E+00 0.  1.
         22    1    3    3    0    0 -0.37420623498E+02 -0.28179633702E+02  0.17554353107E+02  0.50025494816E+02  0.00000000000E+00 0.  1.
</event>
<event>
 7    1  0.6219721E-006  0.5343116E+02  0.7818608E-02  0.1455675E+00
          2   -1    0    0  502    0  0.00000000000E+00  0.00000000000E+00  0.21097370402E+03  0.21097370402E+03  0.00000000000E+00 0. -1.
          1   -1    0    0  501    0 -0.00000000000E+00 -0.00000000000E+00 -0.85499476560E+03  0.85499476560E+03  0.00000000000E+00 0. -1.
         25    2    1    2    0    0 -0.42987764616E+02  0.14395133267E+02 -0.33744171895E+03  0.36268737401E+03  0.12498019766E+03 0.  0.
          2    1    1    2  501    0 -0.22556006640E+01 -0.43303114313E+02 -0.50034198706E+03  0.50221743444E+03  0.00000000000E+00 0. -1.
          1    1    1    2  502    0  0.45243365280E+02  0.28907981046E+02  0.19376264443E+03  0.20106366118E+03  0.00000000000E+00 0. -1.
         22    1    3    3    0    0 -0.19095590926E+02 -0.53229082588E+02 -0.10278207833E+03  0.11731211554E+03  0.00000000000E+00 0. -1.
         22    1    3    3    0    0 -0.23892173690E+02  0.67624215854E+02 -0.23465964062E+03  0.24537525847E+03  0.00000000000E+00 0. -1.
</event>
<event>
 7    1  0.6219721E-006  0.1007213E+03  0.7818608E-02  0.1394057E+00
          2   -1    0    0  502    0  0.00000000000E+00  0.00000000000E+00  0.54468934667E+03  0.54468934667E+03  0.00000000000E+00 0. -1.
          1   -1    0    0  501    0 -0.00000000000E+00 -0.00000000000E+00 -0.17449839628E+03  0.17449839628E+03  0.00000000000E+00 0. -1.
         25    2    1    2    0    0 -0.78223578825E+02  0.78583771550E+02  0.13444927177E+02  0.16762973695E+03  0.12499850082E+03 0.  0.
          2    1    1    2  501    0  0.34837383659E+02  0.11960199976E+02 -0.88117133267E+02  0.95505595956E+02  0.00000000000E+00 0. -1.
          1    1    1    2  502    0  0.43386195166E+02 -0.90543971526E+02  0.44486315648E+03  0.45605241005E+03  0.00000000000E+00 0. -1.
         22    1    3    3    0    0 -0.23568757330E+02  0.29141120598E+02  0.66832658700E+02  0.76624379284E+02  0.00000000000E+00 0.  1.
         22    1    3    3    0    0 -0.54654821495E+02  0.49442650953E+02 -0.53387731523E+02  0.91005357661E+02  0.00000000000E+00 0.  1.
</event>
<event>
 7    1  0.6219721E-006  0.1396184E+03  0.7818608E-02  0.1421114E+00
          2   -1    0    0  502    0  0.00000000000E+00  0.00000000000E+00  0.44196481484E+03  0.44196481484E+03  0.00000000000E+00 0. -1.
          1   -1    0    0  501    0 -0.00000000000E+00 -0.00000000000E+00 -0.17416185986E+04  0.17416185986E+04  0.00000000000E+00 0. -1.
         25    2    1    2    0    0 -0.12115353411E+03  0.18697783018E+02  0.31388911385E+03  0.35941549698E+03  0.12500135103E+03 0.  0.
          2    1    1    2  501    0  0.13535628733E+03 -0.34836045918E+02 -0.17148847194E+04  0.17205709737E+04  0.00000000000E+00 0. -1.
          1    1    1    2  502    0 -0.14202753219E+02  0.16138262899E+02  0.10134182175E+03  0.10359694283E+03  0.00000000000E+00 0. -1.
         22    1    3    3    0    0 -0.13882738407E+03  0.12811533316E+02  0.19871341203E+03  0.24274307008E+03  0.00000000000E+00 0.  1.
         22    1    3    3    0    0  0.17673849959E+02  0.58862497019E+01  0.11517570183E+03  0.11667242690E+03  0.00000000000E+00 0.  1.
</event>
<event>
 7    1  0.6219721E-006  0.1056189E+03  0.7818608E-02  0.1445346E+00
          2   -1    0    0  502    0  0.00000000000E+00  0.00000000000E+00  0.18270256457E+03  0.18270256457E+03  0.00000000000E+00 0. -1.
          1   -1    0    0  501    0 -0.00000000000E+00 -0.00000000000E+00 -0.14188567044E+04  0.14188567044E+04  0.00000000000E+00 0. -1.
         25    2    1    2    0    0  0.78738276294E+02  0.75815762026E+02  0.11336471430E+03  0.20105825069E+03  0.12500046318E+03 0.  0.
          2    1    1    2  501    0  0.50491346055E+01 -0.23124493309E+02 -0.12784060229E+04  0.12786251191E+04  0.00000000000E+00 0. -1.
          1    1    1    2  502    0 -0.83787410900E+02 -0.52691268717E+02 -0.71112831265E+02  0.12187589915E+03  0.00000000000E+00 0. -1.
         22    1    3    3    0    0  0.97232807704E+02  0.10961996173E+02  0.76476560431E+02  0.12418956699E+03  0.00000000000E+00 0. -1.
         22    1    3    3    0    0 -0.18494531410E+02  0.64853765853E+02  0.36888153867E+02  0.76868683696E+02  0.00000000000E+00 0. -1.
</event>
<event>
 7    1  0.6219721E-006  0.1463955E+03  0.7818608E-02  0.1365896E+00
          2   -1    0    0  502    0  0.00000000000E+00  0.00000000000E+00  0.10604553418E+04  0.10604553418E+04  0.00000000000E+00 0. -1.
          1   -1    0    0  501    0 -0.00000000000E+00 -0.00000000000E+00 -0.43702181907E+03  0.43702181907E+03  0.00000000000E+00 0. -1.
         25    2    1    2    0    0 -0.13114526182E+03 -0.64039301057E+02  0.98919854052E+02  0.21612621080E+03  0.12500115876E+03 0.  0.
          2    1    1    2  501    0 -0.11547470364E+02  0.29720380111E+02 -0.37176810091E+03  0.37313290651E+03  0.00000000000E+00 0. -1.
          1    1    1    2  502    0  0.14269273219E+03  0.34318920946E+02  0.89628176958E+03  0.90821804355E+03  0.00000000000E+00 0. -1.
         22    1    3    3    0    0 -0.19594739979E+02 -0.71749732433E+02  0.13916771843E+02  0.75668054539E+02  0.00000000000E+00 0.  1.
         22    1    3    3    0    0 -0.11155052184E+03  0.77104313758E+01  0.85003082209E+02  0.14045815626E+03  0.00000000000E+00 0.  1.
</event>
<event>
 7    1  0.6219721E-006  0.7578242E+02  0.7818608E-02  0.1422479E+00
          2   -1    0    0  502    0  0.00000000000E+00  0.00000000000E+00  0.45754458512E+04  0.45754458512E+04  0.00000000000E+00 0. -1.
          1   -1    0    0  501    0 -0.00000000000E+00 -0.00000000000E+00 -0.20020617547E+03  0.20020617547E+03  0.00000000000E+00 0. -1.
         25    2    1    2    0    0  0.59300346566E+02 -0.72567884458E+02  0.47482573531E+03  0.49986677777E+03  0.12499875058E+03 0.  0.
          2    1    1    2  501    0  0.80070049359E+01  0.38367616881E+02 -0.18528687909E+03  0.18938694178E+03  0.00000000000E+00 0. -1.
          1    1    1    2  502    0 -0.67307351502E+02  0.34200267577E+02  0.40857008196E+04  0.40863983072E+04  0.00000000000E+00 0. -1.
         22    1    3    3    0    0  0.91456361386E+02 -0.59481660620E+02  0.42732416268E+03  0.44103092182E+03  0.00000000000E+00 0.  1.
         22    1    3    3    0    0 -0.32156014819E+02 -0.13086223838E+02  0.47501572628E+02  0.58835855951E+02  0.00000000000E+00 0.  1.
</event>
<event>
 7    1  0.6219721E-006  0.8986780E+02  0.7818608E-02  0.1484164E+00
          2   -1    0    0  502    0  0.00000000000E+00  0.00000000000E+00  0.16974553450E+04  0.16974553450E+04  0.00000000000E+00 0. -1.
          1   -1    0    0  501    0 -0.00000000000E+00 -0.00000000000E+00 -0.29222948374E+03  0.29222948374E+03  0.00000000000E+00 0. -1.
         25    2    1    2    0    0  0.83219796078E+02  0.71549175781E+02 -0.48452270938E+02  0.17325398187E+03  0.12499800262E+03 0.  0.
          2    1    1    2  501    0 -0.11745393083E+02 -0.17433859839E+02 -0.17953378895E+03  0.18076026970E+03  0.00000000000E+00 0. -1.
          1    1    1    2  502    0 -0.71474402996E+02 -0.54115315942E+02  0.16332119212E+04  0.16356705772E+04  0.00000000000E+00 0. -1.
         22    1    3    3    0    0  0.81938770792E+02  0.67549239877E+02  0.17105830343E+02  0.10756147730E+03  0.00000000000E+00 0.  1.
         22    1    3    3    0    0  0.12810252870E+01  0.39999359036E+01 -0.65558101281E+02  0.65692504569E+02  0.00000000000E+00 0.  1.
</event>
<event>
 7    1  0.6219721E-006  0.2207581E+03  0.7818608E-02  0.1260157E+00
          2   -1    0    0  502    0  0.00000000000E+00  0.00000000000E+00  0.61454458896E+03  0.61454458896E+03  0.00000000000E+00 0. -1.
          1   -1    0    0  501    0 -0.00000000000E+00 -0.00000000000E+00 -0.21021782131E+04  0.21021782131E+04  0.00000000000E+00 0. -1.
         25    2    1    2    0    0  0.25148237408E+03  0.39742079271E+02 -0.10212978008E+04  0.10599517677E+04  0.12500293803E+03 0.  0.
          2    1    1    2  501    0 -0.43788380555E+02  0.33335771730E+02 -0.10404401746E+04  0.10418946457E+04  0.00000000000E+00 0. -1.
          1    1    1    2  502    0 -0.20769399352E+03 -0.73077851002E+02  0.57410435123E+03  0.61487638867E+03  0.00000000000E+00 0. -1.
         22    1    3    3    0    0  0.17816114962E+03 -0.26899818240E+02 -0.74323661730E+03  0.76476510429E+03  0.00000000000E+00 0. -1.
         22    1    3    3    0    0  0.73321224457E+02  0.66641897511E+02 -0.27806118354E+03  0.29518666340E+03  0.00000000000E+00 0. -1.
</event>
<event>
 7    1  0.6219721E-006  0.1085419E+03  0.7818608E-02  0.1346347E+00
          2   -1    0    0  502    0  0.00000000000E+00  0.00000000000E+00  0.50211763902E+02  0.50211763902E+02  0.00000000000E+00 0. -1.
          1   -1    0    0  501    0 -0.00000000000E+00 -0.00000000000E+00 -0.18215015541E+04  0.18215015541E+04  0.00000000000E+00 0. -1.
         25    2    1    2    0    0  0.11250686555E+02  0.94464002537E+02 -0.27906242173E+03  0.32023600177E+03  0.12500094354E+03 0.  0.
          2    1    1    2  501    0  0.50555580203E+02  0.42276354978E+01 -0.14051677434E+04  0.14060832574E+04  0.00000000000E+00 0. -1.
          1    1    1    2  502    0 -0.61806266759E+02 -0.98691638035E+02 -0.87059625044E+02  0.14539405882E+03  0.00000000000E+00 0. -1.
         22    1    3    3    0    0 -0.48166014315E+02  0.83202929444E+02 -0.15905861811E+03  0.18585568703E+03  0.00000000000E+00 0.  1.
         22    1    3    3    0    0  0.59416700871E+02  0.11261073093E+02 -0.12000380361E+03  0.13438031475E+03  0.00000000000E+00 0.  1.
</event>
<event>
 7    1  0.6219721E-006  0.9236149E+02  0.7818608E-02  0.1374577E+00
          2   -1    0    0  502    0  0.00000000000E+00  0.00000000000E+00  0.41069459372E+03  0.41069459372E+03  0.00000000000E+00 0. -1.
          1   -1    0    0  501    0 -0.00000000000E+00 -0.00000000000E+00 -0.39071950669E+03  0.39071950669E+03  0.00000000000E+00 0. -1.
         25    2    1    2    0    0  0.31027728760E+02 -0.37892811149E+02  0.27116283623E+02  0.13695817036E+03  0.12499464990E+03 0.  0.
          2    1    1    2  501    0 -0.60483371757E+02  0.74562710223E+02 -0.32718170911E+03  0.34097757520E+03  0.00000000000E+00 0. -1.
          1    1    1    2  502    0  0.29455642998E+02 -0.36669899074E+02  0.32004051252E+03  0.32347835485E+03  0.00000000000E+00 0. -1.
         22    1    3    3    0    0 -0.13256362046E+02 -0.69904735490E+02  0.38855067058E+02  0.81068609305E+02  0.00000000000E+00 0.  1.
         22    1    3    3    0    0  0.44284090806E+02  0.32011924340E+02 -0.11738783436E+02  0.55889561056E+02  0.00000000000E+00 0.  1.
</event>
<event>
 7    1  0.6219721E-006  0.4645330E+02  0.7818608E-02  0.1472977E+00
          2   -1    0    0  502    0  0.00000000000E+00  0.00000000000E+00  0.22887144918E+03  0.22887144918E+03  0.00000000000E+00 0. -1.
          1   -1    0    0  501    0 -0.00000000000E+00 -0.00000000000E+00 -0.94528140688E+03  0.94528140688E+03  0.00000000000E+00 0. -1.
         25    2    1    2    0    0  0.43944420834E+02 -0.77795558258E+02  0.12009165940E+01  0.15365739994E+03  0.12500357335E+03 0.  0.
          2    1    1    2  501    0 -0.17317389554E+02  0.42744133265E+02 -0.86522743263E+03  0.86645569020E+03  0.00000000000E+00 0. -1.
          1    1    1    2  502    0 -0.26627031281E+02  0.35051424993E+02  0.14761655833E+03  0.15403976591E+03  0.00000000000E+00 0. -1.
         22    1    3    3    0    0 -0.41564936601E+02 -0.15558677784E+02  0.15336103271E+02  0.46956495531E+02  0.00000000000E+00 0. -1.
         22    1    3    3    0    0  0.85509357435E+02 -0.62236880474E+02 -0.14135186677E+02  0.10670090441E+03  0.00000000000E+00 0. -1.
</event>
<event>
 7    1  0.6219721E-006  0.2523937E+03  0.7818608E-02  0.1263558E+00
          2   -1    0    0  502    0  0.00000000000E+00  0.00000000000E+00  0.13092563435E+04  0.13092563435E+04  0.00000000000E+00 0. -1.
          1   -1    0    0  501    0 -0.00000000000E+00 -0.00000000000E+00 -0.78066010977E+03  0.78066010977E+03  0.00000000000E+00 0. -1.
         25    2    1    2    0    0 -0.23209166438E+03  0.18115042652E+03 -0.41185899491E+03  0.52147626647E+03  0.12501058796E+03 0.  0.
          2    1    1    2  501    0  0.44363447070E+02 -0.14125850563E+02 -0.29959333146E+03  0.30318941166E+03  0.00000000000E+00 0. -1.
          1    1    1    2  502    0  0.18772821731E+03 -0.16702457596E+03  0.12400485601E+04  0.12652507751E+04  0.00000000000E+00 0. -1.
         22    1    3    3    0    0 -0.17423810226E+03  0.16258063643E+03 -0.23589628453E+03  0.33531841088E+03  0.00000000000E+00 0.  1.
         22    1    3    3    0    0 -0.57853562119E+02  0.18569790091E+02 -0.17596271038E+03  0.18615785559E+03  0.00000000000E+00 0.  1.
</event>
<event>
 7    1  0.6219721E-006  0.6169152E+02  0.7818608E-02  0.1444901E+00
          2   -1    0    0  502    0  0.00000000000E+00  0.00000000000E+00  0.32625969816E+02  0.32625969816E+02  0.00000000000E+00 0. -1.
          1   -1    0    0  501    0 -0.00000000000E+00 -0.00000000000E+00 -0.14053762220E+04  0.14053762220E+04  0.00000000000E+00 0. -1.
         25    2    1    2    0    0 -0.97650517102E+01  0.90446336704E+02 -0.22086549352E+03  0.26960026362E+03  0.12500735922E+03 0.  0.
          2    1    1    2  501    0 -0.37920182213E+01 -0.40479699011E+02 -0.10746561877E+04  0.10754249891E+04  0.00000000000E+00 0. -1.
          1    1    1    2  502    0  0.13557069932E+02 -0.49966637693E+02 -0.77228570913E+02  0.92976939037E+02  0.00000000000E+00 0. -1.
         22    1    3    3    0    0 -0.58698874270E+02  0.49671793209E+02 -0.17488271272E+03  0.19104137795E+03  0.00000000000E+00 0.  1.
         22    1    3    3    0    0  0.48933822560E+02  0.40774543495E+02 -0.45982780801E+02  0.78558885670E+02  0.00000000000E+00 0.  1.
</event>
<event>
 7    1  0.6219721E-006  0.5353200E+02  0.7818608E-02  0.1527505E+00
          2   -1    0    0  502    0  0.00000000000E+00  0.00000000000E+00  0.85331289301E+01  0.85331289301E+01  0.00000000000E+00 0. -1.
          1   -1    0    0  501    0 -0.00000000000E+00 -0.00000000000E+00 -0.36970593406E+04  0.36970593406E+04  0.00000000000E+00 0. -1.
         25    2    1    2    0    0  0.33585138803E+02  0.22682184927E+02 -0.32615011477E+04  0.32641472268E+04  0.12499975364E+03 0.  0.
          2    1    1    2  501    0  0.20212649928E+02 -0.16766140014E+02 -0.32406041717E+03  0.32512275934E+03  0.00000000000E+00 0. -1.
          1    1    1    2  502    0 -0.53797788731E+02 -0.59160449132E+01 -0.10296464675E+03  0.11632248338E+03  0.00000000000E+00 0. -1.
         22    1    3    3    0    0 -0.14749371283E+02 -0.21004925770E+02 -0.24171183553E+04  0.24172546192E+04  0.00000000000E+00 0. -1.
         22    1    3    3    0    0  0.48334510085E+02  0.43687110697E+02 -0.84438279243E+03  0.84689260751E+03  0.00000000000E+00 0. -1.
</event>
<event>
 7    1  0.6219721E-006  0.3930433E+02  0.7818608E-02  0.1572767E+00
          2   -1    0    0  502    0  0.00000000000E+00  0.00000000000E+00  0.15931248661E+04  0.15931248661E+04  0.00000000000E+00 0. -1.
          1   -1    0    0  501    0 -0.00000000000E+00 -0.00000000000E+00 -0.57015160820E+02  0.57015160820E+02  0.00000000000E+00 0. -1.
         25    2    1    2    0    0  0.27251971480E+02 -0.59167552202E+02  0.27176786391E+03  0.30614851292E+03  0.12500268368E+03 0.  0.
          2    1    1    2  501    0 -0.14586905400E+02  0.22415851315E+02 -0.35011186567E+02  0.44057137720E+02  0.00000000000E+00 0. -1.
          1    1    1    2  502    0 -0.12665066080E+02  0.36751700887E+02  0.12993530280E+04  0.12999343763E+04  0.00000000000E+00 0. -1.
         22    1    3    3    0    0  0.17652632394E+02 -0.52375951434E+02  0.28391339542E+03  0.28924327445E+03  0.00000000000E+00 0. -1.
         22    1    3    3    0    0  0.95993390863E+01 -0.67916007682E+01 -0.12145531512E+02  0.16905238466E+02  0.00000000000E+00 0. -1.
</event>
<event>
 7    1  0.6219721E-006  0.1861268E+03  0.7818608E-02  0.1232725E+00
          2   -1    0    0  502    0  0.00000000000E+00  0.00000000000E+00  0.38650018602E+04  0.38650018602E+04  0.00000000000E+00 0. -1.
          1   -1    0    0  501    0 -0.00000000000E+00 -0.00000000000E+00 -0.94656221713E+02  0.94656221713E+02  0.00000000000E+00 0. -1.
         25    2    1    2    0    0 -0.18351917032E+03  0.13243886831E+03  0.17836573677E+04  0.18022979807E+04  0.12500026575E+03 0.  0.
          2    1    1    2  501    0  0.16550150377E+02 -0.84383623212E+02 -0.59013424238E+02  0.10429327679E+03  0.00000000000E+00 0. -1.
          1    1    1    2  502    0  0.16696901994E+03 -0.48055245101E+02  0.20457016951E+04  0.20530668244E+04  0.00000000000E+00 0. -1.
         22    1    3    3    0    0 -0.19740983942E+03  0.13919125609E+03  0.17148768222E+04  0.17318046558E+04  0.00000000000E+00 0. -1.
         22    1    3    3    0    0  0.13890669102E+02 -0.67523877794E+01  0.68780545414E+02  0.70493324906E+02  0.00000000000E+00 0. -1.
</event>
<event>
 7    1  0.6219721E-006  0.6571319E+02  0.7818608E-02  0.1443120E+00
          2   -1    0    0  502    0  0.00000000000E+00  0.00000000000E+00  0.52851310113E+03  0.52851310113E+03  0.00000000000E+00 0. -1.
          1   -1    0    0  501    0 -0.00000000000E+00 -0.00000000000E+00 -0.15177215754E+04  0.15177215754E+04  0.00000000000E+00 0. -1.
         25    2    1    2    0    0 -0.35621772366E+02 -0.25276696921E+02  0.34687558354E+03  0.37129327134E+03  0.12501280260E+03 0.  0.
          2    1    1    2  501    0  0.22700043678E+02  0.61731288215E+02 -0.15025766093E+04  0.15040154623E+04  0.00000000000E+00 0. -1.
          1    1    1    2  502    0  0.12921728688E+02 -0.36454591294E+02  0.16649255144E+03  0.17092594298E+03  0.00000000000E+00 0. -1.
         22    1    3    3    0    0  0.33991306776E+02  0.28318144730E+02  0.10413620907E+03  0.11314449300E+03  0.00000000000E+00 0. -1.
         22    1    3    3    0    0 -0.69613079142E+02 -0.53594841651E+02  0.24273937447E+03  0.25814877834E+03  0.00000000000E+00 0. -1.
</event>
<event>
 7    1  0.6219721E-006  0.2658628E+02  0.7818608E-02  0.1668662E+00
          2   -1    0    0  502    0  0.00000000000E+00  0.00000000000E+00  0.13563913144E+04  0.13563913144E+04  0.00000000000E+00 0. -1.
          1   -1    0    0  501    0 -0.00000000000E+00 -0.00000000000E+00 -0.32844365457E+02  0.32844365457E+02  0.00000000000E+00 0. -1.
         25    2    1    2    0    0  0.29437686972E+02 -0.25900100867E+01  0.93787731803E+03  0.94663202917E+03  0.12500019765E+03 0.  0.
          2    1    1    2  501    0 -0.16409072260E+02  0.20972123650E+02 -0.21859730696E+02  0.34451929539E+02  0.00000000000E+00 0. -1.
          1    1    1    2  502    0 -0.13028614712E+02 -0.18382113563E+02  0.40752936160E+03  0.40815172114E+03  0.00000000000E+00 0. -1.
         22    1    3    3    0    0 -0.11710665241E+02 -0.49428346871E+02  0.20864672933E+03  0.21474114374E+03  0.00000000000E+00 0.  1.
         22    1    3    3    0    0  0.41148352213E+02  0.46838336784E+02  0.72923058870E+03  0.73189088543E+03  0.00000000000E+00 0.  1.
</event>
<event>
 7    1  0.6219721E-006  0.9231748E+02  0.7818608E-02  0.1348842E+00
          2   -1    0    0  502    0  0.00000000000E+00  0.00000000000E+00  0.81692809467E+02  0.81692809467E+02  0.00000000000E+00 0. -1.
          1   -1    0    0  501    0 -0.00000000000E+00 -0.00000000000E+00 -0.14333509142E+04  0.14333509142E+04  0.00000000000E+00 0. -1.
         25    2    1    2    0    0 -0.39053722853E+02  0.10836132871E+02 -0.81612358462E+03  0.82663480561E+03  0.12499912573E+03 0.  0.
          2    1    1    2  501    0 -0.36487739544E+02  0.45582233344E+02 -0.58086592595E+03  0.58379304472E+03  0.00000000000E+00 0. -1.
          1    1    1    2  502    0  0.75541462397E+02 -0.56418366215E+02  0.45331405873E+02  0.10461587330E+03  0.00000000000E+00 0. -1.
         22    1    3    3    0    0  0.16641268194E+02  0.10530225671E+02 -0.18343265443E+02  0.26912689328E+02  0.00000000000E+00 0. -1.
         22    1    3    3    0    0 -0.55694991047E+02  0.30590720072E+00 -0.79778031918E+03  0.79972211629E+03  0.00000000000E+00 0. -1.
</event>
<event>
 7    1  0.6219721E-006  0.1071942E+03  0.7818608E-02  0.1322690E+00
          2   -1    0    0  502    0  0.00000000000E+00  0.00000000000E+00  0.32416019180E+03  0.32416019180E+03  0.00000000000E+00 0. -1.
          1   -1    0    0  501    0 -0.00000000000E+00 -0.00000000000E+00 -0.29956862854E+03  0.29956862854E+03  0.00000000000E+00 0. -1.
         25    2    1    2    0    0  0.67257734963E+02 -0.53066922499E+02  0.74277164232E+02  0.16876378991E+03  0.12499767390E+03 0.  0.
          2    1    1    2  501    0 -0.32666430652E+02  0.10591662534E+03 -0.23465101114E+03  0.25951208882E+03  0.00000000000E+00 0. -1.
          1    1    1    2  502    0 -0.34591304311E+02 -0.52849702840E+02  0.18496541018E+03  0.19545294161E+03  0.00000000000E+00 0. -1.
         22    1    3    3    0    0  0.77692169945E+02  0.57181317012E+01  0.76275737933E+02  0.10902641193E+03  0.00000000000E+00 0. -1.
         22    1    3    3    0    0 -0.10434434983E+02 -0.58785054200E+02 -0.19985737011E+01  0.59737377977E+02  0.00000000000E+00 0. -1.
</event>
<event>
 7    1  0.6219721E-006  0.1149469E+03  0.7818608E-02  0.1313041E+00
          2   -1    0    0  502    0  0.00000000000E+00  0.00000000000E+00  0.70675559399E+03  0.70675559399E+03  0.00000000000E+00 0. -1.
          1   -1    0    0  501    0 -0.00000000000E+00 -0.00000000000E+00 -0.15378735307E+04  0.15378735307E+04  0.00000000000E+00 0. -1.
         25    2    1    2    0    0  0.15201812269E+03 -0.27517715155E+02 -0.31328434769E+03  0.37099732894E+03  0.12500080518E+03 0.  0.
          2    1    1    2  501    0 -0.95742602026E+02  0.58468125124E+02 -0.11915709323E+04  0.11968401957E+04  0.00000000000E+00 0. -1.
          1    1    1    2  502    0 -0.56275520666E+02 -0.30950409969E+02  0.67373734327E+03  0.67679159999E+03  0.00000000000E+00 0. -1.
         22    1    3    3    0    0  0.13919275431E+03 -0.11204679553E+01 -0.14818296128E+03  0.20330781666E+03  0.00000000000E+00 0.  1.
         22    1    3    3    0    0  0.12825368385E+02 -0.26397247200E+02 -0.16510138641E+03  0.16768951228E+03  0.00000000000E+00 0.  1.
</event>
<event>
 7    1  0.6219721E-006  0.2780518E+02  0.7818608E-02  0.1667793E+00
          2   -1    0    0  502    0  0.00000000000E+00  0.00000000000E+00  0.82848430803E+03  0.82848430803E+03  0.00000000000E+00 0. -1.
          1   -1    0    0  501    0 -0.00000000000E+00 -0.00000000000E+00 -0.18616598710E+03  0.18616598710E+03  0.00000000000E+00 0. -1.
         25    2    1    2    0    0  0.58849643103E+01 -0.47613802182E+01  0.20170153644E+03  0.23741331929E+03  0.12499708327E+03 0.  0.
          2    1    1    2  501    0 -0.27531508129E+02  0.46242205228E+01 -0.16695838127E+03  0.16927630794E+03  0.00000000000E+00 0. -1.
          1    1    1    2  502    0  0.21646543819E+02  0.13715969532E+00  0.60757516575E+03  0.60796066790E+03  0.00000000000E+00 0. -1.
         22    1    3    3    0    0 -0.18699674252E+02 -0.52532564315E+02  0.44677210822E+02  0.71452090924E+02  0.00000000000E+00 0. -1.
         22    1    3    3    0    0  0.24584638562E+02  0.47771184097E+02  0.15702432562E+03  0.16596122836E+03  0.00000000000E+00 0. -1.
</event>
<event>
 7    1  0.6219721E-006  0.5390627E+02  0.7818608E-02  0.1441367E+00
          2   -1    0    0  502    0  0.00000000000E+00  0.00000000000E+00  0.73383942834E+03  0.73383942834E+03  0.00000000000E+00 0. -1.
          1   -1    0    0  501    0 -0.00000000000E+00 -0.00000000000E+00 -0.11769385051E+04  0.11769385051E+04  0.00000000000E+00 0. -1.
         25    2    1    2    0    0  0.70386992693E+02 -0.80491672097E+01  0.97008899896E+01  0.14400851100E+03  0.12500090455E+03 0.  0.
          2    1    1    2  501    0 -0.43706790002E+02 -0.31573327370E+02 -0.11082601462E+04  0.11095709576E+04  0.00000000000E+00 0. -1.
          1    1    1    2  502    0 -0.26680202692E+02  0.39622494580E+02  0.65546017943E+03  0.65719846478E+03  0.00000000000E+00 0. -1.
         22    1    3    3    0    0  0.37818466528E+02  0.58370698505E+02  0.13579863342E+01  0.69564495120E+02  0.00000000000E+00 0.  1.
         22    1    3    3    0    0  0.32568526166E+02 -0.66419865715E+02  0.83429036554E+01  0.74444015875E+02  0.00000000000E+00 0.  1.
</event>
<event>
 7    1  0.6219721E-006  0.1118315E+03  0.7818608E-02  0.1322671E+00
          2   -1    0    0  502    0  0.00000000000E+00  0.00000000000E+00  0.10105298996E+04  0.10105298996E+04  0.00000000000E+00 0. -1.
          1   -1    0    0  501    0 -0.00000000000E+00 -0.00000000000E+00 -0.80136967791E+03  0.80136967791E+03  0.00000000000E+00 0. -1.
         25    2    1    2    0    0 -0.12694235014E+03 -0.11338781097E+03  0.37508203483E+03  0.43044360291E+03  0.12499602594E+03 0.  0.
          2    1    1    2  501    0  0.90005825840E+02  0.65402835997E+02 -0.76816282492E+03  0.77617826898E+03  0.00000000000E+00 0. -1.
          1    1    1    2  502    0  0.36936524303E+02  0.47984974974E+02  0.60224101175E+03  0.60527770559E+03  0.00000000000E+00 0. -1.
         22    1    3    3    0    0 -0.24267917459E+02  0.11664115652E+02  0.15479266933E+03  0.15711700700E+03  0.00000000000E+00 0.  1.
         22    1    3    3    0    0 -0.10267443268E+03 -0.12505192662E+03  0.22028936550E+03  0.27332659591E+03  0.00000000000E+00 0.  1.
</event>
<event>
 7    1  0.6219721E-006  0.5533263E+02  0.7818608E-02  0.1547972E+00
          2   -1    0    0  502    0  0.00000000000E+00  0.00000000000E+00  0.26416023838E+04  0.26416023838E+04  0.00000000000E+00 0. -1.
          1   -1    0    0  501    0 -0.00000000000E+00 -0.00000000000E+00 -0.17054907570E+02  0.17054907570E+02  0.00000000000E+00 0. -1.
         25    2    1    2    0    0  0.56375097680E+02  0.49778517457E+01  0.18356202341E+04  0.18407416416E+04  0.12500086652E+03 0.  0.
          2    1    1    2  501    0 -0.67670012014E+01  0.21173559237E+02 -0.43570777201E+01  0.22651623392E+02  0.00000000000E+00 0. -1.
          1    1    1    2  502    0 -0.49608096478E+02 -0.26151410983E+02  0.79328431986E+03  0.79526402639E+03  0.00000000000E+00 0. -1.
         22    1    3    3    0    0  0.72721022542E+01  0.22015117152E+02  0.59449090959E+02  0.63810212900E+02  0.00000000000E+00 0. -1.
         22    1    3    3    0    0  0.49102995426E+02 -0.17037265406E+02  0.17761711431E+04  0.17769314287E+04  0.00000000000E+00 0. -1.
</event>
<event>
 7    1  0.6219721E-006  0.7736472E+02  0.7818608E-02  0.1344791E+00
          2   -1    0    0  502    0  0.00000000000E+00  0.00000000000E+00  0.55592027273E+02  0.55592027273E+02  0.00000000000E+00 0. -1.
          1   -1    0    0  501    0 -0.00000000000E+00 -0.00000000000E+00 -0.18894732914E+04  0.18894732914E+04  0.00000000000E+00 0. -1.
         25    2    1    2    0    0 -0.14728478518E+02  0.60222843598E+02 -0.66922226784E+03  0.68361333635E+03  0.12500012354E+03 0.  0.
          2    1    1    2  501    0  0.71967296824E+02 -0.49002244691E+01 -0.11784552149E+04  0.11806608308E+04  0.00000000000E+00 0. -1.
          1    1    1    2  502    0 -0.57238818307E+02 -0.55322619128E+02  0.13796218605E+02  0.80791151472E+02  0.00000000000E+00 0. -1.
         22    1    3    3    0    0 -0.63350099963E+02  0.51236131341E+02 -0.52173401432E+03  0.52805753287E+03  0.00000000000E+00 0.  1.
         22    1    3    3    0    0  0.48621621445E+02  0.89867122566E+01 -0.14748825353E+03  0.15555580348E+03  0.00000000000E+00 0.  1.
</event>
<event>
 7    1  0.6219721E-006  0.3975730E+02  0.7818608E-02  0.1571493E+00
          2   -1    0    0  502    0  0.00000000000E+00  0.00000000000E+00  0.22266150154E+03  0.22266150154E+03  0.00000000000E+00 0. -1.
          1   -1    0    0  501    0 -0.00000000000E+00 -0.00000000000E+00 -0.17042632514E+04  0.17042632514E+04  0.00000000000E+00 0. -1.
         25    2    1    2    0    0 -0.42068085885E+02 -0.48404146026E+02  0.30131187077E+02  0.14368470022E+03  0.12499887776E+03 0.  0.
          2    1    1    2  501    0  0.21528954285E+02  0.15708087346E+02 -0.16446307749E+04  0.16448466876E+04  0.00000000000E+00 0. -1.
          1    1    1    2  502    0  0.20539131600E+02  0.32696058680E+02  0.13289783796E+03  0.13839336514E+03  0.00000000000E+00 0. -1.
         22    1    3    3    0    0 -0.71848167594E+02 -0.24744394062E+01 -0.14158672606E+02  0.73271754770E+02  0.00000000000E+00 0. -1.
         22    1    3    3    0    0  0.29780081709E+02 -0.45929706620E+02  0.44289859683E+02  0.70412945454E+02  0.00000000000E+00 0. -1.
</event>
<event>
 7    1  0.6219721E-006  0.8532531E+02  0.7818608E-02  0.1381385E+00
          2   -1    0    0  502    0  0.00000000000E+00  0.00000000000E+00  0.86755928804E+03  0.86755928804E+03  0.00000000000E+00 0. -1.
          1   -1    0    0  501    0 -0.00000000000E+00 -0.00000000000E+00 -0.11417706367E+04  0.11417706367E+04  0.00000000000E+00 0. -1.
         25    2    1    2    0    0  0.91274821630E+02  0.26654666526E+02 -0.89670410080E+03  0.91035410538E+03  0.12499915393E+03 0.  0.
          2    1    1    2  501    0 -0.55916807579E+02 -0.59347549181E+02 -0.23056553773E+03  0.24455937552E+03  0.00000000000E+00 0. -1.
          1    1    1    2  502    0 -0.35358014051E+02  0.32692882655E+02  0.85305828983E+03  0.85441644388E+03  0.00000000000E+00 0. -1.
         22    1    3    3    0    0  0.10300202915E+03  0.52313747350E+02 -0.82894667406E+03  0.83695802440E+03  0.00000000000E+00 0. -1.
         22    1    3    3    0    0 -0.11727207525E+02 -0.25659080824E+02 -0.67757426740E+02  0.73396080982E+02  0.00000000000E+00 0. -1.
</event>
<event>
 7    1  0.6219721E-006  0.9962265E+02  0.7818608E-02  0.1316555E+00
          2   -1    0    0  502    0  0.00000000000E+00  0.00000000000E+00  0.47849319828E+03  0.47849319828E+03  0.00000000000E+00 0. -1.
          1   -1    0    0  501    0 -0.00000000000E+00 -0.00000000000E+00 -0.68715354225E+03  0.68715354225E+03  0.00000000000E+00 0. -1.
         25    2    1    2    0    0 -0.54511164588E+02  0.22493913502E+02  0.25643802250E+03  0.29131391642E+03  0.12500358116E+03 0.  0.
          2    1    1    2  501    0  0.92877108886E+02  0.38190989559E+02 -0.65949756216E+03  0.66709950048E+03  0.00000000000E+00 0. -1.
          1    1    1    2  502    0 -0.38365944298E+02 -0.60684903062E+02  0.19439919569E+03  0.20723332364E+03  0.00000000000E+00 0. -1.
         22    1    3    3    0    0 -0.15355736598E+02 -0.35483940704E+02  0.19312593979E+03  0.19695821210E+03  0.00000000000E+00 0. -1.
         22    1    3    3    0    0 -0.39155427990E+02  0.57977854207E+02  0.63312082713E+02  0.94355704316E+02  0.00000000000E+00 0. -1.
</event>
<event>
 7    1  0.6219721E-006  0.1100281E+03  0.7818608E-02  0.1299379E+00
          2   -1    0    0  502    0  0.00000000000E+00  0.00000000000E+00  0.44154429439E+03  0.44154429439E+03  0.00000000000E+00 0. -1.
          1   -1    0    0  501    0 -0.00000000000E+00 -0.00000000000E+00 -0.40323873368E+03  0.40323873368E+03  0.00000000000E+00 0. -1.
         25    2    1    2    0    0 -0.20986725907E+02 -0.61286956980E+02  0.22813933314E+02  0.14262682906E+03  0.12500161221E+03 0.  0.
          2    1    1    2  501    0  0.96865968155E+02  0.65705458114E+02 -0.32909292312E+03  0.34928838380E+03  0.00000000000E+00 0. -1.
          1    1    1    2  502    0 -0.75879242248E+02 -0.44185011341E+01  0.34458455051E+03  0.35286781520E+03  0.00000000000E+00 0. -1.
         22    1    3    3    0    0  0.52263430648E+02 -0.34483035279E+02  0.66195274512E+01  0.62963195987E+02  0.00000000000E+00 0.  1.
         22    1    3    3    0    0 -0.73250156555E+02 -0.26803921700E+02  0.16194405863E+02  0.79663633078E+02  0.00000000000E+00 0.  1.
</event>
<event>
 7    1  0.6219721E-006  0.1467662E+03  0.7818608E-02  0.1370106E+00
          2   -1    0    0  502    0  0.00000000000E+00  0.00000000000E+00  0.10339220308E+04  0.10339220308E+04  0.00000000000E+00 0. -1.
          1   -1    0    0  501    0 -0.00000000000E+00 -0.00000000000E+00 -0.46045136983E+02  0.46045136983E+02  0.00000000000E+00 0. -1.
         25    2    1    2    0    0 -0.11910507617E+03  0.44774769972E+02  0.39573654367E+03  0.43407785255E+03  0.12500148353E+03 0.  0.
          2    1    1    2  501    0  0.14750900718E+03 -0.56455838835E+02  0.21126865798E+03  0.26378137686E+03  0.00000000000E+00 0. -1.
          1    1    1    2  502    0 -0.28403931004E+02  0.11681068863E+02  0.38087169213E+03  0.38210793833E+03  0.00000000000E+00 0. -1.
         22    1    3    3    0    0  0.11257137827E+02  0.40441207853E+02  0.15132597446E+03  0.15704064758E+03  0.00000000000E+00 0. -1.
         22    1    3    3    0    0 -0.13036221400E+03  0.43335621186E+01  0.24441056921E+03  0.27703720497E+03  0.00000000000E+00 0. -1.
</event>
<event>
 7    1  0.6219721E-006  0.1020664E+03  0.7818608E-02  0.1359809E+00
          2   -1    0    0  502    0  0.00000000000E+00  0.00000000000E+00  0.27165835562E+03  0.27165835562E+03  0.00000000000E+00 0. -1.
          1   -1    0    0  501    0 -0.00000000000E+00 -0.00000000000E+00 -0.12885508284E+04  0.12885508284E+04  0.00000000000E+00 0. -1.
         25    2    1    2    0    0 -0.81660660547E+02 -0.44638325532E+02 -0.72564253316E+03  0.74218789565E+03  0.12499897168E+03 0.  0.
          2    1    1    2  501    0 -0.20667848729E+02  0.43458238050E+02 -0.54359209187E+03  0.54571800481E+03  0.00000000000E+00 0. -1.
          1    1    1    2  502    0  0.10232850928E+03  0.11800874824E+01  0.25234215227E+03  0.27230328355E+03  0.00000000000E+00 0. -1.
         22    1    3    3    0    0 -0.37382289575E+02  0.24718895576E+02 -0.50009352423E+03  0.50209759245E+03  0.00000000000E+00 0.  1.
         22    1    3    3    0    0 -0.44278370972E+02 -0.69357221109E+02 -0.22554900893E+03  0.24009030319E+03  0.00000000000E+00 0.  1.
</event>
<event>
 7    1  0.6219721E-006  0.5445779E+02  0.7818608E-02  0.1544353E+00
          2   -1    0    0  502    0  0.00000000000E+00  0.00000000000E+00  0.87061468432E+03  0.87061468432E+03  0.00000000000E+00 0. -1.
          1   -1    0    0  501    0 -0.00000000000E+00 -0.00000000000E+00 -0.46831462785E+03  0.46831462785E+03  0.00000000000E+00 0. -1.
         25    2    1    2    0    0 -0.33985972291E+02 -0.17782487996E+02 -0.38457892585E+03  0.40618848259E+03  0.12496747570E+03 0.  0.
          2    1    1    2  501    0 -0.21420172428E+01 -0.23020179824E+02 -0.70211192770E+02  0.73919743690E+02  0.00000000000E+00 0. -1.
          1    1    1    2  502    0  0.36127989534E+02  0.40802667820E+02  0.85709017509E+03  0.85882108589E+03  0.00000000000E+00 0. -1.
         22    1    3    3    0    0 -0.34418664680E+02 -0.19496253958E+02 -0.39431454303E+03  0.39629371335E+03  0.00000000000E+00 0.  1.
         22    1    3    3    0    0  0.43269238861E+00  0.17137659613E+01  0.97356171745E+01  0.98947692364E+01  0.00000000000E+00 0.  1.
</event>
<event>
 7    1  0.6219721E-006  0.7896973E+02  0.7818608E-02  0.1337384E+00
          2   -1    0    0  502    0  0.00000000000E+00  0.00000000000E+00  0.64997586207E+03  0.64997586207E+03  0.00000000000E+00 0. -1.
          1   -1    0    0  501    0 -0.00000000000E+00 -0.00000000000E+00 -0.12911518581E+04  0.12911518581E+04  0.00000000000E+00 0. -1.
         25    2    1    2    0    0  0.78084457914E+02 -0.66000105990E+02  0.28464486407E+03  0.32726253360E+03  0.12499948278E+03 0.  0.
          2    1    1    2  501    0  0.94874694522E+00  0.75337132082E+02 -0.12641038286E+04  0.12663471376E+04  0.00000000000E+00 0. -1.
          1    1    1    2  502    0 -0.79033204859E+02 -0.93370260920E+01  0.33828296851E+03  0.34751804890E+03  0.00000000000E+00 0. -1.
         22    1    3    3    0    0  0.65144235843E+02 -0.24029879164E+02  0.27318676956E+03  0.28187269754E+03  0.00000000000E+00 0. -1.
         22    1    3    3    0    0  0.12940222071E+02 -0.41970226825E+02  0.11458094508E+02  0.45389836051E+02  0.00000000000E+00 0. -1.
</event>
<event>
 7    1  0.6219721E-006  0.5917958E+02  0.7818608E-02  0.1405433E+00
          2   -1    0    0  502    0  0.00000000000E+00  0.00000000000E+00  0.56324688607E+03  0.56324688607E+03  0.00000000000E+00 0. -1.
          1   -1    0    0  501    0 -0.00000000000E+00 -0.00000000000E+00 -0.30584887285E+03  0.30584887285E+03  0.00000000000E+00 0. -1.
         25    2    1    2    0    0 -0.41488718390E+02  0.72639264457E+02 -0.74774510177E+02  0.16796809344E+03  0.12499710616E+03 0.  0.
          2    1    1    2  501    0  0.56144287281E+02 -0.17258955140E+02 -0.17815852980E+03  0.18759134913E+03  0.00000000000E+00 0. -1.
          1    1    1    2  502    0 -0.14655568892E+02 -0.55380309316E+02  0.51033105319E+03  0.51353631635E+03  0.00000000000E+00 0. -1.
         22    1    3    3    0    0 -0.76605855846E+02  0.45131285049E+02 -0.10215475100E+02  0.89496625476E+02  0.00000000000E+00 0. -1.
         22    1    3    3    0    0  0.35117137457E+02  0.27507979408E+02 -0.64559035078E+02  0.78471467964E+02  0.00000000000E+00 0. -1.
</event>
<event>
 7    1  0.6219721E-006  0.6696956E+02  0.7818608E-02  0.1487837E+00
          2   -1    0    0  502    0  0.00000000000E+00  0.00000000000E+00  0.43259753810E+03  0.43259753810E+03  0.00000000000E+00 0. -1.
          1   -1    0    0  501    0 -0.00000000000E+00 -0.00000000000E+00 -0.99054601173E+03  0.99054601173E+03  0.00000000000E+00 0. -1.
         25    2    1    2    0    0 -0.84630000516E+02 -0.17346142127E+02  0.16124999247E+03  0.22156394733E+03  0.12500358816E+03 0.  0.
          2    1    1    2  501    0  0.25904264947E+02 -0.92085815577E+01 -0.95588228145E+03  0.95627755641E+03  0.00000000000E+00 0. -1.
          1    1    1    2  502    0  0.58725735569E+02  0.26554723685E+02  0.23668381535E+03  0.24530204609E+03  0.00000000000E+00 0. -1.
         22    1    3    3    0    0 -0.33446292987E+02  0.47864348780E+02  0.28305728084E+02  0.64891175372E+02  0.00000000000E+00 0. -1.
         22    1    3    3    0    0 -0.51183707529E+02 -0.65210490908E+02  0.13294426438E+03  0.15667277196E+03  0.00000000000E+00 0. -1.
</event>
<event>
 7    1  0.6219721E-006  0.1920966E+03  0.7818608E-02  0.1251700E+00
          2   -1    0    0  502    0  0.00000000000E+00  0.00000000000E+00  0.20926600635E+04  0.20926600635E+04  0.00000000000E+00 0. -1.
          1   -1    0    0  501    0 -0.00000000000E+00 -0.00000000000E+00 -0.47248644747E+03  0.47248644747E+03  0.00000000000E+00 0. -1.
         25    2    1    2    0    0  0.10327766009E+03 -0.12276805262E+03 -0.42663909561E+02  0.20779368924E+03  0.12497895140E+03 0.  0.
          2    1    1    2  501    0  0.63971254491E+02  0.25221917540E+02 -0.33913667706E+03  0.34603779021E+03  0.00000000000E+00 0. -1.
          1    1    1    2  502    0 -0.16724891458E+03  0.97546135079E+02  0.20019742026E+04  0.20113150315E+04  0.00000000000E+00 0. -1.
         22    1    3    3    0    0 -0.14016624633E+01 -0.14741602094E+02 -0.54910039918E+02  0.56871715059E+02  0.00000000000E+00 0.  1.
         22    1    3    3    0    0  0.10467932255E+03 -0.10802645052E+03  0.12246130357E+02  0.15092197418E+03  0.00000000000E+00 0.  1.
</event>
<event>
 7    1  0.6219721E-006  0.1161749E+03  0.7818608E-02  0.1369398E+00
          2   -1    0    0  502    0  0.00000000000E+00  0.00000000000E+00  0.16516153445E+04  0.16516153445E+04  0.00000000000E+00 0. -1.
          1   -1    0    0  501    0 -0.00000000000E+00 -0.00000000000E+00 -0.14145688295E+04  0.14145688295E+04  0.00000000000E+00 0. -1.
         25    2    1    2    0    0  0.13106788435E+03  0.74674643845E+02  0.30297828473E+03  0.36079951627E+03  0.12500142870E+03 0.  0.
          2    1    1    2  501    0 -0.28397516283E+02 -0.26771205169E+02 -0.13829508692E+04  0.13835014358E+04  0.00000000000E+00 0. -1.
          1    1    1    2  502    0 -0.10267036807E+03 -0.47903438676E+02  0.13170190995E+04  0.13218832219E+04  0.00000000000E+00 0. -1.
         22    1    3    3    0    0  0.10181344710E+03  0.89476910795E+02  0.14118371632E+03  0.19571647179E+03  0.00000000000E+00 0.  1.
         22    1    3    3    0    0  0.29254437246E+02 -0.14802266951E+02  0.16179456841E+03  0.16508304448E+03  0.00000000000E+00 0.  1.
</event>
<event>
 7    1  0.6219721E-006  0.7884907E+02  0.7818608E-02  0.1446106E+00
          2   -1    0    0  502    0  0.00000000000E+00  0.00000000000E+00  0.14002146360E+03  0.14002146360E+03  0.00000000000E+00 0. -1.
          1   -1    0    0  501    0 -0.00000000000E+00 -0.00000000000E+00 -0.76388358489E+03  0.76388358489E+03  0.00000000000E+00 0. -1.
         25    2    1    2    0    0 -0.24671345974E+02  0.93970475987E+02 -0.15797838279E+03  0.22365414168E+03  0.12499951997E+03 0.  0.
          2    1    1    2  501    0 -0.22916128738E+01 -0.77631730868E+02 -0.56804798915E+03  0.57333276123E+03  0.00000000000E+00 0. -1.
          1    1    1    2  502    0  0.26962958848E+02 -0.16338745119E+02  0.10216425065E+03  0.10691814558E+03  0.00000000000E+00 0. -1.
         22    1    3    3    0    0 -0.14430489770E+02  0.65172211072E+02 -0.17595761001E+03  0.18819334912E+03  0.00000000000E+00 0. -1.
         22    1    3    3    0    0 -0.10240856204E+02  0.28798264915E+02  0.17979227219E+02  0.35460792565E+02  0.00000000000E+00 0. -1.
</event>
<event>
 7    1  0.6219721E-006  0.8197223E+02  0.7818608E-02  0.1358382E+00
          2   -1    0    0  502    0  0.00000000000E+00  0.00000000000E+00  0.59239555900E+02  0.59239555900E+02  0.00000000000E+00 0. -1.
          1   -1    0    0  501    0 -0.00000000000E+00 -0.00000000000E+00 -0.96951687489E+03  0.96951687489E+03  0.00000000000E+00 0. -1.
         25    2    1    2    0    0  0.11097877366E+03  0.17685668315E+02 -0.67864176973E+03  0.69914874229E+03  0.12500096462E+03 0.  0.
          2    1    1    2  501    0 -0.67098302739E+02  0.24172179269E+02 -0.25487419240E+03  0.26466456210E+03  0.00000000000E+00 0. -1.
          1    1    1    2  502    0 -0.43880470919E+02 -0.41857847584E+02  0.23238643135E+02  0.64943126405E+02  0.00000000000E+00 0. -1.
         22    1    3    3    0    0  0.10237714949E+03  0.35899361553E+02 -0.28435568958E+03  0.30434848956E+03  0.00000000000E+00 0.  1.
         22    1    3    3    0    0  0.86016241697E+01 -0.18213693237E+02 -0.39428608014E+03  0.39480025273E+03  0.00000000000E+00 0.  1.
</event>
<event>
 7    1  0.6219721E-006  0.6216080E+02  0.7818608E-02  0.1405909E+00
          2   -1    0    0  502    0  0.00000000000E+00  0.00000000000E+00  0.12474255551E+02  0.12474255551E+02  0.00000000000E+00 0. -1.
          1   -1    0    0  501    0 -0.00000000000E+00 -0.00000000000E+00 -0.46936017851E+04  0.46936017851E+04  0.00000000000E+00 0. -1.
         25    2    1    2    0    0  0.40462477781E+01  0.10877080990E+02 -0.63570544388E+03  0.64798184888E+03  0.12499752832E+03 0.  0.
          2    1    1    2  501    0 -0.47621197917E+02 -0.43336171783E+02 -0.39299445252E+04  0.39304719530E+04  0.00000000000E+00 0. -1.
          1    1    1    2  502    0  0.43574950139E+02  0.32459090793E+02 -0.11547756051E+03  0.12762223880E+03  0.00000000000E+00 0. -1.
         22    1    3    3    0    0 -0.46803279458E+02  0.38527778245E+02 -0.21750818540E+03  0.22579802342E+03  0.00000000000E+00 0. -1.
         22    1    3    3    0    0  0.50849527237E+02 -0.27650697255E+02 -0.41819725848E+03  0.42218382546E+03  0.00000000000E+00 0. -1.
</event>
<event>
 7    1  0.1174294E-005  0.8592152E+02  0.7818608E-02  0.1325113E+00
          2   -1    0    0  502    0  0.00000000000E+00  0.00000000000E+00  0.27027699999E+04  0.27027699999E+04  0.00000000000E+00 0. -1.
          1   -1    0    0  501    0 -0.00000000000E+00 -0.00000000000E+00 -0.83751892244E+03  0.83751892244E+03  0.00000000000E+00 0. -1.
         25    2    1    2    0    0 -0.11410828567E+03  0.99333329023E+02 -0.16417465026E+03  0.25586457900E+03  0.12500222352E+03 0.  0.
          2    1    1    2  501    0  0.73321744107E+02 -0.23918497447E+02 -0.62443460245E+03  0.62917942227E+03  0.00000000000E+00 0. -1.
          1    1    1    2  502    0  0.40786541564E+02 -0.75414831577E+02  0.26538603302E+04  0.26552449211E+04  0.00000000000E+00 0. -1.
         22    1    3    3    0    0 -0.11376583161E+03  0.28002671363E+02 -0.13512386269E+03  0.17884426833E+03  0.00000000000E+00 0.  1.
         22    1    3    3    0    0 -0.34245405678E+00  0.71330657660E+02 -0.29050787573E+02  0.77020310670E+02  0.00000000000E+00 0.  1.
</event>
<event>
 7    1  0.6219721E-006  0.1239730E+03  0.7818608E-02  0.1336382E+00
          2   -1    0    0  502    0  0.00000000000E+00  0.00000000000E+00  0.65121624378E+03  0.65121624378E+03  0.00000000000E+00 0. -1.
          1   -1    0    0  501    0 -0.00000000000E+00 -0.00000000000E+00 -0.81258528538E+03  0.81258528538E+03  0.00000000000E+00 0. -1.
         25    2    1    2    0    0  0.31766654091E+02  0.79091237885E+02  0.19491759264E+03  0.24674526350E+03  0.12500325163E+03 0.  0.
          2    1    1    2  501    0 -0.13998109547E+02 -0.12412583588E+03 -0.78032677426E+03  0.79026137754E+03  0.00000000000E+00 0. -1.
          1    1    1    2  502    0 -0.17768544544E+02  0.45034597991E+02  0.42404014001E+03  0.42679488813E+03  0.00000000000E+00 0. -1.
         22    1    3    3    0    0  0.19964981350E+02  0.10650847436E+03  0.10076295334E+03  0.14797239052E+03  0.00000000000E+00 0.  1.
         22    1    3    3    0    0  0.11801672741E+02 -0.27417236472E+02  0.94154639304E+02  0.98772872985E+02  0.00000000000E+00 0.  1.
</event>
<event>
 7    1  0.6219721E-006  0.1567844E+03  0.7818608E-02  0.1328172E+00
          2   -1    0    0  502    0  0.00000000000E+00  0.00000000000E+00  0.11805080403E+04  0.11805080403E+04  0.00000000000E+00 0. -1.
          1   -1    0    0  501    0 -0.00000000000E+00 -0.00000000000E+00 -0.29032057596E+03  0.29032057596E+03  0.00000000000E+00 0. -1.
         25    2    1    2    0    0  0.14556366298E+03  0.70790883585E+02  0.32757637769E+03  0.38617889128E+03  0.12501089421E+03 0.  0.
          2    1    1    2  501    0  0.80138494394E+01 -0.40349857723E+02 -0.25189522241E+03  0.25523231746E+03  0.00000000000E+00 0. -1.
          1    1    1    2  502    0 -0.15357751242E+03 -0.30441025862E+02  0.81450630909E+03  0.82941740754E+03  0.00000000000E+00 0. -1.
         22    1    3    3    0    0  0.10767709360E+03  0.75205551481E+02  0.12943928356E+03  0.18440379494E+03  0.00000000000E+00 0. -1.
         22    1    3    3    0    0  0.37886569380E+02 -0.44146678968E+01  0.19813709413E+03  0.20177509634E+03  0.00000000000E+00 0. -1.
</event>
<event>
 7    1  0.6219721E-006  0.4836117E+02  0.7818608E-02  0.1488337E+00
          2   -1    0    0  502    0  0.00000000000E+00  0.00000000000E+00  0.16308974096E+04  0.16308974096E+04  0.00000000000E+00 0. -1.
          1   -1    0    0  501    0 -0.00000000000E+00 -0.00000000000E+00 -0.56982034912E+03  0.56982034912E+03  0.00000000000E+00 0. -1.
         25    2    1    2    0    0  0.39299709632E+01 -0.25232658550E+02  0.35752223247E+01  0.12763418400E+03  0.12500228390E+03 0.  0.
          2    1    1    2  501    0 -0.36327678830E+02 -0.10935341144E+02 -0.50670500709E+03  0.50812325881E+03  0.00000000000E+00 0. -1.
          1    1    1    2  502    0  0.32397707867E+02  0.36167999694E+02  0.15642068452E+04  0.15649603159E+04  0.00000000000E+00 0. -1.
         22    1    3    3    0    0 -0.22995762061E+02 -0.94578922376E+01  0.59001438733E+02  0.64026764489E+02  0.00000000000E+00 0.  1.
         22    1    3    3    0    0  0.26925733025E+02 -0.15774766312E+02 -0.55426216408E+02  0.63607419508E+02  0.00000000000E+00 0.  1.
</event>
<event>
 7    1  0.6219721E-006  0.5595057E+02  0.7818608E-02  0.1451139E+00
          2   -1    0    0  502    0  0.00000000000E+00  0.00000000000E+00  0.56570829512E+03  0.56570829512E+03  0.00000000000E+00 0. -1.
          1   -1    0    0  501    0 -0.00000000000E+00 -0.00000000000E+00 -0.49072810794E+03  0.49072810794E+03  0.00000000000E+00 0. -1.
         25    2    1    2    0    0  0.29372076144E+02  0.63474429289E+02  0.14899364821E+03  0.20667736087E+03  0.12499880903E+03 0.  0.
          2    1    1    2  501    0 -0.41859821231E+02 -0.89664761007E+01 -0.45886924919E+03  0.46086183415E+03  0.00000000000E+00 0. -1.
          1    1    1    2  502    0  0.12487745088E+02 -0.54507953188E+02  0.38485578817E+03  0.38889720804E+03  0.00000000000E+00 0. -1.
         22    1    3    3    0    0  0.44808978721E+02  0.62727279511E+02  0.16640663809E+03  0.18339499822E+03  0.00000000000E+00 0.  1.
         22    1    3    3    0    0 -0.15436902577E+02  0.74714977736E+00 -0.17412989884E+02  0.23282362652E+02  0.00000000000E+00 0.  1.
</event>
<event>
 7    1  0.6219721E-006  0.7993388E+02  0.7818608E-02  0.1457069E+00
          2   -1    0    0  502    0  0.00000000000E+00  0.00000000000E+00  0.19504694420E+04  0.19504694420E+04  0.00000000000E+00 0. -1.
          1   -1    0    0  501    0 -0.00000000000E+00 -0.00000000000E+00 -0.25400000832E+04  0.25400000832E+04  0.00000000000E+00 0. -1.
         25    2    1    2    0    0 -0.82141968104E+02 -0.68753650079E+02 -0.44574527752E+03  0.47517139166E+03  0.12499852680E+03 0.  0.
          2    1    1    2  501    0  0.61762922539E+02  0.48557414013E+02 -0.20786933075E+04  0.20801774798E+04  0.00000000000E+00 0. -1.
          1    1    1    2  502    0  0.20379045565E+02  0.20196236065E+02  0.19349079438E+04  0.19351206537E+04  0.00000000000E+00 0. -1.
         22    1    3    3    0    0  0.33419311166E+00 -0.81183667317E+02 -0.22406996477E+03  0.23832383144E+03  0.00000000000E+00 0. -1.
         22    1    3    3    0    0 -0.82476161216E+02  0.12430017238E+02 -0.22167531275E+03  0.23684756022E+03  0.00000000000E+00 0. -1.
</event>
<event>
 7    1  0.6219721E-006  0.1344011E+03  0.7818608E-02  0.1344643E+00
          2   -1    0    0  502    0  0.00000000000E+00  0.00000000000E+00  0.28161202970E+04  0.28161202970E+04  0.00000000000E+00 0. -1.
          1   -1    0    0  501    0 -0.00000000000E+00 -0.00000000000E+00 -0.81393476337E+03  0.81393476337E+03  0.00000000000E+00 0. -1.
         25    2    1    2    0    0 -0.66175839671E+02 -0.14736332590E+03  0.94086326131E+03  0.96277888179E+03  0.12499722855E+03 0.  0.
          2    1    1    2  501    0 -0.72298625866E+01  0.40941597464E+02 -0.80019532603E+03  0.80127463776E+03  0.00000000000E+00 0. -1.
          1    1    1    2  502    0  0.73405702258E+02  0.10642172844E+03  0.18615175984E+04  0.18660015408E+04  0.00000000000E+00 0. -1.
         22    1    3    3    0    0 -0.98159339938E+02 -0.11368529444E+03  0.81262150162E+03  0.82638568906E+03  0.00000000000E+00 0. -1.
         22    1    3    3    0    0  0.31983500266E+02 -0.33678031462E+02  0.12824175969E+03  0.13639319273E+03  0.00000000000E+00 0. -1.
</event>
<event>
 7    1  0.6219721E-006  0.3434749E+02  0.7818608E-02  0.1573711E+00
          2   -1    0    0  502    0  0.00000000000E+00  0.00000000000E+00  0.11554127864E+04  0.11554127864E+04  0.00000000000E+00 0. -1.
          1   -1    0    0  501    0 -0.00000000000E+00 -0.00000000000E+00 -0.54075315145E+03  0.54075315145E+03  0.00000000000E+00 0. -1.
         25    2    1    2    0    0 -0.39283497126E+02 -0.18679972161E+02 -0.21518347389E+02  0.13409368683E+03  0.12500377221E+03 0.  0.
          2    1    1    2  501    0  0.27262001343E+02 -0.13506348661E+02 -0.46217835672E+03  0.46317866056E+03  0.00000000000E+00 0. -1.
          1    1    1    2  502    0  0.12021495783E+02  0.32186320822E+02  0.10983563391E+04  0.10988935905E+04  0.00000000000E+00 0. -1.
         22    1    3    3    0    0  0.43721940399E+02 -0.20667138307E+02 -0.15765493966E+02  0.50865405513E+02  0.00000000000E+00 0. -1.
         22    1    3    3    0    0 -0.83005437525E+02  0.19871661454E+01 -0.57528534230E+01  0.83228281314E+02  0.00000000000E+00 0. -1.
</event>
<event>
 7    1  0.6219721E-006  0.8182453E+02  0.7818608E-02  0.1464808E+00
          2   -1    0    0  502    0  0.00000000000E+00  0.00000000000E+00  0.35325264369E+02  0.35325264369E+02  0.00000000000E+00 0. -1.
          1   -1    0    0  501    0 -0.00000000000E+00 -0.00000000000E+00 -0.14633170959E+04  0.14633170959E+04  0.00000000000E+00 0. -1.
         25    2    1    2    0    0  0.91617026201E+02 -0.49776607255E+02 -0.60106782897E+03  0.62271435354E+03  0.12497696172E+03 0.  0.
          2    1    1    2  501    0 -0.18230251068E+02  0.19230534146E+02 -0.78613893010E+03  0.78658538819E+03  0.00000000000E+00 0. -1.
          1    1    1    2  502    0 -0.73386775133E+02  0.30546073108E+02 -0.40785072411E+02  0.89342618488E+02  0.00000000000E+00 0. -1.
         22    1    3    3    0    0  0.83954894325E+02 -0.64091727965E+02 -0.59659512620E+03  0.60587285669E+03  0.00000000000E+00 0.  1.
         22    1    3    3    0    0  0.76621318762E+01  0.14315120710E+02 -0.44727027702E+01  0.16841496843E+02  0.00000000000E+00 0.  1.
</event>
<event>
 7    1  0.6219721E-006  0.3701310E+02  0.7818608E-02  0.1628186E+00
          2   -1    0    0  502    0  0.00000000000E+00  0.00000000000E+00  0.47056766620E+03  0.47056766620E+03  0.00000000000E+00 0. -1.
          1   -1    0    0  501    0 -0.00000000000E+00 -0.00000000000E+00 -0.22798159847E+03  0.22798159847E+03  0.00000000000E+00 0. -1.
         25    2    1    2    0    0  0.10421102815E+02 -0.39429307160E+02  0.33304214118E+02  0.13563646600E+03  0.12499924233E+03 0.  0.
          2    1    1    2  501    0  0.95990011847E+01  0.35782596213E+02 -0.17460238783E+03  0.17848957631E+03  0.00000000000E+00 0. -1.
          1    1    1    2  502    0 -0.20020104000E+02  0.36467109472E+01  0.38388424144E+03  0.38442322236E+03  0.00000000000E+00 0. -1.
         22    1    3    3    0    0 -0.29486961367E+02  0.19178922993E+02 -0.25559983092E+02  0.43481314533E+02  0.00000000000E+00 0. -1.
         22    1    3    3    0    0  0.39908064182E+02 -0.58608230154E+02  0.58864197210E+02  0.92155151465E+02  0.00000000000E+00 0. -1.
</event>
<event>
 7    1  0.6219721E-006  0.1260595E+03  0.7818608E-02  0.1315855E+00
          2   -1    0    0  502    0  0.00000000000E+00  0.00000000000E+00  0.16967393097E+04  0.16967393097E+04  0.00000000000E+00 0. -1.
          1   -1    0    0  501    0 -0.00000000000E+00 -0.00000000000E+00 -0.64530451684E+03  0.64530451684E+03  0.00000000000E+00 0. -1.
         25    2    1    2    0    0  0.65883628077E+02  0.33676535110E+02  0.59728142037E+02  0.15704752310E+03  0.12498684769E+03 0.  0.
          2    1    1    2  501    0 -0.12228457021E+03 -0.42564734878E+02 -0.58909853752E+03  0.60316031009E+03  0.00000000000E+00 0. -1.
          1    1    1    2  502    0  0.56400942130E+02  0.88881997677E+01  0.15808051883E+04  0.15818359933E+04  0.00000000000E+00 0. -1.
         22    1    3    3    0    0  0.41329172419E+02  0.44438385262E+01  0.95859406916E+02  0.10448384606E+03  0.00000000000E+00 0.  1.
         22    1    3    3    0    0  0.24554455657E+02  0.29232696584E+02 -0.36131264878E+02  0.52563677039E+02  0.00000000000E+00 0.  1.
</event>
<event>
 7    1  0.6219721E-006  0.1030040E+03  0.7818608E-02  0.1279314E+00
          2   -1    0    0  502    0  0.00000000000E+00  0.00000000000E+00  0.14998471891E+04  0.14998471891E+04  0.00000000000E+00 0. -1.
          1   -1    0    0  501    0 -0.00000000000E+00 -0.00000000000E+00 -0.36135372400E+03  0.36135372400E+03  0.00000000000E+00 0. -1.
         25    2    1    2    0    0  0.23573691629E+01  0.14305969215E+03  0.38049289493E+03  0.42528212581E+03  0.12497364016E+03 0.  0.
          2    1    1    2  501    0  0.69267208498E+02 -0.76178965943E+02 -0.32888461301E+03  0.34462482456E+03  0.00000000000E+00 0. -1.
          1    1    1    2  502    0 -0.71624577661E+02 -0.66880726204E+02  0.10868851831E+04  0.10912939627E+04  0.00000000000E+00 0. -1.
         22    1    3    3    0    0 -0.54646989125E+02  0.32352427318E+02  0.10101504945E+03  0.11931895570E+03  0.00000000000E+00 0.  1.
         22    1    3    3    0    0  0.57004358288E+02  0.11070726483E+03  0.27947784548E+03  0.30596317011E+03  0.00000000000E+00 0.  1.
</event>
<event>
 7    1  0.6219721E-006  0.1118403E+03  0.7818608E-02  0.1284014E+00
          2   -1    0    0  502    0  0.00000000000E+00  0.00000000000E+00  0.93276907644E+03  0.93276907644E+03  0.00000000000E+00 0. -1.
          1   -1    0    0  501    0 -0.00000000000E+00 -0.00000000000E+00 -0.52981958568E+03  0.52981958568E+03  0.00000000000E+00 0. -1.
         25    2    1    2    0    0  0.14494880154E+02  0.66902703620E+02  0.24869648681E+02  0.14467286959E+03  0.12500266584E+03 0.  0.
          2    1    1    2  501    0  0.85901439194E+02 -0.84475407740E+01 -0.46192252913E+03  0.46991790891E+03  0.00000000000E+00 0. -1.
          1    1    1    2  502    0 -0.10039631935E+03 -0.58455162846E+02  0.84000237120E+03  0.84799788362E+03  0.00000000000E+00 0. -1.
         22    1    3    3    0    0 -0.44923961593E+02  0.60777869694E+01 -0.18807985808E+02  0.49079956701E+02  0.00000000000E+00 0. -1.
         22    1    3    3    0    0  0.59418841747E+02  0.60824916650E+02  0.43677634489E+02  0.95592912889E+02  0.00000000000E+00 0. -1.
</event>
<event>
 7    1  0.6219721E-006  0.1944964E+03  0.7818608E-02  0.1241685E+00
          2   -1    0    0  502    0  0.00000000000E+00  0.00000000000E+00  0.14702218861E+04  0.14702218861E+04  0.00000000000E+00 0. -1.
          1   -1    0    0  501    0 -0.00000000000E+00 -0.00000000000E+00 -0.11923850300E+04  0.11923850300E+04  0.00000000000E+00 0. -1.
         25    2    1    2    0    0 -0.96703447896E+02 -0.14713204509E+03  0.60771879945E+03  0.64493887413E+03  0.12499846651E+03 0.  0.
          2    1    1    2  501    0  0.36129445720E+02  0.19153040240E+03 -0.11639849417E+04  0.11801907373E+04  0.00000000000E+00 0. -1.
          1    1    1    2  502    0  0.60574002176E+02 -0.44398357313E+02  0.83410299842E+03  0.83747730467E+03  0.00000000000E+00 0. -1.
         22    1    3    3    0    0 -0.11575154338E+03 -0.11146390248E+03  0.36405929992E+03  0.39794697537E+03  0.00000000000E+00 0.  1.
         22    1    3    3    0    0  0.19048095484E+02 -0.35668142601E+02  0.24365949953E+03  0.24699189876E+03  0.00000000000E+00 0.  1.
</event>
<event>
 7    1  0.6219721E-006  0.9207064E+02  0.7818608E-02  0.1350797E+00
          2   -1    0    0  502    0  0.00000000000E+00  0.00000000000E+00  0.66942115408E+02  0.66942115408E+02  0.00000000000E+00 0. -1.
          1   -1    0    0  501    0 -0.00000000000E+00 -0.00000000000E+00 -0.10929793666E+04  0.10929793666E+04  0.00000000000E+00 0. -1.
         25    2    1    2    0    0 -0.76313845110E+02 -0.63178414976E+00 -0.20003471120E+03  0.24793495381E+03  0.12503460932E+03 0.  0.
          2    1    1    2  501    0 -0.52075261306E+01  0.57339198844E+02 -0.80922945406E+03  0.81127505285E+03  0.00000000000E+00 0. -1.
          1    1    1    2  502    0  0.81521371241E+02 -0.56707414694E+02 -0.16773085899E+02  0.10071147532E+03  0.00000000000E+00 0. -1.
         22    1    3    3    0    0 -0.94214870769E+02  0.37131113037E+02 -0.16403644916E+03  0.19277737960E+03  0.00000000000E+00 0.  1.
         22    1    3    3    0    0  0.17901025659E+02 -0.37762897186E+02 -0.35998262036E+02  0.55157574214E+02  0.00000000000E+00 0.  1.
</event>
<event>
 7    1  0.6219721E-006  0.1540372E+03  0.7818608E-02  0.1273121E+00
          2   -1    0    0  502    0  0.00000000000E+00  0.00000000000E+00  0.48304253774E+03  0.48304253774E+03  0.00000000000E+00 0. -1.
          1   -1    0    0  501    0 -0.00000000000E+00 -0.00000000000E+00 -0.11034450582E+04  0.11034450582E+04  0.00000000000E+00 0. -1.
         25    2    1    2    0    0 -0.18468432900E+03 -0.11481906851E+03 -0.33002062832E+03  0.41452449907E+03  0.12500090135E+03 0.  0.
          2    1    1    2  501    0  0.46613431040E+02  0.51593140851E+02 -0.71635968655E+03  0.71972624286E+03  0.00000000000E+00 0. -1.
          1    1    1    2  502    0  0.13807089796E+03  0.63225927657E+02  0.42597779442E+03  0.45223685401E+03  0.00000000000E+00 0. -1.
         22    1    3    3    0    0 -0.16137902163E+03 -0.35457228968E+02 -0.24829897134E+03  0.29824953123E+03  0.00000000000E+00 0.  1.
         22    1    3    3    0    0 -0.23305307378E+02 -0.79361839539E+02 -0.81721656974E+02  0.11627496784E+03  0.00000000000E+00 0.  1.
</event>
<event>
 7    1  0.6219721E-006  0.9819498E+02  0.7818608E-02  0.1336292E+00
          2   -1    0    0  502    0  0.00000000000E+00  0.00000000000E+00  0.10617840677E+04  0.10617840677E+04  0.00000000000E+00 0. -1.
          1   -1    0    0  501    0 -0.00000000000E+00 -0.00000000000E+00 -0.15799998672E+03  0.15799998672E+03  0.00000000000E+00 0. -1.
         25    2    1    2    0    0 -0.11610427310E+03  0.29507035810E+02  0.27420383068E+03  0.32428436638E+03  0.12498696783E+03 0.  0.
          2    1    1    2  501    0  0.47066842980E+02  0.39071297335E+02 -0.12262008736E+03  0.13703116364E+03  0.00000000000E+00 0. -1.
          1    1    1    2  502    0  0.69037430123E+02 -0.68578333145E+02  0.75220033763E+03  0.75846852437E+03  0.00000000000E+00 0. -1.
         22    1    3    3    0    0 -0.65620097799E+02 -0.31863120018E+02  0.20940633292E+03  0.22174820838E+03  0.00000000000E+00 0.  1.
         22    1    3    3    0    0 -0.50484175304E+02  0.61370155828E+02  0.64797497754E+02  0.10253615800E+03  0.00000000000E+00 0.  1.
</event>
<event>
 7    1  0.6219721E-006  0.1483264E+03  0.7818608E-02  0.1245241E+00
          2   -1    0    0  502    0  0.00000000000E+00  0.00000000000E+00  0.14300116985E+04  0.14300116985E+04  0.00000000000E+00 0. -1.
          1   -1    0    0  501    0 -0.00000000000E+00 -0.00000000000E+00 -0.58526195901E+03  0.58526195901E+03  0.00000000000E+00 0. -1.
         25    2    1    2    0    0 -0.26811708681E+02  0.22783704520E+03 -0.12997014165E+03  0.29179836419E+03  0.12500184293E+03 0.  0.
          2    1    1    2  501    0  0.29175548614E+02 -0.13285999403E+03 -0.36027773374E+03  0.38510133222E+03  0.00000000000E+00 0. -1.
          1    1    1    2  502    0 -0.23638399329E+01 -0.94977051175E+02  0.13349976148E+04  0.13383739611E+04  0.00000000000E+00 0. -1.
         22    1    3    3    0    0  0.36820226683E+02  0.17410473866E+03 -0.90009904231E+02  0.19942410079E+03  0.00000000000E+00 0.  1.
         22    1    3    3    0    0 -0.63631935364E+02  0.53732306541E+02 -0.39960237422E+02  0.92374263403E+02  0.00000000000E+00 0.  1.
</event>
<event>
 7    1  0.6219721E-006  0.3261122E+02  0.7818608E-02  0.1615258E+00
          2   -1    0    0  502    0  0.00000000000E+00  0.00000000000E+00  0.25183135163E+03  0.25183135163E+03  0.00000000000E+00 0. -1.
          1   -1    0    0  501    0 -0.00000000000E+00 -0.00000000000E+00 -0.12873509032E+04  0.12873509032E+04  0.00000000000E+00 0. -1.
         25    2    1    2    0    0  0.62975943747E+01 -0.82575127470E+01 -0.19508991415E+03  0.23193209816E+03  0.12499830936E+03 0.  0.
          2    1    1    2  501    0  0.24842039270E+02 -0.18557675107E+01 -0.10725464108E+04  0.10728356697E+04  0.00000000000E+00 0. -1.
          1    1    1    2  502    0 -0.31139633645E+02  0.10113280258E+02  0.23211677339E+03  0.23441448699E+03  0.00000000000E+00 0. -1.
         22    1    3    3    0    0 -0.39213184170E+02  0.28384675665E+02 -0.30345361707E+02  0.57133218030E+02  0.00000000000E+00 0.  1.
         22    1    3    3    0    0  0.45510778544E+02 -0.36642188412E+02 -0.16474455244E+03  0.17479888013E+03  0.00000000000E+00 0.  1.
</event>
<event>
 7    1  0.6219721E-006  0.1981693E+03  0.7818608E-02  0.1169086E+00
          2   -1    0    0  502    0  0.00000000000E+00  0.00000000000E+00  0.22420286570E+03  0.22420286570E+03  0.00000000000E+00 0. -1.
          1   -1    0    0  501    0 -0.00000000000E+00 -0.00000000000E+00 -0.12457196549E+04  0.12457196549E+04  0.00000000000E+00 0. -1.
         25    2    1    2    0    0  0.87438856858E+02 -0.14289143364E+02 -0.68447100771E+02  0.16780939892E+03  0.12500102181E+03 0.  0.
          2    1    1    2  501    0 -0.16764024398E+03  0.15401685711E+03 -0.10757743555E+04  0.10995976117E+04  0.00000000000E+00 0. -1.
          1    1    1    2  502    0  0.80201387125E+02 -0.13972771374E+03  0.12270466705E+03  0.20251551002E+03  0.00000000000E+00 0. -1.
         22    1    3    3    0    0  0.67341395547E+02 -0.45438077988E+02 -0.92893494997E+02  0.12340455380E+03  0.00000000000E+00 0. -1.
         22    1    3    3    0    0  0.20097461311E+02  0.31148934624E+02  0.24446394226E+02  0.44404845118E+02  0.00000000000E+00 0. -1.
</event>
<event>
 7    1  0.6219721E-006  0.3657860E+02  0.7818608E-02  0.1563144E+00
          2   -1    0    0  502    0  0.00000000000E+00  0.00000000000E+00  0.66102099020E+03  0.66102099020E+03  0.00000000000E+00 0. -1.
          1   -1    0    0  501    0 -0.00000000000E+00 -0.00000000000E+00 -0.11882434802E+03  0.11882434802E+03  0.00000000000E+00 0. -1.
         25    2    1    2    0    0 -0.29356734324E+02  0.49258807837E+02  0.13628073321E+03  0.19360943280E+03  0.12499570483E+03 0.  0.
          2    1    1    2  501    0  0.17571366272E+01 -0.36219121620E+02 -0.86021648091E+02  0.93352216044E+02  0.00000000000E+00 0. -1.
          1    1    1    2  502    0  0.27599597697E+02 -0.13039686216E+02  0.49193755706E+03  0.49288368938E+03  0.00000000000E+00 0. -1.
         22    1    3    3    0    0 -0.32948645671E+02 -0.34850751992E+02  0.25039122008E+02  0.54103103394E+02  0.00000000000E+00 0. -1.
         22    1    3    3    0    0  0.35919113470E+01  0.84109559828E+02  0.11124161120E+03  0.13950632940E+03  0.00000000000E+00 0. -1.
</event>
<event>
 7    1  0.6219721E-006  0.1425295E+03  0.7818608E-02  0.1391205E+00
          2   -1    0    0  502    0  0.00000000000E+00  0.00000000000E+00  0.10867061158E+04  0.10867061158E+04  0.00000000000E+00 0. -1.
          1   -1    0    0  501    0 -0.00000000000E+00 -0.00000000000E+00 -0.89509181739E+02  0.89509181739E+02  0.00000000000E+00 0. -1.
         25    2    1    2    0    0  0.12375151903E+03 -0.51184505838E+02  0.28770762781E+03  0.34107973738E+03  0.12500166418E+03 0.  0.
          2    1    1    2  501    0 -0.14179135146E+03  0.31595955599E+02  0.21758640068E+02  0.14688951690E+03  0.00000000000E+00 0. -1.
          1    1    1    2  502    0  0.18039832432E+02  0.19588550239E+02  0.68773066620E+03  0.68824604327E+03  0.00000000000E+00 0. -1.
         22    1    3    3    0    0  0.33959720223E+02 -0.20009271940E+02  0.14373956623E+01  0.39442358797E+02  0.00000000000E+00 0. -1.
         22    1    3    3    0    0  0.89791798804E+02 -0.31175233898E+02  0.28627023215E+03  0.30163737858E+03  0.00000000000E+00 0. -1.
</event>
<event>
 7    1  0.6219721E-006  0.6543402E+02  0.7818608E-02  0.1421244E+00
          2   -1    0    0  502    0  0.00000000000E+00  0.00000000000E+00  0.36603955104E+03  0.36603955104E+03  0.00000000000E+00 0. -1.
          1   -1    0    0  501    0 -0.00000000000E+00 -0.00000000000E+00 -0.14221838459E+04  0.14221838459E+04  0.00000000000E+00 0. -1.
         25    2    1    2    0    0  0.27557105094E+02  0.11447891243E+01 -0.96536684295E+02  0.16032874410E+03  0.12500108074E+03 0.  0.
          2    1    1    2  501    0  0.26847415396E+02  0.37136722284E+02 -0.12900293250E+04  0.12908429723E+04  0.00000000000E+00 0. -1.
          1    1    1    2  502    0 -0.54404520490E+02 -0.38281511408E+02  0.33042171443E+03  0.33705168051E+03  0.00000000000E+00 0. -1.
         22    1    3    3    0    0  0.48042361049E+02  0.53424122271E+02 -0.53210474003E+02  0.89406710258E+02  0.00000000000E+00 0. -1.
         22    1    3    3    0    0 -0.20485255956E+02 -0.52279333147E+02 -0.43326210292E+02  0.70922033840E+02  0.00000000000E+00 0. -1.
</event>
<event>
 7    1  0.6219721E-006  0.1445933E+03  0.7818608E-02  0.1356395E+00
          2   -1    0    0  502    0  0.00000000000E+00  0.00000000000E+00  0.20081210988E+03  0.20081210988E+03  0.00000000000E+00 0. -1.
          1   -1    0    0  501    0 -0.00000000000E+00 -0.00000000000E+00 -0.43919827172E+03  0.43919827172E+03  0.00000000000E+00 0. -1.
         25    2    1    2    0    0 -0.51515619473E+02 -0.16177166700E+03 -0.92363591124E+02  0.23017002431E+03  0.12499310314E+03 0.  0.
          2    1    1    2  501    0  0.23858953106E+02  0.25553819429E+02 -0.23969138192E+03  0.24222759111E+03  0.00000000000E+00 0. -1.
          1    1    1    2  502    0  0.27656666367E+02  0.13621784757E+03  0.93668811199E+02  0.16761276617E+03  0.00000000000E+00 0. -1.
         22    1    3    3    0    0  0.41030245841E+02 -0.63130398464E+02 -0.38690179740E+02  0.84651392737E+02  0.00000000000E+00 0. -1.
         22    1    3    3    0    0 -0.92545865314E+02 -0.98641268539E+02 -0.53673411384E+02  0.14551863157E+03  0.00000000000E+00 0. -1.
</event>
<event>
 7    1  0.6219721E-006  0.9048370E+02  0.7818608E-02  0.1442889E+00
          2   -1    0    0  502    0  0.00000000000E+00  0.00000000000E+00  0.24894561617E+04  0.24894561617E+04  0.00000000000E+00 0. -1.
          1   -1    0    0  501    0 -0.00000000000E+00 -0.00000000000E+00 -0.20633772592E+02  0.20633772592E+02  0.00000000000E+00 0. -1.
         25    2    1    2    0    0 -0.28463984352E+02  0.80101686327E+02  0.15356549260E+04  0.15430772383E+04  0.12499933270E+03 0.  0.
          2    1    1    2  501    0  0.26084982652E+01 -0.91201463287E+02  0.10806408120E+03  0.14142968859E+03  0.00000000000E+00 0. -1.
          1    1    1    2  502    0  0.25855486087E+02  0.11099776961E+02  0.82510338192E+03  0.82558300737E+03  0.00000000000E+00 0. -1.
         22    1    3    3    0    0 -0.37051262147E+02  0.71135304688E+02  0.43380368446E+03  0.44115605431E+03  0.00000000000E+00 0.  1.
         22    1    3    3    0    0  0.85872777949E+01  0.89663816390E+01  0.11018512415E+04  0.11019211840E+04  0.00000000000E+00 0.  1.
</event>
<event>
 7    1  0.6219721E-006  0.5684187E+02  0.7818608E-02  0.1443924E+00
          2   -1    0    0  502    0  0.00000000000E+00  0.00000000000E+00  0.70712712259E+03  0.70712712259E+03  0.00000000000E+00 0. -1.
          1   -1    0    0  501    0 -0.00000000000E+00 -0.00000000000E+00 -0.10808718035E+03  0.10808718035E+03  0.00000000000E+00 0. -1.
         25    2    1    2    0    0 -0.16452121655E+02 -0.44048677350E+02  0.44332481391E+02  0.14072086835E+03  0.12500414233E+03 0.  0.
          2    1    1    2  501    0  0.55939118366E+02  0.23644936743E+02 -0.43458318236E+02  0.74678600824E+02  0.00000000000E+00 0. -1.
          1    1    1    2  502    0 -0.39486996710E+02  0.20403740607E+02  0.59816577909E+03  0.59981483377E+03  0.00000000000E+00 0. -1.
         22    1    3    3    0    0 -0.12471922809E+02 -0.82718699277E+02  0.55359875501E+02  0.10031275036E+03  0.00000000000E+00 0. -1.
         22    1    3    3    0    0 -0.39801988462E+01  0.38670021927E+02 -0.11027394110E+02  0.40408117991E+02  0.00000000000E+00 0. -1.
</event>
<event>
 7    1  0.6219721E-006  0.1659909E+03  0.7818608E-02  0.1375233E+00
          2   -1    0    0  502    0  0.00000000000E+00  0.00000000000E+00  0.52411081861E+03  0.52411081861E+03  0.00000000000E+00 0. -1.
          1   -1    0    0  501    0 -0.00000000000E+00 -0.00000000000E+00 -0.51443928549E+03  0.51443928549E+03  0.00000000000E+00 0. -1.
         25    2    1    2    0    0  0.12570512042E+03 -0.77265267891E+02  0.71559156030E+01  0.19352263281E+03  0.12501241282E+03 0.  0.
          2    1    1    2  501    0  0.25972362595E+02  0.17467761764E+01 -0.40388350000E+03  0.40472150476E+03  0.00000000000E+00 0. -1.
          1    1    1    2  502    0 -0.15167748302E+03  0.75518491714E+02  0.40639911752E+03  0.44030596653E+03  0.00000000000E+00 0. -1.
         22    1    3    3    0    0  0.72094132529E+02  0.17042826197E+02 -0.28437015357E+02  0.79351658535E+02  0.00000000000E+00 0. -1.
         22    1    3    3    0    0  0.53610987895E+02 -0.94308094087E+02  0.35592930960E+02  0.11417097428E+03  0.00000000000E+00 0. -1.
</event>
<event>
 7    1  0.6219721E-006  0.7263227E+02  0.7818608E-02  0.1370565E+00
          2   -1    0    0  502    0  0.00000000000E+00  0.00000000000E+00  0.79020574423E+03  0.79020574423E+03  0.00000000000E+00 0. -1.
          1   -1    0    0  501    0 -0.00000000000E+00 -0.00000000000E+00 -0.39771919383E+03  0.39771919383E+03  0.00000000000E+00 0. -1.
         25    2    1    2    0    0 -0.31627999020E+02 -0.12694468597E+03  0.20124251161E+03  0.27062636383E+03  0.12499918682E+03 0.  0.
          2    1    1    2  501    0  0.15748523894E+02  0.59784336896E+02 -0.35822088515E+03  0.36351669219E+03  0.00000000000E+00 0. -1.
          1    1    1    2  502    0  0.15879475126E+02  0.67160349072E+02  0.54946492395E+03  0.55378188203E+03  0.00000000000E+00 0. -1.
         22    1    3    3    0    0 -0.75490836019E+01  0.21704686155E+02  0.54418629861E+01  0.23615586740E+02  0.00000000000E+00 0.  1.
         22    1    3    3    0    0 -0.24078915418E+02 -0.14864937212E+03  0.19580064862E+03  0.24701077709E+03  0.00000000000E+00 0.  1.
</event>
<event>
 7    1  0.6219721E-006  0.8847853E+02  0.7818608E-02  0.1345951E+00
          2   -1    0    0  502    0  0.00000000000E+00  0.00000000000E+00  0.84750652417E+03  0.84750652417E+03  0.00000000000E+00 0. -1.
          1   -1    0    0  501    0 -0.00000000000E+00 -0.00000000000E+00 -0.35209879692E+02  0.35209879692E+02  0.00000000000E+00 0. -1.
         25    2    1    2    0    0  0.18796848600E+02 -0.99021894321E+02  0.39492884599E+03  0.42632756179E+03  0.12501095742E+03 0.  0.
          2    1    1    2  501    0 -0.67076976787E+02  0.59414206962E+02  0.10590427361E+03  0.13872665199E+03  0.00000000000E+00 0. -1.
          1    1    1    2  502    0  0.48280128187E+02  0.39607687360E+02  0.31146352488E+03  0.31766219008E+03  0.00000000000E+00 0. -1.
         22    1    3    3    0    0 -0.26153172536E+01  0.25015152204E+02  0.13740599983E+03  0.13968896346E+03  0.00000000000E+00 0. -1.
         22    1    3    3    0    0  0.21412165854E+02 -0.12403704652E+03  0.25752284616E+03  0.28663859832E+03  0.00000000000E+00 0. -1.
</event>
<event>
 7    1  0.6219721E-006  0.1246080E+03  0.7818608E-02  0.1309517E+00
          2   -1    0    0  502    0  0.00000000000E+00  0.00000000000E+00  0.28121126213E+03  0.28121126213E+03  0.00000000000E+00 0. -1.
          1   -1    0    0  501    0 -0.00000000000E+00 -0.00000000000E+00 -0.15148631886E+04  0.15148631886E+04  0.00000000000E+00 0. -1.
         25    2    1    2    0    0 -0.11069522076E+03  0.10644022027E+03 -0.25370605613E+03  0.32183091487E+03  0.12500168984E+03 0.  0.
          2    1    1    2  501    0 -0.42873083165E+01 -0.61016127706E+02 -0.12108136107E+04  0.12123575993E+04  0.00000000000E+00 0. -1.
          1    1    1    2  502    0  0.11498252908E+03 -0.45424092562E+02  0.23086774038E+03  0.26188593648E+03  0.00000000000E+00 0. -1.
         22    1    3    3    0    0 -0.96881823851E+02  0.19921510606E+02 -0.79744359484E+02  0.12705163221E+03  0.00000000000E+00 0.  1.
         22    1    3    3    0    0 -0.13813396909E+02  0.86518709662E+02 -0.17396169664E+03  0.19477928266E+03  0.00000000000E+00 0.  1.
</event>
<event>
 7    1  0.6219721E-006  0.4954365E+02  0.7818608E-02  0.1579064E+00
          2   -1    0    0  502    0  0.00000000000E+00  0.00000000000E+00  0.36303026912E+03  0.36303026912E+03  0.00000000000E+00 0. -1.
          1   -1    0    0  501    0 -0.00000000000E+00 -0.00000000000E+00 -0.14831000372E+03  0.14831000372E+03  0.00000000000E+00 0. -1.
         25    2    1    2    0    0  0.41998898264E+02  0.49837692029E+02  0.12961141198E+02  0.14156477790E+03  0.12499956863E+03 0.  0.
          2    1    1    2  501    0 -0.37900874329E+02 -0.29849967189E+02 -0.76677586513E+02  0.90592213184E+02  0.00000000000E+00 0. -1.
          1    1    1    2  502    0 -0.40980239341E+01 -0.19987724841E+02  0.27843671071E+03  0.27918328176E+03  0.00000000000E+00 0. -1.
         22    1    3    3    0    0  0.27395961647E+02 -0.40579804343E+02 -0.67276930762E+00  0.48966435991E+02  0.00000000000E+00 0. -1.
         22    1    3    3    0    0  0.14602936616E+02  0.90417496373E+02  0.13633910505E+02  0.92598341906E+02  0.00000000000E+00 0. -1.
</event>
<event>
 7    1  0.6219721E-006  0.2173141E+03  0.7818608E-02  0.1280663E+00
          2   -1    0    0  502    0  0.00000000000E+00  0.00000000000E+00  0.61159778375E+03  0.61159778375E+03  0.00000000000E+00 0. -1.
          1   -1    0    0  501    0 -0.00000000000E+00 -0.00000000000E+00 -0.14166834394E+04  0.14166834394E+04  0.00000000000E+00 0. -1.
         25    2    1    2    0    0  0.20542861563E+03 -0.95170017569E+02  0.36455470681E+03  0.44697066921E+03  0.12499758602E+03 0.  0.
          2    1    1    2  501    0 -0.21145307397E+03  0.49711402000E+02 -0.13642177125E+04  0.13814027628E+04  0.00000000000E+00 0. -1.
          1    1    1    2  502    0  0.60244583357E+01  0.45458615570E+02  0.19457735002E+03  0.19990779117E+03  0.00000000000E+00 0. -1.
         22    1    3    3    0    0  0.17514502804E+03 -0.10902277742E+03  0.35776178320E+03  0.41298334151E+03  0.00000000000E+00 0. -1.
         22    1    3    3    0    0  0.30283587589E+02  0.13852759855E+02  0.67929236074E+01  0.33987327697E+02  0.00000000000E+00 0. -1.
</event>
<event>
 7    1  0.6219721E-006  0.5435055E+02  0.7818608E-02  0.1423942E+00
          2   -1    0    0  502    0  0.00000000000E+00  0.00000000000E+00  0.42838772547E+03  0.42838772547E+03  0.00000000000E+00 0. -1.
          1   -1    0    0  501    0 -0.00000000000E+00 -0.00000000000E+00 -0.41986507914E+02  0.41986507914E+02  0.00000000000E+00 0. -1.
         25    2    1    2    0    0  0.12710930841E+02 -0.26412529416E+01  0.17368608142E+03  0.21439066693E+03  0.12501183627E+03 0.  0.
          2    1    1    2  501    0  0.46058571446E+02 -0.28267279392E+02  0.30516202890E+02  0.62061821813E+02  0.00000000000E+00 0. -1.
          1    1    1    2  502    0 -0.58769502287E+02  0.30908532334E+02  0.18219893324E+03  0.19392174464E+03  0.00000000000E+00 0. -1.
         22    1    3    3    0    0  0.18389302054E+02  0.37263076621E+02  0.60677351037E+01  0.41994293881E+02  0.00000000000E+00 0. -1.
         22    1    3    3    0    0 -0.56783712127E+01 -0.39904329563E+02  0.16761834632E+03  0.17239637305E+03  0.00000000000E+00 0. -1.
</event>
<event>
 7    1  0.6219721E-006  0.1348778E+03  0.7818608E-02  0.1306077E+00
          2   -1    0    0  502    0  0.00000000000E+00  0.00000000000E+00  0.22856754857E+03  0.22856754857E+03  0.00000000000E+00 0. -1.
          1   -1    0    0  501    0 -0.00000000000E+00 -0.00000000000E+00 -0.12567461895E+04  0.12567461895E+04  0.00000000000E+00 0. -1.
         25    2    1    2    0    0 -0.21246711459E+02 -0.18479649305E+03 -0.11845196871E+03  0.25348960176E+03  0.12499977086E+03 0.  0.
          2    1    1    2  501    0  0.10255741351E+02  0.57398108092E+02 -0.10444511735E+04  0.10460774240E+04  0.00000000000E+00 0. -1.
          1    1    1    2  502    0  0.10990970108E+02  0.12739838496E+03  0.13472450128E+03  0.18574671238E+03  0.00000000000E+00 0. -1.
         22    1    3    3    0    0 -0.47672948434E+02 -0.43157483726E+02 -0.83203508908E+02  0.10515751190E+03  0.00000000000E+00 0.  1.
         22    1    3    3    0    0  0.26426236975E+02 -0.14163900933E+03 -0.35248459799E+02  0.14833208986E+03  0.00000000000E+00 0.  1.
</event>
<event>
 7    1  0.6219721E-006  0.9640136E+02  0.7818608E-02  0.1343163E+00
          2   -1    0    0  502    0  0.00000000000E+00  0.00000000000E+00  0.35470811358E+03  0.35470811358E+03  0.00000000000E+00 0. -1.
          1   -1    0    0  501    0 -0.00000000000E+00 -0.00000000000E+00 -0.94842508000E+03  0.94842508000E+03  0.00000000000E+00 0. -1.
         25    2    1    2    0    0  0.24009107383E+02 -0.13161464458E+03 -0.75192607226E+02  0.19793493955E+03  0.12500184081E+03 0.  0.
          2    1    1    2  501    0 -0.51713187071E+02  0.79855852463E+02 -0.80609831595E+03  0.81169311064E+03  0.00000000000E+00 0. -1.
          1    1    1    2  502    0  0.27704079688E+02  0.51758792115E+02  0.28757395675E+03  0.29350514339E+03  0.00000000000E+00 0. -1.
         22    1    3    3    0    0 -0.22720752883E+02 -0.47110940889E+02  0.25701768864E+02  0.58277390862E+02  0.00000000000E+00 0.  1.
         22    1    3    3    0    0  0.46729860266E+02 -0.84503703689E+02 -0.10089437609E+03  0.13965754868E+03  0.00000000000E+00 0.  1.
</event>
<event>
 7    1  0.6219721E-006  0.6575585E+02  0.7818608E-02  0.1479511E+00
          2   -1    0    0  502    0  0.00000000000E+00  0.00000000000E+00  0.45754985176E+03  0.45754985176E+03  0.00000000000E+00 0. -1.
          1   -1    0    0  501    0 -0.00000000000E+00 -0.00000000000E+00 -0.28654075010E+03  0.28654075010E+03  0.00000000000E+00 0. -1.
         25    2    1    2    0    0  0.62677622427E+02 -0.24148485131E+01 -0.12507721274E+03  0.18762503005E+03  0.12499810762E+03 0.  0.
          2    1    1    2  501    0 -0.26199122752E+01  0.29571145525E+02 -0.12590509984E+03  0.12935768533E+03  0.00000000000E+00 0. -1.
          1    1    1    2  502    0 -0.60057710152E+02 -0.27156297012E+02  0.42199141423E+03  0.42710788649E+03  0.00000000000E+00 0. -1.
         22    1    3    3    0    0  0.64454865279E+02  0.53294852770E+02 -0.67359574783E+02  0.10738753794E+03  0.00000000000E+00 0.  1.
         22    1    3    3    0    0 -0.17772428518E+01 -0.55709701283E+02 -0.57717637955E+02  0.80237492111E+02  0.00000000000E+00 0.  1.
</event>
<event>
 7    1  0.6219721E-006  0.9069189E+02  0.7818608E-02  0.1326775E+00
          2   -1    0    0  502    0  0.00000000000E+00  0.00000000000E+00  0.59644980693E+03  0.59644980693E+03  0.00000000000E+00 0. -1.
          1   -1    0    0  501    0 -0.00000000000E+00 -0.00000000000E+00 -0.91818517532E+03  0.91818517532E+03  0.00000000000E+00 0. -1.
         25    2    1    2    0    0  0.43548033895E+02 -0.18379136026E+02  0.37106639338E+03  0.39439598928E+03  0.12499481655E+03 0.  0.
          2    1    1    2  501    0  0.69340269747E+02  0.58454646802E+02 -0.88723939788E+03  0.89186252746E+03  0.00000000000E+00 0. -1.
          1    1    1    2  502    0 -0.11288830364E+03 -0.40075510776E+02  0.19443763611E+03  0.22837646551E+03  0.00000000000E+00 0. -1.
         22    1    3    3    0    0  0.12923426841E+02 -0.25428576745E+02  0.35992566693E+03  0.36105416933E+03  0.00000000000E+00 0.  1.
         22    1    3    3    0    0  0.30624607054E+02  0.70494407190E+01  0.11140726454E+02  0.33341819950E+02  0.00000000000E+00 0.  1.
</event>
<event>
 7    1  0.6219721E-006  0.6903012E+02  0.7818608E-02  0.1413758E+00
          2   -1    0    0  502    0  0.00000000000E+00  0.00000000000E+00  0.98310199511E+03  0.98310199511E+03  0.00000000000E+00 0. -1.
          1   -1    0    0  501    0 -0.00000000000E+00 -0.00000000000E+00 -0.20041349664E+04  0.20041349664E+04  0.00000000000E+00 0. -1.
         25    2    1    2    0    0  0.97678159481E+01 -0.82300491631E+01  0.69867829232E+03  0.70988868389E+03  0.12500977334E+03 0.  0.
          2    1    1    2  501    0  0.45369198486E+02 -0.52026850290E+02 -0.19919375652E+04  0.19931333174E+04  0.00000000000E+00 0. -1.
          1    1    1    2  502    0 -0.55137014434E+02  0.60256899453E+02  0.27222630162E+03  0.28421496017E+03  0.00000000000E+00 0. -1.
         22    1    3    3    0    0 -0.36239342189E+02  0.42824579219E+02  0.27383895816E+03  0.27952640218E+03  0.00000000000E+00 0. -1.
         22    1    3    3    0    0  0.46007158137E+02 -0.51054628382E+02  0.42483933415E+03  0.43036228171E+03  0.00000000000E+00 0. -1.
</event>
<event>
 7    1  0.6219721E-006  0.8368942E+02  0.7818608E-02  0.1395638E+00
          2   -1    0    0  502    0  0.00000000000E+00  0.00000000000E+00  0.41047424878E+03  0.41047424878E+03  0.00000000000E+00 0. -1.
          1   -1    0    0  501    0 -0.00000000000E+00 -0.00000000000E+00 -0.13354925481E+04  0.13354925481E+04  0.00000000000E+00 0. -1.
         25    2    1    2    0    0 -0.71354189016E+02 -0.80538485466E+02 -0.71121029908E+02  0.17961216924E+03  0.12499785003E+03 0.  0.
          2    1    1    2  501    0 -0.30690796002E+01  0.43665909202E+02 -0.12048818165E+04  0.12056767074E+04  0.00000000000E+00 0. -1.
          1    1    1    2  502    0  0.74423268617E+02  0.36872576264E+02  0.35098454716E+03  0.36067792023E+03  0.00000000000E+00 0. -1.
         22    1    3    3    0    0  0.51939110124E+00 -0.21955593961E+02 -0.83250025333E+02  0.86098110265E+02  0.00000000000E+00 0. -1.
         22    1    3    3    0    0 -0.71873580118E+02 -0.58582891505E+02  0.12128995425E+02  0.93514058975E+02  0.00000000000E+00 0. -1.
</event>
<event>
 7    1  0.6219721E-006  0.1334280E+03  0.7818608E-02  0.1269161E+00
          2   -1    0    0  502    0  0.00000000000E+00  0.00000000000E+00  0.10693655934E+04  0.10693655934E+04  0.00000000000E+00 0. -1.
          1   -1    0    0  501    0 -0.00000000000E+00 -0.00000000000E+00 -0.93666938272E+03  0.93666938272E+03  0.00000000000E+00 0. -1.
         25    2    1    2    0    0 -0.54518107242E+02  0.78498106135E+02  0.37662004207E+03  0.40816848833E+03  0.12499872836E+03 0.  0.
          2    1    1    2  501    0  0.26386616578E+02  0.79114062949E+02 -0.90949450378E+03  0.91331021066E+03  0.00000000000E+00 0. -1.
          1    1    1    2  502    0  0.28131490664E+02 -0.15761216908E+03  0.66557067243E+03  0.68455627717E+03  0.00000000000E+00 0. -1.
         22    1    3    3    0    0  0.62978586896E+01 -0.21145118883E+02  0.16515138351E+03  0.16661860206E+03  0.00000000000E+00 0. -1.
         22    1    3    3    0    0 -0.60815965932E+02  0.99643225018E+02  0.21146865856E+03  0.24154988627E+03  0.00000000000E+00 0. -1.
</event>
<event>
 7    1  0.6219721E-006  0.1935155E+03  0.7818608E-02  0.1348142E+00
          2   -1    0    0  502    0  0.00000000000E+00  0.00000000000E+00  0.15442088609E+03  0.15442088609E+03  0.00000000000E+00 0. -1.
          1   -1    0    0  501    0 -0.00000000000E+00 -0.00000000000E+00 -0.53460310536E+03  0.53460310536E+03  0.00000000000E+00 0. -1.
         25    2    1    2    0    0  0.87069597781E+02  0.16193097151E+03 -0.13190960496E+03  0.25851108237E+03  0.12500032574E+03 0.  0.
          2    1    1    2  501    0 -0.71400931157E+02 -0.18516196207E+03 -0.30693447353E+03  0.36550214255E+03  0.00000000000E+00 0. -1.
          1    1    1    2  502    0 -0.15668666624E+02  0.23230990565E+02  0.58661859221E+02  0.65010766522E+02  0.00000000000E+00 0. -1.
         22    1    3    3    0    0  0.15117998460E+02 -0.11730212121E+02 -0.49863796711E+02  0.53409268637E+02  0.00000000000E+00 0. -1.
         22    1    3    3    0    0  0.71951599321E+02  0.17366118363E+03 -0.82045808252E+02  0.20510181373E+03  0.00000000000E+00 0. -1.
</event>
<event>
 7    1  0.6219721E-006  0.8985153E+02  0.7818608E-02  0.1429406E+00
          2   -1    0    0  502    0  0.00000000000E+00  0.00000000000E+00  0.23170367350E+04  0.23170367350E+04  0.00000000000E+00 0. -1.
          1   -1    0    0  501    0 -0.00000000000E+00 -0.00000000000E+00 -0.44835650978E+03  0.44835650978E+03  0.00000000000E+00 0. -1.
         25    2    1    2    0    0 -0.56343098778E+02 -0.35313165580E+02  0.33337757403E+03  0.36219728646E+03  0.12499881202E+03 0.  0.
          2    1    1    2  501    0  0.86327254478E+02  0.26138253543E+02 -0.42913319765E+03  0.43850986818E+03  0.00000000000E+00 0. -1.
          1    1    1    2  502    0 -0.29984155699E+02  0.91749120377E+01  0.19644358488E+04  0.19646860901E+04  0.00000000000E+00 0. -1.
         22    1    3    3    0    0 -0.70935453093E+02  0.13302337717E+02  0.27739374626E+03  0.28662882123E+03  0.00000000000E+00 0.  1.
         22    1    3    3    0    0  0.14592354314E+02 -0.48615503298E+02  0.55983827773E+02  0.75568465232E+02  0.00000000000E+00 0.  1.
</event>
<event>
 7    1  0.8480859E-006  0.4441122E+02  0.7818608E-02  0.1529172E+00
          2   -1    0    0  502    0  0.00000000000E+00  0.00000000000E+00  0.18007247159E+04  0.18007247159E+04  0.00000000000E+00 0. -1.
          1   -1    0    0  501    0 -0.00000000000E+00 -0.00000000000E+00 -0.90202128693E+03  0.90202128693E+03  0.00000000000E+00 0. -1.
         25    2    1    2    0    0 -0.28187479522E+02 -0.55726348022E+02 -0.18366033957E+03  0.23076962938E+03  0.12499416645E+03 0.  0.
          2    1    1    2  501    0 -0.87121643585E+00  0.44075232058E+02 -0.69396897344E+03  0.69536775967E+03  0.00000000000E+00 0. -1.
          1    1    1    2  502    0  0.29058695958E+02  0.11651115965E+02  0.17763327419E+04  0.17766086137E+04  0.00000000000E+00 0. -1.
         22    1    3    3    0    0 -0.72485026397E+02 -0.29381845851E+02 -0.66085703417E+02  0.10239478558E+03  0.00000000000E+00 0.  1.
         22    1    3    3    0    0  0.44297546875E+02 -0.26344502171E+02 -0.11757463616E+03  0.12837484380E+03  0.00000000000E+00 0.  1.
</event>
<event>
 7    1  0.6219721E-006  0.5647338E+02  0.7818608E-02  0.1432603E+00
          2   -1    0    0  502    0  0.00000000000E+00  0.00000000000E+00  0.22308613278E+02  0.22308613278E+02  0.00000000000E+00 0. -1.
          1   -1    0    0  501    0 -0.00000000000E+00 -0.00000000000E+00 -0.23214661425E+04  0.23214661425E+04  0.00000000000E+00 0. -1.
         25    2    1    2    0    0  0.50741475486E+02 -0.89120292587E+02 -0.76160838510E+03  0.77858185733E+03  0.12500100972E+03 0.  0.
          2    1    1    2  501    0 -0.27053121601E+02  0.46573383692E+02 -0.15064506745E+04  0.15074132102E+04  0.00000000000E+00 0. -1.
          1    1    1    2  502    0 -0.23688353885E+02  0.42546908895E+02 -0.31098469636E+02  0.57779688300E+02  0.00000000000E+00 0. -1.
         22    1    3    3    0    0  0.69746225174E+02 -0.54753883678E+01 -0.24080425595E+03  0.25076125197E+03  0.00000000000E+00 0. -1.
         22    1    3    3    0    0 -0.19004749688E+02 -0.83644904219E+02 -0.52080412914E+03  0.52782060536E+03  0.00000000000E+00 0. -1.
</event>
<event>
 7    1  0.6219721E-006  0.1862060E+03  0.7818608E-02  0.1168125E+00
          2   -1    0    0  502    0  0.00000000000E+00  0.00000000000E+00  0.92526693263E+03  0.92526693263E+03  0.00000000000E+00 0. -1.
          1   -1    0    0  501    0 -0.00000000000E+00 -0.00000000000E+00 -0.47803132089E+03  0.47803132089E+03  0.00000000000E+00 0. -1.
         25    2    1    2    0    0 -0.13190115503E+03 -0.35294067190E+02 -0.48942539062E+02  0.19147886932E+03  0.12500079756E+03 0.  0.
          2    1    1    2  501    0  0.10594491426E+03  0.20669887984E+03 -0.30991631227E+03  0.38729429688E+03  0.00000000000E+00 0. -1.
          1    1    1    2  502    0  0.25956240764E+02 -0.17140481265E+03  0.80609446307E+03  0.82452508732E+03  0.00000000000E+00 0. -1.
         22    1    3    3    0    0 -0.13697052998E+03 -0.40006744645E+02 -0.77301991739E+02  0.16228697923E+03  0.00000000000E+00 0.  1.
         22    1    3    3    0    0  0.50693749497E+01  0.47126774543E+01  0.28359452677E+02  0.29191890095E+02  0.00000000000E+00 0.  1.
</event>
<event>
 7    1  0.6219721E-006  0.8456925E+02  0.7818608E-02  0.1431738E+00
          2   -1    0    0  502    0  0.00000000000E+00  0.00000000000E+00  0.55132730490E+02  0.55132730490E+02  0.00000000000E+00 0. -1.
          1   -1    0    0  501    0 -0.00000000000E+00 -0.00000000000E+00 -0.79843032995E+03  0.79843032995E+03  0.00000000000E+00 0. -1.
         25    2    1    2    0    0 -0.68405122630E+02  0.90294159028E+02 -0.35834652099E+03  0.39606119515E+03  0.12497977933E+03 0.  0.
          2    1    1    2  501    0  0.15599136668E+02 -0.28775527303E+02 -0.37430307042E+03  0.37573148998E+03  0.00000000000E+00 0. -1.
          1    1    1    2  502    0  0.52805985963E+02 -0.61518631725E+02 -0.10648008047E+02  0.81770375309E+02  0.00000000000E+00 0. -1.
         22    1    3    3    0    0 -0.53935381587E+02  0.79957923688E+01 -0.26595872542E+03  0.27149033447E+03  0.00000000000E+00 0.  1.
         22    1    3    3    0    0 -0.14469741043E+02  0.82298366659E+02 -0.92387795573E+02  0.12457086068E+03  0.00000000000E+00 0.  1.
</event>
<event>
 7    1  0.6219721E-006  0.9372450E+02  0.7818608E-02  0.1302188E+00
          2   -1    0    0  502    0  0.00000000000E+00  0.00000000000E+00  0.41127483553E+02  0.41127483553E+02  0.00000000000E+00 0. -1.
          1   -1    0    0  501    0 -0.00000000000E+00 -0.00000000000E+00 -0.95845223511E+03  0.95845223511E+03  0.00000000000E+00 0. -1.
         25    2    1    2    0    0  0.11173491014E+02  0.27971819239E+01 -0.15112388845E+03  0.19645832650E+03  0.12499909305E+03 0.  0.
          2    1    1    2  501    0 -0.47458701574E+02 -0.89212835340E+02 -0.62836901151E+03  0.63644235636E+03  0.00000000000E+00 0. -1.
          1    1    1    2  502    0  0.36285210560E+02  0.86415653416E+02 -0.13783185160E+03  0.16667903580E+03  0.00000000000E+00 0. -1.
         22    1    3    3    0    0  0.63227768125E+02 -0.11355022151E+02 -0.48399023353E+02  0.80431042836E+02  0.00000000000E+00 0. -1.
         22    1    3    3    0    0 -0.52054277111E+02  0.14152204075E+02 -0.10272486509E+03  0.11602728366E+03  0.00000000000E+00 0. -1.
</event>
<event>
 7    1  0.6219721E-006  0.5719232E+02  0.7818608E-02  0.1411642E+00
          2   -1    0    0  502    0  0.00000000000E+00  0.00000000000E+00  0.81794809707E+03  0.81794809707E+03  0.00000000000E+00 0. -1.
          1   -1    0    0  501    0 -0.00000000000E+00 -0.00000000000E+00 -0.18723865626E+03  0.18723865626E+03  0.00000000000E+00 0. -1.
         25    2    1    2    0    0 -0.24380467703E+02 -0.62226739656E+02  0.33144555706E+03  0.36048330192E+03  0.12500191732E+03 0.  0.
          2    1    1    2  501    0  0.55195250402E+02  0.11922616627E+02 -0.16619240403E+03  0.17552372948E+03  0.00000000000E+00 0. -1.
          1    1    1    2  502    0 -0.30814782699E+02  0.50304123029E+02  0.46545628779E+03  0.46917972193E+03  0.00000000000E+00 0. -1.
         22    1    3    3    0    0  0.24157324488E+01  0.35414101686E+02  0.49525573658E+02  0.60932559504E+02  0.00000000000E+00 0.  1.
         22    1    3    3    0    0 -0.26796200152E+02 -0.97640841342E+02  0.28191998340E+03  0.29955074241E+03  0.00000000000E+00 0.  1.
</event>
<event>
 7    1  0.6219721E-006  0.9803538E+02  0.7818608E-02  0.1432007E+00
          2   -1    0    0  502    0  0.00000000000E+00  0.00000000000E+00  0.45652859384E+03  0.45652859384E+03  0.00000000000E+00 0. -1.
          1   -1    0    0  501    0 -0.00000000000E+00 -0.00000000000E+00 -0.21868714385E+04  0.21868714385E+04  0.00000000000E+00 0. -1.
         25    2    1    2    0    0  0.10731121692E+02  0.89650654136E+02  0.11585659339E+03  0.19287646720E+03  0.12500473835E+03 0.  0.
          2    1    1    2  501    0 -0.38906331856E+02 -0.90075220195E+02 -0.21465814599E+04  0.21488227502E+04  0.00000000000E+00 0. -1.
          1    1    1    2  502    0  0.28175210164E+02  0.42456605918E+00  0.30038202180E+03  0.30170081495E+03  0.00000000000E+00 0. -1.
         22    1    3    3    0    0  0.65387359793E+02  0.65900344461E+02  0.56027210137E+02  0.10843159363E+03  0.00000000000E+00 0. -1.
         22    1    3    3    0    0 -0.54656238101E+02  0.23750309675E+02  0.59829383254E+02  0.84444873578E+02  0.00000000000E+00 0. -1.
</event>
<event>
 7    1  0.6219721E-006  0.5091788E+02  0.7818608E-02  0.1483412E+00
          2   -1    0    0  502    0  0.00000000000E+00  0.00000000000E+00  0.24783651577E+03  0.24783651577E+03  0.00000000000E+00 0. -1.
          1   -1    0    0  501    0 -0.00000000000E+00 -0.00000000000E+00 -0.71469248576E+03  0.71469248576E+03  0.00000000000E+00 0. -1.
         25    2    1    2    0    0 -0.63191893323E+02  0.60704798371E+02 -0.24046222346E+03  0.28482503595E+03  0.12499972905E+03 0.  0.
          2    1    1    2  501    0  0.24813792510E+02 -0.27846392752E+02 -0.44843696744E+03  0.44998539938E+03  0.00000000000E+00 0. -1.
          1    1    1    2  502    0  0.38378100812E+02 -0.32858405619E+02  0.22204322091E+03  0.22771856620E+03  0.00000000000E+00 0. -1.
         22    1    3    3    0    0 -0.46482949040E+01  0.32778307701E+02  0.26466784418E+01  0.33211880526E+02  0.00000000000E+00 0. -1.
         22    1    3    3    0    0 -0.58543598419E+02  0.27926490670E+02 -0.24310890190E+03  0.25161315542E+03  0.00000000000E+00 0. -1.
</event>
<event>
 7    1  0.6219721E-006  0.8440644E+02  0.7818608E-02  0.1377899E+00
          2   -1    0    0  502    0  0.00000000000E+00  0.00000000000E+00  0.25812559350E+04  0.25812559350E+04  0.00000000000E+00 0. -1.
          1   -1    0    0  501    0 -0.00000000000E+00 -0.00000000000E+00 -0.50934180265E+03  0.50934180265E+03  0.00000000000E+00 0. -1.
         25    2    1    2    0    0 -0.37566379520E+02 -0.54353299483E+02  0.60231733516E+03  0.61868935375E+03  0.12499932069E+03 0.  0.
          2    1    1    2  501    0  0.79940649703E+02  0.27652670817E+02 -0.49726538934E+03  0.50440860928E+03  0.00000000000E+00 0. -1.
          1    1    1    2  502    0 -0.42374270182E+02  0.26700628666E+02  0.19668621866E+04  0.19674997746E+04  0.00000000000E+00 0. -1.
         22    1    3    3    0    0 -0.79667157808E+02 -0.41937712547E+02  0.30050301923E+03  0.31370000372E+03  0.00000000000E+00 0.  1.
         22    1    3    3    0    0  0.42100778287E+02 -0.12415586936E+02  0.30181431593E+03  0.30498935003E+03  0.00000000000E+00 0.  1.
</event>
<event>
 7    1  0.6219721E-006  0.4887570E+02  0.7818608E-02  0.1466807E+00
          2   -1    0    0  502    0  0.00000000000E+00  0.00000000000E+00  0.59172939737E+03  0.59172939737E+03  0.00000000000E+00 0. -1.
          1   -1    0    0  501    0 -0.00000000000E+00 -0.00000000000E+00 -0.79022947140E+03  0.79022947140E+03  0.00000000000E+00 0. -1.
         25    2    1    2    0    0 -0.10720217383E+02  0.41598352552E+02 -0.37684090068E+02  0.13743537109E+03  0.12499217810E+03 0.  0.
          2    1    1    2  501    0 -0.35683988570E+02 -0.25272730139E+02 -0.70087048748E+03  0.70223322205E+03  0.00000000000E+00 0. -1.
          1    1    1    2  502    0  0.46404205953E+02 -0.16325622412E+02  0.54005450352E+03  0.54229027563E+03  0.00000000000E+00 0. -1.
         22    1    3    3    0    0  0.19951691176E+02 -0.39888900000E+02 -0.71608586471E+01  0.45171586429E+02  0.00000000000E+00 0. -1.
         22    1    3    3    0    0 -0.30671908558E+02  0.81487252552E+02 -0.30523231421E+02  0.92263784658E+02  0.00000000000E+00 0. -1.
</event>
<event>
 7    1  0.6219721E-006  0.1248683E+03  0.7818608E-02  0.1306250E+00
          2   -1    0    0  502    0  0.00000000000E+00  0.00000000000E+00  0.28312893073E+04  0.28312893073E+04  0.00000000000E+00 0. -1.
          1   -1    0    0  501    0 -0.00000000000E+00 -0.00000000000E+00 -0.28047883691E+02  0.28047883691E+02  0.00000000000E+00 0. -1.
         25    2    1    2    0    0 -0.26172402954E+02 -0.12535349003E+03  0.60720226979E+03  0.63302320621E+03  0.12500116408E+03 0.  0.
          2    1    1    2  501    0 -0.55744254186E+02  0.29098204970E+02  0.61235493632E+02  0.87771937928E+02  0.00000000000E+00 0. -1.
          1    1    1    2  502    0  0.81916657140E+02  0.96255285058E+02  0.21348036602E+04  0.21385420469E+04  0.00000000000E+00 0. -1.
         22    1    3    3    0    0 -0.53663034542E+02 -0.10787044617E+03  0.57399482560E+03  0.58650303857E+03  0.00000000000E+00 0.  1.
         22    1    3    3    0    0  0.27490631588E+02 -0.17483043857E+02  0.33207444188E+02  0.46520167638E+02  0.00000000000E+00 0.  1.
</event>
<event>
 7    1  0.6219721E-006  0.7162489E+02  0.7818608E-02  0.1396622E+00
          2   -1    0    0  502    0  0.00000000000E+00  0.00000000000E+00  0.12665291729E+04  0.12665291729E+04  0.00000000000E+00 0. -1.
          1   -1    0    0  501    0 -0.00000000000E+00 -0.00000000000E+00 -0.36775956140E+04  0.36775956140E+04  0.00000000000E+00 0. -1.
         25    2    1    2    0    0  0.91219489626E+02 -0.48718983561E+02 -0.53176479365E+02  0.17072588275E+03  0.12500021775E+03 0.  0.
          2    1    1    2  501    0 -0.41384806973E+02  0.58301776094E+02 -0.35647527333E+04  0.35654696534E+04  0.00000000000E+00 0. -1.
          1    1    1    2  502    0 -0.49834682653E+02 -0.95827925333E+01  0.12068627716E+04  0.12079292508E+04  0.00000000000E+00 0. -1.
         22    1    3    3    0    0 -0.26366480674E+02 -0.13465292443E+02 -0.36256117834E+02  0.46808241626E+02  0.00000000000E+00 0. -1.
         22    1    3    3    0    0  0.11758597030E+03 -0.35253691118E+02 -0.16920361530E+02  0.12391764113E+03  0.00000000000E+00 0. -1.
</event>
<event>
 7    1  0.6219721E-006  0.8130633E+02  0.7818608E-02  0.1336703E+00
          2   -1    0    0  502    0  0.00000000000E+00  0.00000000000E+00  0.18365028181E+02  0.18365028181E+02  0.00000000000E+00 0. -1.
          1   -1    0    0  501    0 -0.00000000000E+00 -0.00000000000E+00 -0.19215508618E+04  0.19215508618E+04  0.00000000000E+00 0. -1.
         25    2    1    2    0    0  0.22640617423E+02 -0.29645702192E+02 -0.90183253077E+03  0.91121803445E+03  0.12499971009E+03 0.  0.
          2    1    1    2  501    0  0.12563805712E+02  0.10293532101E+03 -0.85508893244E+03  0.86135394113E+03  0.00000000000E+00 0. -1.
          1    1    1    2  502    0 -0.35204423135E+02 -0.73289618822E+02 -0.14626437036E+03  0.16734391436E+03  0.00000000000E+00 0. -1.
         22    1    3    3    0    0  0.20093106370E+02  0.46701780190E+02 -0.26617983398E+03  0.27099168477E+03  0.00000000000E+00 0. -1.
         22    1    3    3    0    0  0.25475110525E+01 -0.76347482382E+02 -0.63565269679E+03  0.64022634967E+03  0.00000000000E+00 0. -1.
</event>
<event>
 7    1  0.6219721E-006  0.1187866E+03  0.7818608E-02  0.1266410E+00
          2   -1    0    0  502    0  0.00000000000E+00  0.00000000000E+00  0.14181298152E+04  0.14181298152E+04  0.00000000000E+00 0. -1.
          1   -1    0    0  501    0 -0.00000000000E+00 -0.00000000000E+00 -0.11467746543E+04  0.11467746543E+04  0.00000000000E+00 0. -1.
         25    2    1    2    0    0  0.16476269818E+03 -0.91297950504E+02 -0.66649068373E+02  0.23569408969E+03  0.12501017207E+03 0.  0.
          2    1    1    2  501    0 -0.47104007437E+02  0.83894035839E+02 -0.99066252289E+03  0.99532368153E+03  0.00000000000E+00 0. -1.
          1    1    1    2  502    0 -0.11765869074E+03  0.74039146645E+01  0.13286667521E+04  0.13338866982E+04  0.00000000000E+00 0. -1.
         22    1    3    3    0    0  0.11867052373E+03 -0.28705768430E+01 -0.57385981004E+01  0.11884386784E+03  0.00000000000E+00 0. -1.
         22    1    3    3    0    0  0.46092174448E+02 -0.88427373661E+02 -0.60910470272E+02  0.11685022185E+03  0.00000000000E+00 0. -1.
</event>
<event>
 7    1  0.6219721E-006  0.1245503E+03  0.7818608E-02  0.1322734E+00
          2   -1    0    0  502    0  0.00000000000E+00  0.00000000000E+00  0.41094079505E+03  0.41094079505E+03  0.00000000000E+00 0. -1.
          1   -1    0    0  501    0 -0.00000000000E+00 -0.00000000000E+00 -0.80312995729E+03  0.80312995729E+03  0.00000000000E+00 0. -1.
         25    2    1    2    0    0 -0.17201412510E+03  0.29341321247E+02 -0.17742078146E+03  0.27848297752E+03  0.12499945082E+03 0.  0.
          2    1    1    2  501    0  0.49966319096E+02 -0.21360568762E+02 -0.56345652894E+03  0.56607081443E+03  0.00000000000E+00 0. -1.
          1    1    1    2  502    0  0.12204780600E+03 -0.79807524851E+01  0.34868814816E+03  0.36951696040E+03  0.00000000000E+00 0. -1.
         22    1    3    3    0    0 -0.14892578239E+03 -0.59533594957E+01 -0.73195990505E+02  0.16604813813E+03  0.00000000000E+00 0. -1.
         22    1    3    3    0    0 -0.23088342707E+02  0.35294680743E+02 -0.10422479096E+03  0.11243483939E+03  0.00000000000E+00 0. -1.
</event>
<event>
 7    1  0.6219721E-006  0.1607733E+03  0.7818608E-02  0.1296399E+00
          2   -1    0    0  502    0  0.00000000000E+00  0.00000000000E+00  0.20069222317E+04  0.20069222317E+04  0.00000000000E+00 0. -1.
          1   -1    0    0  501    0 -0.00000000000E+00 -0.00000000000E+00 -0.87019159007E+03  0.87019159007E+03  0.00000000000E+00 0. -1.
         25    2    1    2    0    0 -0.74925438949E+02 -0.84797627717E+02 -0.12416843514E+03  0.20939808853E+03  0.12500120049E+03 0.  0.
          2    1    1    2  501    0 -0.10809078375E+02 -0.52367286650E+02 -0.69905557049E+03  0.70109761055E+03  0.00000000000E+00 0. -1.
          1    1    1    2  502    0  0.85734517324E+02  0.13716491437E+03  0.19599546473E+04  0.19666181227E+04  0.00000000000E+00 0. -1.
         22    1    3    3    0    0 -0.98439379150E+02 -0.66188837858E+02 -0.48772188564E+02  0.12825755339E+03  0.00000000000E+00 0.  1.
         22    1    3    3    0    0  0.23513940201E+02 -0.18608789859E+02 -0.75396246581E+02  0.81140535137E+02  0.00000000000E+00 0.  1.
</event>
<event>
 7    1  0.6219721E-006  0.1033388E+03  0.7818608E-02  0.1318378E+00
          2   -1    0    0  502    0  0.00000000000E+00  0.00000000000E+00  0.55342064229E+02  0.55342064229E+02  0.00000000000E+00 0. -1.
          1   -1    0    0  501    0 -0.00000000000E+00 -0.00000000000E+00 -0.72852296208E+03  0.72852296208E+03  0.00000000000E+00 0. -1.
         25    2    1    2    0    0 -0.37137982714E+02 -0.44143949761E+02 -0.27818989541E+03  0.31039153986E+03  0.12500148819E+03 0.  0.
          2    1    1    2  501    0 -0.65920148327E+02 -0.17057141306E+02 -0.33034798850E+03  0.33729246290E+03  0.00000000000E+00 0. -1.
          1    1    1    2  502    0  0.10305813104E+03  0.61201091067E+02 -0.64643013936E+02  0.13618102354E+03  0.00000000000E+00 0. -1.
         22    1    3    3    0    0 -0.26494716708E+02 -0.97970433452E+01  0.16068122213E+01  0.28293708086E+02  0.00000000000E+00 0. -1.
         22    1    3    3    0    0 -0.10643266005E+02 -0.34346906416E+02 -0.27979670763E+03  0.28209783178E+03  0.00000000000E+00 0. -1.
</event>
<event>
 7    1  0.1003670E-005  0.4982369E+02  0.7818608E-02  0.1478919E+00
          2   -1    0    0  502    0  0.00000000000E+00  0.00000000000E+00  0.86998750513E+03  0.86998750513E+03  0.00000000000E+00 0. -1.
          1   -1    0    0  501    0 -0.00000000000E+00 -0.00000000000E+00 -0.14569875045E+04  0.14569875045E+04  0.00000000000E+00 0. -1.
         25    2    1    2    0    0  0.74542266971E+01 -0.10957905566E+02 -0.39679323929E+03  0.41622808317E+03  0.12500120513E+03 0.  0.
          2    1    1    2  501    0 -0.36936191441E+02  0.37011249661E+02 -0.10493756914E+04  0.10506776178E+04  0.00000000000E+00 0. -1.
          1    1    1    2  502    0  0.29481964744E+02 -0.26053344095E+02  0.85916893137E+03  0.86006930862E+03  0.00000000000E+00 0. -1.
         22    1    3    3    0    0 -0.80673057600E+01  0.45660667197E+02 -0.68441486488E+02  0.82669311258E+02  0.00000000000E+00 0.  1.
         22    1    3    3    0    0  0.15521532457E+02 -0.56618572763E+02 -0.32835175280E+03  0.33355877191E+03  0.00000000000E+00 0.  1.
</event>
<event>
 7    1  0.6219721E-006  0.5085955E+02  0.7818608E-02  0.1445566E+00
          2   -1    0    0  502    0  0.00000000000E+00  0.00000000000E+00  0.34167386889E+03  0.34167386889E+03  0.00000000000E+00 0. -1.
          1   -1    0    0  501    0 -0.00000000000E+00 -0.00000000000E+00 -0.14210348798E+04  0.14210348798E+04  0.00000000000E+00 0. -1.
         25    2    1    2    0    0 -0.13205911823E+01  0.19721840586E+02 -0.14375469991E+03  0.19152449095E+03  0.12500208771E+03 0.  0.
          2    1    1    2  501    0 -0.48543896971E+02 -0.71893614424E+01 -0.12508313697E+04  0.12517936381E+04  0.00000000000E+00 0. -1.
          1    1    1    2  502    0  0.49864488153E+02 -0.12532479143E+02  0.31522505878E+03  0.31939061961E+03  0.00000000000E+00 0. -1.
         22    1    3    3    0    0  0.43787174349E+02 -0.25609040974E+02 -0.10535639037E+03  0.11693206835E+03  0.00000000000E+00 0. -1.
         22    1    3    3    0    0 -0.45107765532E+02  0.45330881559E+02 -0.38398309549E+02  0.74592422607E+02  0.00000000000E+00 0. -1.
</event>
<event>
 7    1  0.6219721E-006  0.3727718E+02  0.7818608E-02  0.1538878E+00
          2   -1    0    0  502    0  0.00000000000E+00  0.00000000000E+00  0.13877861579E+04  0.13877861579E+04  0.00000000000E+00 0. -1.
          1   -1    0    0  501    0 -0.00000000000E+00 -0.00000000000E+00 -0.13516979663E+04  0.13516979663E+04  0.00000000000E+00 0. -1.
         25    2    1    2    0    0  0.45204447389E+02 -0.68828945477E+01  0.85053788168E+03  0.86088951198E+03  0.12500098943E+03 0.  0.
          2    1    1    2  501    0 -0.16013366888E+02  0.31119459948E+02 -0.13456179589E+04  0.13460730069E+04  0.00000000000E+00 0. -1.
          1    1    1    2  502    0 -0.29191080500E+02 -0.24236565401E+02  0.53116826883E+03  0.53252160528E+03  0.00000000000E+00 0. -1.
         22    1    3    3    0    0 -0.29240822801E+02 -0.81328837256E+01  0.56465191752E+03  0.56546702599E+03  0.00000000000E+00 0. -1.
         22    1    3    3    0    0  0.74445270189E+02  0.12499891780E+01  0.28588596416E+03  0.29542248599E+03  0.00000000000E+00 0. -1.
</event>
<event>
 7    1  0.6219721E-006  0.6968562E+03  0.7818608E-02  0.1127700E+00
          2   -1    0    0  502    0  0.00000000000E+00  0.00000000000E+00  0.11494286272E+04  0.11494286272E+04  0.00000000000E+00 0. -1.
          1   -1    0    0  501    0 -0.00000000000E+00 -0.00000000000E+00 -0.27768897382E+04  0.27768897382E+04  0.00000000000E+00 0. -1.
         25    2    1    2    0    0 -0.47571644298E+02 -0.72291430230E+03 -0.62467076449E+03  0.96473171674E+03  0.12500228590E+03 0.  0.
          2    1    1    2  501    0  0.68570651176E+02  0.30197115121E+02 -0.18587388895E+04  0.18602483865E+04  0.00000000000E+00 0. -1.
          1    1    1    2  502    0 -0.20999006878E+02  0.69271718717E+03  0.85594854299E+03  0.11013382623E+04  0.00000000000E+00 0. -1.
         22    1    3    3    0    0 -0.22662861275E+02 -0.62615791641E+03 -0.48179670205E+03  0.79038940003E+03  0.00000000000E+00 0.  1.
         22    1    3    3    0    0 -0.24908783023E+02 -0.96756385881E+02 -0.14287406243E+03  0.17434231671E+03  0.00000000000E+00 0.  1.
</event>
<event>
 7    1  0.6219721E-006  0.7160616E+02  0.7818608E-02  0.1449261E+00
          2   -1    0    0  502    0  0.00000000000E+00  0.00000000000E+00  0.96263550291E+03  0.96263550291E+03  0.00000000000E+00 0. -1.
          1   -1    0    0  501    0 -0.00000000000E+00 -0.00000000000E+00 -0.34598282090E+03  0.34598282090E+03  0.00000000000E+00 0. -1.
         25    2    1    2    0    0 -0.39507465474E+02  0.95368151686E+02  0.19745640126E+03  0.25548022930E+03  0.12500077191E+03 0.  0.
          2    1    1    2  501    0  0.17261008488E+02 -0.29194885243E+02 -0.31440170977E+03  0.31622574033E+03  0.00000000000E+00 0. -1.
          1    1    1    2  502    0  0.22246456986E+02 -0.66173266443E+02  0.73359799053E+03  0.73691235419E+03  0.00000000000E+00 0. -1.
         22    1    3    3    0    0 -0.69180706444E+02  0.10926512469E+03  0.15927930652E+03  0.20517001511E+03  0.00000000000E+00 0.  1.
         22    1    3    3    0    0  0.29673240970E+02 -0.13896973000E+02  0.38177094743E+02  0.50310214184E+02  0.00000000000E+00 0.  1.
</event>
<event>
 7    1  0.6219721E-006  0.7384378E+02  0.7818608E-02  0.1457400E+00
          2   -1    0    0  502    0  0.00000000000E+00  0.00000000000E+00  0.51878817872E+03  0.51878817872E+03  0.00000000000E+00 0. -1.
          1   -1    0    0  501    0 -0.00000000000E+00 -0.00000000000E+00 -0.30654049731E+03  0.30654049731E+03  0.00000000000E+00 0. -1.
         25    2    1    2    0    0  0.66684595019E+02  0.28872133308E+02  0.40827107646E+03  0.43311816351E+03  0.12500254556E+03 0.  0.
          2    1    1    2  501    0 -0.49664867790E+02 -0.54761316601E+02 -0.28686122551E+03  0.29623430522E+03  0.00000000000E+00 0. -1.
          1    1    1    2  502    0 -0.17019727229E+02  0.25889183292E+02  0.90837830452E+02  0.95976207300E+02  0.00000000000E+00 0. -1.
         22    1    3    3    0    0  0.57572318690E+02 -0.35153094254E+02  0.11978939783E+03  0.13747658618E+03  0.00000000000E+00 0. -1.
         22    1    3    3    0    0  0.91122763293E+01  0.64025227562E+02  0.28848167863E+03  0.29564157733E+03  0.00000000000E+00 0. -1.
</event>
<event>
 7    1  0.7629568E-006  0.7708048E+02  0.7818608E-02  0.1487482E+00
          2   -1    0    0  502    0  0.00000000000E+00  0.00000000000E+00  0.93867392449E+03  0.93867392449E+03  0.00000000000E+00 0. -1.
          1   -1    0    0  501    0 -0.00000000000E+00 -0.00000000000E+00 -0.91743054426E+03  0.91743054426E+03  0.00000000000E+00 0. -1.
         25    2    1    2    0    0  0.50450014448E+02 -0.38918177514E+02 -0.33563929110E+03  0.36378617695E+03  0.12500728102E+03 0.  0.
          2    1    1    2  501    0 -0.49893472611E+01 -0.23419759447E+02 -0.56585462793E+03  0.56636104975E+03  0.00000000000E+00 0. -1.
          1    1    1    2  502    0 -0.45460667187E+02  0.62337936960E+02  0.92273729927E+03  0.92595724205E+03  0.00000000000E+00 0. -1.
         22    1    3    3    0    0  0.14687542649E+02 -0.82295392543E+02 -0.18548209896E+03  0.20344990680E+03  0.00000000000E+00 0.  1.
         22    1    3    3    0    0  0.35762471798E+02  0.43377215029E+02 -0.15015719214E+03  0.16033627015E+03  0.00000000000E+00 0.  1.
</event>
<event>
 7    1  0.6219721E-006  0.2013382E+03  0.7818608E-02  0.1279398E+00
          2   -1    0    0  502    0  0.00000000000E+00  0.00000000000E+00  0.27512531158E+03  0.27512531158E+03  0.00000000000E+00 0. -1.
          1   -1    0    0  501    0 -0.00000000000E+00 -0.00000000000E+00 -0.17448312412E+04  0.17448312412E+04  0.00000000000E+00 0. -1.
         25    2    1    2    0    0 -0.14698092461E+03 -0.68819038884E+02 -0.48388017014E+03  0.52545628851E+03  0.12499935907E+03 0.  0.
          2    1    1    2  501    0 -0.23687742360E+02 -0.44139498087E+02 -0.11983817460E+04  0.11994282861E+04  0.00000000000E+00 0. -1.
          1    1    1    2  502    0  0.17066866697E+03  0.11295853697E+03  0.21255598644E+03  0.29507197822E+03  0.00000000000E+00 0. -1.
         22    1    3    3    0    0 -0.16077960474E+03 -0.82645013105E+02 -0.39422166940E+03  0.43369459775E+03  0.00000000000E+00 0.  1.
         22    1    3    3    0    0  0.13798680128E+02  0.13825974221E+02 -0.89658500741E+02  0.91761690762E+02  0.00000000000E+00 0.  1.
</event>
<event>
 7    1  0.6219721E-006  0.8606500E+02  0.7818608E-02  0.1373934E+00
          2   -1    0    0  502    0  0.00000000000E+00  0.00000000000E+00  0.21535665224E+04  0.21535665224E+04  0.00000000000E+00 0. -1.
          1   -1    0    0  501    0 -0.00000000000E+00 -0.00000000000E+00 -0.56561004439E+02  0.56561004439E+02  0.00000000000E+00 0. -1.
         25    2    1    2    0    0 -0.64815342551E+02  0.29596898877E+02  0.20903980213E+03  0.25377174427E+03  0.12500181704E+03 0.  0.
          2    1    1    2  501    0  0.49981353701E+02 -0.78124395853E+02  0.29680802884E+02  0.97378164930E+02  0.00000000000E+00 0. -1.
          1    1    1    2  502    0  0.14833988850E+02  0.48527496976E+02  0.18582849129E+04  0.18589776176E+04  0.00000000000E+00 0. -1.
         22    1    3    3    0    0 -0.61907029760E+02  0.54495791053E+02  0.21298380731E+03  0.22839521394E+03  0.00000000000E+00 0. -1.
         22    1    3    3    0    0 -0.29083127904E+01 -0.24898892176E+02 -0.39440051759E+01  0.25376530332E+02  0.00000000000E+00 0. -1.
</event>
<event>
 7    1  0.6219721E-006  0.5074274E+02  0.7818608E-02  0.1518281E+00
          2   -1    0    0  502    0  0.00000000000E+00  0.00000000000E+00  0.10721616618E+04  0.10721616618E+04  0.00000000000E+00 0. -1.
          1   -1    0    0  501    0 -0.00000000000E+00 -0.00000000000E+00 -0.19331689314E+03  0.19331689314E+03  0.00000000000E+00 0. -1.
         25    2    1    2    0    0  0.36277496978E+01  0.57530508335E+02  0.25280810416E+03  0.28784479307E+03  0.12497906788E+03 0.  0.
          2    1    1    2  501    0 -0.28613922652E+02 -0.41922992657E+02 -0.17185732968E+03  0.17919608157E+03  0.00000000000E+00 0. -1.
          1    1    1    2  502    0  0.24986172954E+02 -0.15607515677E+02  0.79789399417E+03  0.79843768030E+03  0.00000000000E+00 0. -1.
         22    1    3    3    0    0  0.53097342252E+01  0.97075374923E+02  0.16467880383E+03  0.19123527427E+03  0.00000000000E+00 0.  1.
         22    1    3    3    0    0 -0.16819845275E+01 -0.39544866588E+02  0.88129300329E+02  0.96609518796E+02  0.00000000000E+00 0.  1.
</event>
<event>
 7    1  0.6219721E-006  0.7649243E+02  0.7818608E-02  0.1446095E+00
          2   -1    0    0  502    0  0.00000000000E+00  0.00000000000E+00  0.13154592070E+04  0.13154592070E+04  0.00000000000E+00 0. -1.
          1   -1    0    0  501    0 -0.00000000000E+00 -0.00000000000E+00 -0.15785732775E+03  0.15785732775E+03  0.00000000000E+00 0. -1.
         25    2    1    2    0    0 -0.92941237731E+02  0.44524652616E+02  0.41931046122E+03  0.44951809550E+03  0.12499894773E+03 0.  0.
          2    1    1    2  501    0  0.32431466207E+02 -0.21230162741E+01 -0.13933089075E+03  0.14307132597E+03  0.00000000000E+00 0. -1.
          1    1    1    2  502    0  0.60509771524E+02 -0.42401636342E+02  0.87762230875E+03  0.88072711326E+03  0.00000000000E+00 0. -1.
         22    1    3    3    0    0 -0.57171188340E+02  0.47211701347E+02  0.40360628919E+03  0.41036023954E+03  0.00000000000E+00 0.  1.
         22    1    3    3    0    0 -0.35770049390E+02 -0.26870487307E+01  0.15704172026E+02  0.39157855959E+02  0.00000000000E+00 0.  1.
</event>
<event>
 7    1  0.6219721E-006  0.3404786E+02  0.7818608E-02  0.1583567E+00
          2   -1    0    0  502    0  0.00000000000E+00  0.00000000000E+00  0.99962988474E+02  0.99962988474E+02  0.00000000000E+00 0. -1.
          1   -1    0    0  501    0 -0.00000000000E+00 -0.00000000000E+00 -0.11214104140E+04  0.11214104140E+04  0.00000000000E+00 0. -1.
         25    2    1    2    0    0 -0.29874917131E+02  0.20308152093E+02 -0.39983928674E+03  0.42047770794E+03  0.12500046373E+03 0.  0.
          2    1    1    2  501    0  0.33407763051E+02  0.83516959896E+01 -0.70849732904E+03  0.70933369772E+03  0.00000000000E+00 0. -1.
          1    1    1    2  502    0 -0.35328459196E+01 -0.28659848082E+02  0.86889190218E+02  0.91561996861E+02  0.00000000000E+00 0. -1.
         22    1    3    3    0    0  0.41123239001E+01  0.33143226223E+02 -0.37496215019E+03  0.37644654166E+03  0.00000000000E+00 0. -1.
         22    1    3    3    0    0 -0.33987241032E+02 -0.12835074130E+02 -0.24877136558E+02  0.44031166282E+02  0.00000000000E+00 0. -1.
</event>
<event>
 7    1  0.6219721E-006  0.1409180E+03  0.7818608E-02  0.1313276E+00
          2   -1    0    0  502    0  0.00000000000E+00  0.00000000000E+00  0.41038520400E+04  0.41038520400E+04  0.00000000000E+00 0. -1.
          1   -1    0    0  501    0 -0.00000000000E+00 -0.00000000000E+00 -0.56461736909E+03  0.56461736909E+03  0.00000000000E+00 0. -1.
         25    2    1    2    0    0 -0.15895842850E+03 -0.61802786941E+02  0.99353145579E+03  0.10157837525E+04  0.12499804729E+03 0.  0.
          2    1    1    2  501    0  0.14010600998E+03  0.13043519430E+02 -0.54432340459E+03  0.56221685871E+03  0.00000000000E+00 0. -1.
          1    1    1    2  502    0  0.18852418512E+02  0.48759267512E+02  0.30900266197E+04  0.30904687978E+04  0.00000000000E+00 0. -1.
         22    1    3    3    0    0 -0.20452826036E+02 -0.64367558552E+02  0.44150059165E+03  0.44663662312E+03  0.00000000000E+00 0. -1.
         22    1    3    3    0    0 -0.13850560246E+03  0.25647716107E+01  0.55203086414E+03  0.56914712942E+03  0.00000000000E+00 0. -1.
</event>
<event>
 7    1  0.6219721E-006  0.7245659E+02  0.7818608E-02  0.1448801E+00
          2   -1    0    0  502    0  0.00000000000E+00  0.00000000000E+00  0.13399552316E+04  0.13399552316E+04  0.00000000000E+00 0. -1.
          1   -1    0    0  501    0 -0.00000000000E+00 -0.00000000000E+00 -0.17578027519E+03  0.17578027519E+03  0.00000000000E+00 0. -1.
         25    2    1    2    0    0 -0.21821935320E+02 -0.10345968140E+03  0.90847401118E+03  0.92310889559E+03  0.12499960632E+03 0.  0.
          2    1    1    2  501    0  0.13134157170E+02  0.70969683926E+02 -0.16002197557E+03  0.17554553479E+03  0.00000000000E+00 0. -1.
          1    1    1    2  502    0  0.86877781503E+01  0.32489997472E+02  0.41572292077E+03  0.41708107638E+03  0.00000000000E+00 0. -1.
         22    1    3    3    0    0 -0.64930214544E+02 -0.90319168673E+02  0.50384823043E+03  0.51598112785E+03  0.00000000000E+00 0. -1.
         22    1    3    3    0    0  0.43108279223E+02 -0.13140512725E+02  0.40462578075E+03  0.40712776774E+03  0.00000000000E+00 0. -1.
</event>
<event>
 7    1  0.6219721E-006  0.6604330E+02  0.7818608E-02  0.1474596E+00
          2   -1    0    0  502    0  0.00000000000E+00  0.00000000000E+00  0.14551387625E+03  0.14551387625E+03  0.00000000000E+00 0. -1.
          1   -1    0    0  501    0 -0.00000000000E+00 -0.00000000000E+00 -0.49407355214E+03  0.49407355214E+03  0.00000000000E+00 0. -1.
         25    2    1    2    0    0 -0.88991696482E+02  0.30366146661E+02 -0.63225352551E+02  0.16871360261E+03  0.12500083838E+03 0.  0.
          2    1    1    2  501    0  0.63022930094E+02 -0.14168286984E+02 -0.37272372235E+03  0.37827979496E+03  0.00000000000E+00 0. -1.
          1    1    1    2  502    0  0.25968766388E+02 -0.16197859678E+02  0.87389399002E+02  0.92594030821E+02  0.00000000000E+00 0. -1.
         22    1    3    3    0    0  0.22009051559E+02 -0.21158461337E+02 -0.27856502658E+02  0.41328725809E+02  0.00000000000E+00 0. -1.
         22    1    3    3    0    0 -0.11100074804E+03  0.51524607998E+02 -0.35368849893E+02  0.12738487680E+03  0.00000000000E+00 0. -1.
</event>
<event>
 7    1  0.6219721E-006  0.6118549E+02  0.7818608E-02  0.1394383E+00
          2   -1    0    0  502    0  0.00000000000E+00  0.00000000000E+00  0.20792270159E+04  0.20792270159E+04  0.00000000000E+00 0. -1.
          1   -1    0    0  501    0 -0.00000000000E+00 -0.00000000000E+00 -0.70838756385E+03  0.70838756385E+03  0.00000000000E+00 0. -1.
         25    2    1    2    0    0 -0.68187377348E+02  0.85924349482E+02  0.43466217017E+02  0.17189097680E+03  0.12499873448E+03 0.  0.
          2    1    1    2  501    0  0.54300299346E+02 -0.26622863666E+02 -0.64228405272E+03  0.64512487455E+03  0.00000000000E+00 0. -1.
          1    1    1    2  502    0  0.13887078002E+02 -0.59301485816E+02  0.19696572877E+04  0.19705987284E+04  0.00000000000E+00 0. -1.
         22    1    3    3    0    0 -0.32097134459E+01 -0.81217313330E+01 -0.33149278924E+02  0.34280307371E+02  0.00000000000E+00 0.  1.
         22    1    3    3    0    0 -0.64977663902E+02  0.94046080815E+02  0.76615495941E+02  0.13761066943E+03  0.00000000000E+00 0.  1.
</event>
<event>
 7    1  0.6219721E-006  0.1397013E+03  0.7818608E-02  0.1360741E+00
          2   -1    0    0  502    0  0.00000000000E+00  0.00000000000E+00  0.41332679098E+03  0.41332679098E+03  0.00000000000E+00 0. -1.
          1   -1    0    0  501    0 -0.00000000000E+00 -0.00000000000E+00 -0.27056850764E+03  0.27056850764E+03  0.00000000000E+00 0. -1.
         25    2    1    2    0    0 -0.36476979913E+02  0.14263690967E+03 -0.23435417957E+02  0.19454772849E+03  0.12499496703E+03 0.  0.
          2    1    1    2  501    0  0.64651765759E+02 -0.12206716449E+03 -0.13084662907E+03  0.19026582405E+03  0.00000000000E+00 0. -1.
          1    1    1    2  502    0 -0.28174785846E+02 -0.20569745177E+02  0.29704033037E+03  0.29908174608E+03  0.00000000000E+00 0. -1.
         22    1    3    3    0    0 -0.38384963359E+02  0.94876243002E+01  0.31444758915E+02  0.50519236833E+02  0.00000000000E+00 0. -1.
         22    1    3    3    0    0  0.19079834458E+01  0.13314928537E+03 -0.54880176872E+02  0.14402849165E+03  0.00000000000E+00 0. -1.
</event>
<event>
 7    1  0.6219721E-006  0.1147950E+03  0.7818608E-02  0.1260501E+00
          2   -1    0    0  502    0  0.00000000000E+00  0.00000000000E+00  0.46685192238E+03  0.46685192238E+03  0.00000000000E+00 0. -1.
          1   -1    0    0  501    0 -0.00000000000E+00 -0.00000000000E+00 -0.10807060590E+04  0.10807060590E+04  0.00000000000E+00 0. -1.
         25    2    1    2    0    0 -0.49988732336E+02 -0.15911479211E+03 -0.52876010910E+03  0.56835628624E+03  0.12500089881E+03 0.  0.
          2    1    1    2  501    0 -0.37740102767E+02  0.10055732917E+03 -0.52036461276E+03  0.53133362591E+03  0.00000000000E+00 0. -1.
          1    1    1    2  502    0  0.87728835103E+02  0.58557462939E+02  0.43527058529E+03  0.44786806918E+03  0.00000000000E+00 0. -1.
         22    1    3    3    0    0 -0.37906471521E+02 -0.76047865606E+01 -0.36513472234E+02  0.53178633081E+02  0.00000000000E+00 0. -1.
         22    1    3    3    0    0 -0.12082260816E+02 -0.15151000555E+03 -0.49224663687E+03  0.51517765316E+03  0.00000000000E+00 0. -1.
</event>
<event>
 7    1  0.6219721E-006  0.8837406E+02  0.7818608E-02  0.1386594E+00
          2   -1    0    0  502    0  0.00000000000E+00  0.00000000000E+00  0.53314349135E+03  0.53314349135E+03  0.00000000000E+00 0. -1.
          1   -1    0    0  501    0 -0.00000000000E+00 -0.00000000000E+00 -0.30544375898E+03  0.30544375898E+03  0.00000000000E+00 0. -1.
         25    2    1    2    0    0  0.25224997135E+02 -0.53698460734E+02 -0.32741805457E+02  0.14218723404E+03  0.12500143413E+03 0.  0.
          2    1    1    2  501    0 -0.67566887018E+01  0.94264871702E+02 -0.20662460339E+03  0.22721189582E+03  0.00000000000E+00 0. -1.
          1    1    1    2  502    0 -0.18468308433E+02 -0.40566410968E+02  0.46706614121E+03  0.46918812046E+03  0.00000000000E+00 0. -1.
         22    1    3    3    0    0  0.63192427713E+02  0.34035262262E+01 -0.37308789582E+02  0.73463002193E+02  0.00000000000E+00 0. -1.
         22    1    3    3    0    0 -0.37967430578E+02 -0.57101986960E+02  0.45669841251E+01  0.68724231851E+02  0.00000000000E+00 0. -1.
</event>
<event>
 7    1  0.6219721E-006  0.6238213E+02  0.7818608E-02  0.1402817E+00
          2   -1    0    0  502    0  0.00000000000E+00  0.00000000000E+00  0.49285414186E+03  0.49285414186E+03  0.00000000000E+00 0. -1.
          1   -1    0    0  501    0 -0.00000000000E+00 -0.00000000000E+00 -0.11462824224E+03  0.11462824224E+03  0.00000000000E+00 0. -1.
         25    2    1    2    0    0 -0.49109747821E+02  0.93628757088E+02  0.82997607638E+02  0.18355310154E+03  0.12500010690E+03 0.  0.
          2    1    1    2  501    0  0.64368646115E+01 -0.58179223175E+02 -0.48337766503E+02  0.75913074670E+02  0.00000000000E+00 0. -1.
          1    1    1    2  502    0  0.42672883209E+02 -0.35449533913E+02  0.34356605848E+03  0.34801620789E+03  0.00000000000E+00 0. -1.
         22    1    3    3    0    0 -0.37993330541E+02  0.11979614561E+03  0.89624202027E+02  0.15436031633E+03  0.00000000000E+00 0.  1.
         22    1    3    3    0    0 -0.11116417280E+02 -0.26167388520E+02 -0.66265943890E+01  0.29192785209E+02  0.00000000000E+00 0.  1.
</event>
<event>
 7    1  0.6219721E-006  0.1760633E+03  0.7818608E-02  0.1326440E+00
          2   -1    0    0  502    0  0.00000000000E+00  0.00000000000E+00  0.17826819308E+04  0.17826819308E+04  0.00000000000E+00 0. -1.
          1   -1    0    0  501    0 -0.00000000000E+00 -0.00000000000E+00 -0.25925294738E+03  0.25925294738E+03  0.00000000000E+00 0. -1.
         25    2    1    2    0    0 -0.76733235179E+02 -0.11737986324E+03 -0.49003862027E+02  0.19414428948E+03  0.12499841987E+03 0.  0.
          2    1    1    2  501    0 -0.19442093730E+02 -0.31713128932E+02 -0.13047045542E+03  0.13566966239E+03  0.00000000000E+00 0. -1.
          1    1    1    2  502    0  0.96175328909E+02  0.14909299217E+03  0.17029033009E+04  0.17121209263E+04  0.00000000000E+00 0. -1.
         22    1    3    3    0    0 -0.95541171199E+02 -0.37062177248E+02 -0.10204369159E+02  0.10298470530E+03  0.00000000000E+00 0.  1.
         22    1    3    3    0    0  0.18807936020E+02 -0.80317685994E+02 -0.38799492868E+02  0.91159584179E+02  0.00000000000E+00 0.  1.
</event>
<event>
 7    1  0.6219721E-006  0.6528814E+02  0.7818608E-02  0.1410624E+00
          2   -1    0    0  502    0  0.00000000000E+00  0.00000000000E+00  0.98944130331E+03  0.98944130331E+03  0.00000000000E+00 0. -1.
          1   -1    0    0  501    0 -0.00000000000E+00 -0.00000000000E+00 -0.29569840083E+02  0.29569840083E+02  0.00000000000E+00 0. -1.
         25    2    1    2    0    0 -0.84095738396E+02 -0.38059145048E+02  0.51976617449E+03  0.54249639168E+03  0.12499946839E+03 0.  0.
          2    1    1    2  501    0  0.48302374658E+02 -0.12364689568E+02  0.23102422154E+02  0.54952041410E+02  0.00000000000E+00 0. -1.
          1    1    1    2  502    0  0.35793363738E+02  0.50423834616E+02  0.41700286658E+03  0.42156271030E+03  0.00000000000E+00 0. -1.
         22    1    3    3    0    0 -0.11002382136E+03 -0.52638474927E+02  0.36327717195E+03  0.38320536788E+03  0.00000000000E+00 0.  1.
         22    1    3    3    0    0  0.25928082967E+02  0.14579329879E+02  0.15648900254E+03  0.15929102380E+03  0.00000000000E+00 0.  1.
</event>
<event>
 7    1  0.6219721E-006  0.3967048E+02  0.7818608E-02  0.1615273E+00
          2   -1    0    0  502    0  0.00000000000E+00  0.00000000000E+00  0.22795634969E+04  0.22795634969E+04  0.00000000000E+00 0. -1.
          1   -1    0    0  501    0 -0.00000000000E+00 -0.00000000000E+00 -0.63307231953E+02  0.63307231953E+02  0.00000000000E+00 0. -1.
         25    2    1    2    0    0 -0.37754479712E+02 -0.78913025955E+00  0.78819119013E+03  0.79893593572E+03  0.12500901460E+03 0.  0.
          2    1    1    2  501    0  0.36539458085E+01 -0.20147926712E+02 -0.55847366900E+02  0.59482927470E+02  0.00000000000E+00 0. -1.
          1    1    1    2  502    0  0.34100533903E+02  0.20937056971E+02  0.14839124417E+04  0.14844518657E+04  0.00000000000E+00 0. -1.
         22    1    3    3    0    0 -0.56467915216E+02 -0.19853824642E+01  0.14721986706E+03  0.15769038160E+03  0.00000000000E+00 0. -1.
         22    1    3    3    0    0  0.18713435504E+02  0.11962522046E+01  0.64097132306E+03  0.64124555412E+03  0.00000000000E+00 0. -1.
</event>
<event>
 7    1  0.6219721E-006  0.9392077E+02  0.7818608E-02  0.1339863E+00
          2   -1    0    0  502    0  0.00000000000E+00  0.00000000000E+00  0.37508779557E+03  0.37508779557E+03  0.00000000000E+00 0. -1.
          1   -1    0    0  501    0 -0.00000000000E+00 -0.00000000000E+00 -0.17918087583E+04  0.17918087583E+04  0.00000000000E+00 0. -1.
         25    2    1    2    0    0  0.18907410728E+02 -0.40046789364E+02 -0.13349924848E+03  0.18817114662E+03  0.12500038223E+03 0.  0.
          2    1    1    2  501    0  0.64959931343E+01  0.96604462415E+02 -0.16267591192E+04  0.16296379512E+04  0.00000000000E+00 0. -1.
          1    1    1    2  502    0 -0.25403403862E+02 -0.56557673051E+02  0.34353740500E+03  0.34908745601E+03  0.00000000000E+00 0. -1.
         22    1    3    3    0    0 -0.93480105892E+00  0.24343524241E+02 -0.11603720370E+03  0.11856691642E+03  0.00000000000E+00 0. -1.
         22    1    3    3    0    0  0.19842211787E+02 -0.64390313605E+02 -0.17462044778E+02  0.69604230206E+02  0.00000000000E+00 0. -1.
</event>
<event>
 7    1  0.6219721E-006  0.4801078E+02  0.7818608E-02  0.1572525E+00
          2   -1    0    0  502    0  0.00000000000E+00  0.00000000000E+00  0.18008674787E+04  0.18008674787E+04  0.00000000000E+00 0. -1.
          1   -1    0    0  501    0 -0.00000000000E+00 -0.00000000000E+00 -0.64186702493E+03  0.64186702493E+03  0.00000000000E+00 0. -1.
         25    2    1    2    0    0 -0.21031945401E+02 -0.16460884392E+02  0.41279596820E+03  0.43213273726E+03  0.12499955125E+03 0.  0.
          2    1    1    2  501    0  0.33352249378E+02  0.34599723394E+02 -0.63119796651E+03  0.63302479124E+03  0.00000000000E+00 0. -1.
          1    1    1    2  502    0 -0.12320303977E+02 -0.18138839002E+02  0.13774024521E+04  0.13775769751E+04  0.00000000000E+00 0. -1.
         22    1    3    3    0    0 -0.45356791943E+01 -0.21105595104E+02  0.41436172572E+03  0.41492367764E+03  0.00000000000E+00 0. -1.
         22    1    3    3    0    0 -0.16496266207E+02  0.46447107126E+01 -0.15657575197E+01  0.17209059619E+02  0.00000000000E+00 0. -1.
</event>
<event>
 7    1  0.6219721E-006  0.7226288E+02  0.7818608E-02  0.1365835E+00
          2   -1    0    0  502    0  0.00000000000E+00  0.00000000000E+00  0.71725894673E+03  0.71725894673E+03  0.00000000000E+00 0. -1.
          1   -1    0    0  501    0 -0.00000000000E+00 -0.00000000000E+00 -0.62473457787E+03  0.62473457787E+03  0.00000000000E+00 0. -1.
         25    2    1    2    0    0 -0.11853990078E+02 -0.64342417400E+02  0.35338142681E+02  0.14544327587E+03  0.12499799363E+03 0.  0.
          2    1    1    2  501    0  0.66674828520E+02  0.30116775576E+02 -0.56565418369E+03  0.57036585491E+03  0.00000000000E+00 0. -1.
          1    1    1    2  502    0 -0.54820838441E+02  0.34225641824E+02  0.62284040987E+03  0.62618439381E+03  0.00000000000E+00 0. -1.
         22    1    3    3    0    0 -0.54013187181E+01 -0.93570765932E+02  0.55898624206E+02  0.10912982484E+03  0.00000000000E+00 0.  1.
         22    1    3    3    0    0 -0.64526713603E+01  0.29228348532E+02 -0.20560481525E+02  0.36313451036E+02  0.00000000000E+00 0.  1.
</event>
<event>
 7    1  0.6791527E-006  0.4418761E+02  0.7818608E-02  0.1589900E+00
          2   -1    0    0  502    0  0.00000000000E+00  0.00000000000E+00  0.10885527375E+04  0.10885527375E+04  0.00000000000E+00 0. -1.
          1   -1    0    0  501    0 -0.00000000000E+00 -0.00000000000E+00 -0.65871935107E+03  0.65871935107E+03  0.00000000000E+00 0. -1.
         25    2    1    2    0    0  0.41611001933E+02 -0.37844690674E+02 -0.31319939312E+03  0.34188075402E+03  0.12499957611E+03 0.  0.
          2    1    1    2  501    0 -0.21357703856E+02 -0.14147449566E+01 -0.33037863628E+03  0.33107128587E+03  0.00000000000E+00 0. -1.
          1    1    1    2  502    0 -0.20253298077E+02  0.39259435630E+02  0.10734114158E+04  0.10743200487E+04  0.00000000000E+00 0. -1.
         22    1    3    3    0    0  0.52855350244E+02 -0.30643705674E+02 -0.51684127262E+02  0.80024832132E+02  0.00000000000E+00 0. -1.
         22    1    3    3    0    0 -0.11244348312E+02 -0.72009849998E+01 -0.26151526585E+03  0.26185592189E+03  0.00000000000E+00 0. -1.
</event>
<event>
 7    1  0.6219721E-006  0.5370215E+02  0.7818608E-02  0.1434840E+00
          2   -1    0    0  502    0  0.00000000000E+00  0.00000000000E+00  0.36418696471E+04  0.36418696471E+04  0.00000000000E+00 0. -1.
          1   -1    0    0  501    0 -0.00000000000E+00 -0.00000000000E+00 -0.53884378739E+01  0.53884378739E+01  0.00000000000E+00 0. -1.
         25    2    1    2    0    0  0.94010997152E+01  0.29445684581E+02  0.19474292367E+04  0.19516815604E+04  0.12499940973E+03 0.  0.
          2    1    1    2  501    0 -0.55921668316E+02 -0.26173833223E+01  0.28216702883E+03  0.28766702252E+03  0.00000000000E+00 0. -1.
          1    1    1    2  502    0  0.46520568601E+02 -0.26828301258E+02  0.14068849438E+04  0.14079095021E+04  0.00000000000E+00 0. -1.
         22    1    3    3    0    0 -0.15448178193E+02  0.43276101751E+02  0.26110232229E+03  0.26511486170E+03  0.00000000000E+00 0. -1.
         22    1    3    3    0    0  0.24849277909E+02 -0.13830417170E+02  0.16863269144E+04  0.16865666987E+04  0.00000000000E+00 0. -1.
</event>
<event>
 7    1  0.6219721E-006  0.7115610E+02  0.7818608E-02  0.1424351E+00
          2   -1    0    0  502    0  0.00000000000E+00  0.00000000000E+00  0.16627213618E+04  0.16627213618E+04  0.00000000000E+00 0. -1.
          1   -1    0    0  501    0 -0.00000000000E+00 -0.00000000000E+00 -0.12349601700E+02  0.12349601700E+02  0.00000000000E+00 0. -1.
         25    2    1    2    0    0 -0.59147679584E+02  0.59431915821E+02  0.79788231732E+03  0.81195470107E+03  0.12499457463E+03 0.  0.
          2    1    1    2  501    0  0.66901583206E+02 -0.19020443202E+02  0.25819786179E+03  0.26740182297E+03  0.00000000000E+00 0. -1.
          1    1    1    2  502    0 -0.77539036222E+01 -0.40411472619E+02  0.59429158094E+03  0.59571443941E+03  0.00000000000E+00 0. -1.
         22    1    3    3    0    0 -0.69322659849E+02 -0.68981014511E+01  0.23565135918E+03  0.24573314399E+03  0.00000000000E+00 0.  1.
         22    1    3    3    0    0  0.10174980265E+02  0.66330017272E+02  0.56223095814E+03  0.56622155709E+03  0.00000000000E+00 0.  1.
</event>
<event>
 7    1  0.6219721E-006  0.2067389E+03  0.7818608E-02  0.1188027E+00
          2   -1    0    0  502    0  0.00000000000E+00  0.00000000000E+00  0.12837221440E+03  0.12837221440E+03  0.00000000000E+00 0. -1.
          1   -1    0    0  501    0 -0.00000000000E+00 -0.00000000000E+00 -0.16441393576E+04  0.16441393576E+04  0.00000000000E+00 0. -1.
         25    2    1    2    0    0  0.13420918800E+03  0.19779601967E+03 -0.88771807537E+03  0.92779496974E+03  0.12499901193E+03 0.  0.
          2    1    1    2  501    0 -0.12445324326E+03  0.85905389203E+01 -0.62577367306E+03  0.63808706068E+03  0.00000000000E+00 0. -1.
          1    1    1    2  502    0 -0.97559447417E+01 -0.20638655859E+03 -0.22753947490E+01  0.20662954156E+03  0.00000000000E+00 0. -1.
         22    1    3    3    0    0  0.15314540233E+03  0.14536436132E+03 -0.75179968219E+03  0.78088864375E+03  0.00000000000E+00 0. -1.
         22    1    3    3    0    0 -0.18936214322E+02  0.52431658344E+02 -0.13591839318E+03  0.14690632599E+03  0.00000000000E+00 0. -1.
</event>
<event>
 7    1  0.6219721E-006  0.1947895E+03  0.7818608E-02  0.1365232E+00
          2   -1    0    0  502    0  0.00000000000E+00  0.00000000000E+00  0.19215236495E+04  0.19215236495E+04  0.00000000000E+00 0. -1.
          1   -1    0    0  501    0 -0.00000000000E+00 -0.00000000000E+00 -0.14847711231E+03  0.14847711231E+03  0.00000000000E+00 0. -1.
         25    2    1    2    0    0  0.23277472296E+02 -0.20581948456E+03  0.27874075466E+03  0.36908623971E+03  0.12499897236E+03 0.  0.
          2    1    1    2  501    0 -0.39017072718E+02  0.18757406797E+03 -0.14294729900E+02  0.19212158192E+03  0.00000000000E+00 0. -1.
          1    1    1    2  502    0  0.15739600422E+02  0.18245416596E+02  0.15086005124E+04  0.15087929402E+04  0.00000000000E+00 0. -1.
         22    1    3    3    0    0  0.70030868104E+02 -0.10033290631E+03  0.10914802287E+03  0.16396434208E+03  0.00000000000E+00 0. -1.
         22    1    3    3    0    0 -0.46753395808E+02 -0.10548657825E+03  0.16959273180E+03  0.20512189763E+03  0.00000000000E+00 0. -1.
</event>
<event>
 7    1  0.6219721E-006  0.6112692E+02  0.7818608E-02  0.1444835E+00
          2   -1    0    0  502    0  0.00000000000E+00  0.00000000000E+00  0.94325744228E+03  0.94325744228E+03  0.00000000000E+00 0. -1.
          1   -1    0    0  501    0 -0.00000000000E+00 -0.00000000000E+00 -0.25780120522E+02  0.25780120522E+02  0.00000000000E+00 0. -1.
         25    2    1    2    0    0  0.74364808557E+02 -0.58830621900E+02  0.31111597505E+03  0.34843774134E+03  0.12499817133E+03 0.  0.
          2    1    1    2  501    0 -0.20771915267E+02  0.35409697410E+02  0.70697182982E+02  0.81752130346E+02  0.00000000000E+00 0. -1.
          1    1    1    2  502    0 -0.53592893290E+02  0.23420924490E+02  0.53566416373E+03  0.53884769111E+03  0.00000000000E+00 0. -1.
         22    1    3    3    0    0 -0.27345135216E+02  0.10455313543E+02  0.31867802947E+02  0.43273858921E+02  0.00000000000E+00 0. -1.
         22    1    3    3    0    0  0.10170994377E+03 -0.69285935443E+02  0.27924817210E+03  0.30516388242E+03  0.00000000000E+00 0. -1.
</event>
<event>
 7    1  0.6219721E-006  0.5513758E+02  0.7818608E-02  0.1509319E+00
          2   -1    0    0  502    0  0.00000000000E+00  0.00000000000E+00  0.14290628332E+04  0.14290628332E+04  0.00000000000E+00 0. -1.
          1   -1    0    0  501    0 -0.00000000000E+00 -0.00000000000E+00 -0.10475949950E+03  0.10475949950E+03  0.00000000000E+00 0. -1.
         25    2    1    2    0    0  0.25690702469E+02 -0.22292013956E+02  0.12860030219E+03  0.18254024956E+03  0.12500383558E+03 0.  0.
          2    1    1    2  501    0  0.27898987460E+02  0.71511767037E+01 -0.74492563787E+02  0.79866356428E+02  0.00000000000E+00 0. -1.
          1    1    1    2  502    0 -0.53589689929E+02  0.15140837252E+02  0.12701955953E+04  0.12714157267E+04  0.00000000000E+00 0. -1.
         22    1    3    3    0    0 -0.55263917364E+00  0.40747109806E+02  0.46361504772E+01  0.41013732564E+02  0.00000000000E+00 0.  1.
         22    1    3    3    0    0  0.26243341643E+02 -0.63039123762E+02  0.12396415171E+03  0.14152651700E+03  0.00000000000E+00 0.  1.
</event>
<event>
 7    1  0.6219721E-006  0.7030686E+02  0.7818608E-02  0.1378665E+00
          2   -1    0    0  502    0  0.00000000000E+00  0.00000000000E+00  0.70788471102E+03  0.70788471102E+03  0.00000000000E+00 0. -1.
          1   -1    0    0  501    0 -0.00000000000E+00 -0.00000000000E+00 -0.20116540875E+03  0.20116540875E+03  0.00000000000E+00 0. -1.
         25    2    1    2    0    0 -0.12198370520E+03 -0.23266678211E+02  0.79206956399E+02  0.19318172626E+03  0.12499629902E+03 0.  0.
          2    1    1    2  501    0  0.53592949492E+02  0.26425919159E+02 -0.13582402443E+03  0.14838699084E+03  0.00000000000E+00 0. -1.
          1    1    1    2  502    0  0.68390755711E+02 -0.31592409486E+01  0.56333637030E+03  0.56748140267E+03  0.00000000000E+00 0. -1.
         22    1    3    3    0    0 -0.29385668090E+02 -0.12570680292E+02  0.93560688451E+02  0.98869317362E+02  0.00000000000E+00 0. -1.
         22    1    3    3    0    0 -0.92598037113E+02 -0.10695997918E+02 -0.14353732052E+02  0.94312408900E+02  0.00000000000E+00 0. -1.
</event>
<event>
 7    1  0.6219721E-006  0.1031318E+03  0.7818608E-02  0.1416725E+00
          2   -1    0    0  502    0  0.00000000000E+00  0.00000000000E+00  0.11750922443E+03  0.11750922443E+03  0.00000000000E+00 0. -1.
          1   -1    0    0  501    0 -0.00000000000E+00 -0.00000000000E+00 -0.38625621539E+04  0.38625621539E+04  0.00000000000E+00 0. -1.
         25    2    1    2    0    0 -0.97497108826E+02 -0.49956184859E+02 -0.24192295364E+03  0.29351861591E+03  0.12500062301E+03 0.  0.
          2    1    1    2  501    0  0.75336912247E+02  0.70332396608E+02 -0.35916116400E+04  0.35930901003E+04  0.00000000000E+00 0. -1.
          1    1    1    2  502    0  0.22160196579E+02 -0.20376211749E+02  0.88481664163E+02  0.93462662120E+02  0.00000000000E+00 0. -1.
         22    1    3    3    0    0 -0.30282322753E+02  0.39198172356E+02 -0.43897638517E+02  0.66185485227E+02  0.00000000000E+00 0. -1.
         22    1    3    3    0    0 -0.67214786074E+02 -0.89154357215E+02 -0.19802531512E+03  0.22733313068E+03  0.00000000000E+00 0. -1.
</event>
<event>
 7    1  0.6219721E-006  0.5123498E+02  0.7818608E-02  0.1473598E+00
          2   -1    0    0  502    0  0.00000000000E+00  0.00000000000E+00  0.49871472035E+02  0.49871472035E+02  0.00000000000E+00 0. -1.
          1   -1    0    0  501    0 -0.00000000000E+00 -0.00000000000E+00 -0.84951669112E+03  0.84951669112E+03  0.00000000000E+00 0. -1.
         25    2    1    2    0    0  0.35561979612E+02  0.77541413371E+02 -0.17205605755E+03  0.22914130615E+03  0.12500050425E+03 0.  0.
          2    1    1    2  501    0 -0.22972675646E+02 -0.32419426345E+02 -0.62177366884E+03  0.62304193944E+03  0.00000000000E+00 0. -1.
          1    1    1    2  502    0 -0.12589303966E+02 -0.45121987026E+02 -0.58154926937E+01  0.47204917570E+02  0.00000000000E+00 0. -1.
         22    1    3    3    0    0 -0.45250796942E+02  0.19291453017E+02 -0.38186436674E+02  0.62273579705E+02  0.00000000000E+00 0. -1.
         22    1    3    3    0    0  0.80812776555E+02  0.58249960354E+02 -0.13386962088E+03  0.16686772645E+03  0.00000000000E+00 0. -1.
</event>
<event>
 7    1  0.6219721E-006  0.5311499E+02  0.7818608E-02  0.1555525E+00
          2   -1    0    0  502    0  0.00000000000E+00  0.00000000000E+00  0.22077557729E+03  0.22077557729E+03  0.00000000000E+00 0. -1.
          1   -1    0    0  501    0 -0.00000000000E+00 -0.00000000000E+00 -0.33118992592E+04  0.33118992592E+04  0.00000000000E+00 0. -1.
         25    2    1    2    0    0 -0.51174932353E+02 -0.12137510854E+02 -0.18605915709E+04  0.18655276439E+04  0.12500481425E+03 0.  0.
          2    1    1    2  501    0 -0.10179795103E+01  0.22039052723E+02 -0.14455223862E+04  0.14456907433E+04  0.00000000000E+00 0. -1.
          1    1    1    2  502    0  0.52192911863E+02 -0.99015418690E+01  0.21499027513E+03  0.22145644940E+03  0.00000000000E+00 0. -1.
         22    1    3    3    0    0  0.40957369130E+02  0.53069780802E+01 -0.64918678762E+03  0.65049915858E+03  0.00000000000E+00 0.  1.
         22    1    3    3    0    0 -0.92132301483E+02 -0.17444488935E+02 -0.12114047832E+04  0.12150284853E+04  0.00000000000E+00 0.  1.
</event>
<event>
 7    1  0.6219721E-006  0.1919255E+03  0.7818608E-02  0.1244099E+00
          2   -1    0    0  502    0  0.00000000000E+00  0.00000000000E+00  0.20764923028E+04  0.20764923028E+04  0.00000000000E+00 0. -1.
          1   -1    0    0  501    0 -0.00000000000E+00 -0.00000000000E+00 -0.38865095777E+03  0.38865095777E+03  0.00000000000E+00 0. -1.
         25    2    1    2    0    0 -0.66958898777E+02 -0.10209578376E+03  0.66063742220E+03  0.68335570087E+03  0.12500466833E+03 0.  0.
          2    1    1    2  501    0  0.88952361633E+02  0.17303926119E+03 -0.35114185175E+03  0.40144203642E+03  0.00000000000E+00 0. -1.
          1    1    1    2  502    0 -0.21993462856E+02 -0.70943477430E+02  0.13783457746E+04  0.13803455233E+04  0.00000000000E+00 0. -1.
         22    1    3    3    0    0 -0.83535546046E+01  0.15968301629E+02  0.12453431516E+02  0.21905626856E+02  0.00000000000E+00 0. -1.
         22    1    3    3    0    0 -0.58605344172E+02 -0.11806408539E+03  0.64818399069E+03  0.66145007401E+03  0.00000000000E+00 0. -1.
</event>
<event>
 7    1  0.6219721E-006  0.2911406E+02  0.7818608E-02  0.1634185E+00
          2   -1    0    0  502    0  0.00000000000E+00  0.00000000000E+00  0.67193786723E+03  0.67193786723E+03  0.00000000000E+00 0. -1.
          1   -1    0    0  501    0 -0.00000000000E+00 -0.00000000000E+00 -0.20102352963E+04  0.20102352963E+04  0.00000000000E+00 0. -1.
         25    2    1    2    0    0  0.28006177762E+02  0.17352141062E+02 -0.19413304949E+03  0.23323445261E+03  0.12500090474E+03 0.  0.
          2    1    1    2  501    0 -0.22331220550E+02  0.11213752301E+02 -0.17961395502E+04  0.17963133678E+04  0.00000000000E+00 0. -1.
          1    1    1    2  502    0 -0.56749572120E+01 -0.28565893363E+02  0.65197517060E+03  0.65262534312E+03  0.00000000000E+00 0. -1.
         22    1    3    3    0    0 -0.73255813428E+01  0.22973567528E+02 -0.19593474808E+03  0.19741295411E+03  0.00000000000E+00 0.  1.
         22    1    3    3    0    0  0.35331759104E+02 -0.56214264661E+01  0.18016985838E+01  0.35821498499E+02  0.00000000000E+00 0.  1.
</event>
<event>
 7    1  0.6219721E-006  0.1154055E+03  0.7818608E-02  0.1313745E+00
          2   -1    0    0  502    0  0.00000000000E+00  0.00000000000E+00  0.15257075698E+04  0.15257075698E+04  0.00000000000E+00 0. -1.
          1   -1    0    0  501    0 -0.00000000000E+00 -0.00000000000E+00 -0.23080461115E+02  0.23080461115E+02  0.00000000000E+00 0. -1.
         25    2    1    2    0    0 -0.13088840919E+02  0.69575809676E+01  0.61961404679E+03  0.63227199610E+03  0.12500633739E+03 0.  0.
          2    1    1    2  501    0 -0.90007070706E+02  0.72229906177E+02  0.40005636313E+03  0.41636945830E+03  0.00000000000E+00 0. -1.
          1    1    1    2  502    0  0.10309591162E+03 -0.79187487144E+02  0.48295669877E+03  0.50014657652E+03  0.00000000000E+00 0. -1.
         22    1    3    3    0    0  0.52146300983E+00 -0.43109446426E+02  0.50043878156E+03  0.50229241522E+03  0.00000000000E+00 0.  1.
         22    1    3    3    0    0 -0.13610303929E+02  0.50067027394E+02  0.11917526523E+03  0.12997958088E+03  0.00000000000E+00 0.  1.
</event>
<event>
 7    1  0.6219721E-006  0.1316759E+03  0.7818608E-02  0.1382501E+00
          2   -1    0    0  502    0  0.00000000000E+00  0.00000000000E+00  0.86722302905E+03  0.86722302905E+03  0.00000000000E+00 0. -1.
          1   -1    0    0  501    0 -0.00000000000E+00 -0.00000000000E+00 -0.80238322258E+03  0.80238322258E+03  0.00000000000E+00 0. -1.
         25    2    1    2    0    0 -0.15816555667E+03 -0.27708545471E+02  0.35130408735E+02  0.20650761936E+03  0.12500857742E+03 0.  0.
          2    1    1    2  501    0  0.30789160148E+02  0.28757281273E+01 -0.71071501711E+03  0.71138743153E+03  0.00000000000E+00 0. -1.
          1    1    1    2  502    0  0.12737639652E+03  0.24832817344E+02  0.74042441485E+03  0.75171120074E+03  0.00000000000E+00 0. -1.
         22    1    3    3    0    0 -0.10365349596E+03 -0.52297115272E+02 -0.28127062593E+02  0.11945780485E+03  0.00000000000E+00 0. -1.
         22    1    3    3    0    0 -0.54512060711E+02  0.24588569801E+02  0.63257471327E+02  0.87049814512E+02  0.00000000000E+00 0. -1.
</event>
<event>
 7    1  0.6219721E-006  0.6026303E+02  0.7818608E-02  0.1499073E+00
          2   -1    0    0  502    0  0.00000000000E+00  0.00000000000E+00  0.26770295773E+03  0.26770295773E+03  0.00000000000E+00 0. -1.
          1   -1    0    0  501    0 -0.00000000000E+00 -0.00000000000E+00 -0.68564172730E+03  0.68564172730E+03  0.00000000000E+00 0. -1.
         25    2    1    2    0    0 -0.85956433945E+02 -0.13090614037E+02 -0.11972396149E+03  0.19369849929E+03  0.12500163583E+03 0.  0.
          2    1    1    2  501    0  0.58862618996E+02  0.50485664366E+01 -0.52640632227E+03  0.52971115909E+03  0.00000000000E+00 0. -1.
          1    1    1    2  502    0  0.27093814949E+02  0.80420475999E+01  0.22819151419E+03  0.22993502666E+03  0.00000000000E+00 0. -1.
         22    1    3    3    0    0 -0.52716482345E+02 -0.17481632948E+02  0.12802949971E+02  0.56996057139E+02  0.00000000000E+00 0. -1.
         22    1    3    3    0    0 -0.33239951600E+02  0.43910189119E+01 -0.13252691146E+03  0.13670244215E+03  0.00000000000E+00 0. -1.
</event>
<event>
 7    1  0.6219721E-006  0.1115673E+03  0.7818608E-02  0.1377418E+00
          2   -1    0    0  502    0  0.00000000000E+00  0.00000000000E+00  0.11572557926E+04  0.11572557926E+04  0.00000000000E+00 0. -1.
          1   -1    0    0  501    0 -0.00000000000E+00 -0.00000000000E+00 -0.68715926611E+03  0.68715926611E+03  0.00000000000E+00 0. -1.
         25    2    1    2    0    0 -0.78832700717E+02  0.32350648803E+02 -0.18531435504E+02  0.15241063762E+03  0.12499771669E+03 0.  0.
          2    1    1    2  501    0 -0.32942397040E+02 -0.19024959126E+02 -0.59817700548E+03  0.59938541897E+03  0.00000000000E+00 0. -1.
          1    1    1    2  502    0  0.11177509776E+03 -0.13325689678E+02  0.10868049675E+04  0.10926190021E+04  0.00000000000E+00 0. -1.
         22    1    3    3    0    0 -0.38159608844E+01  0.19302884910E+01 -0.60895388361E+02  0.61045359322E+02  0.00000000000E+00 0.  1.
         22    1    3    3    0    0 -0.75016739833E+02  0.30420360312E+02  0.42363952858E+02  0.91365278298E+02  0.00000000000E+00 0.  1.
</event>
<event>
 7    1  0.6219721E-006  0.4452666E+02  0.7818608E-02  0.1514882E+00
          2   -1    0    0  502    0  0.00000000000E+00  0.00000000000E+00  0.82953218419E+03  0.82953218419E+03  0.00000000000E+00 0. -1.
          1   -1    0    0  501    0 -0.00000000000E+00 -0.00000000000E+00 -0.70148044278E+02  0.70148044278E+02  0.00000000000E+00 0. -1.
         25    2    1    2    0    0  0.59476892026E+01  0.73843709687E+02  0.18694806129E+03  0.23677460494E+03  0.12499746981E+03 0.  0.
          2    1    1    2  501    0 -0.14702983386E+02 -0.31042502932E+02 -0.37818837706E+02  0.51088934166E+02  0.00000000000E+00 0. -1.
          1    1    1    2  502    0  0.87552941835E+01 -0.42801206754E+02  0.61025491632E+03  0.61181668935E+03  0.00000000000E+00 0. -1.
         22    1    3    3    0    0  0.25734384890E+02  0.81208897922E+02  0.51192753766E+02  0.99387331716E+02  0.00000000000E+00 0. -1.
         22    1    3    3    0    0 -0.19786695687E+02 -0.73651882356E+01  0.13575530752E+03  0.13738727323E+03  0.00000000000E+00 0. -1.
</event>
<event>
 7    1  0.6219721E-006  0.2783658E+02  0.7818608E-02  0.1653864E+00
          2   -1    0    0  502    0  0.00000000000E+00  0.00000000000E+00  0.12646529962E+02  0.12646529962E+02  0.00000000000E+00 0. -1.
          1   -1    0    0  501    0 -0.00000000000E+00 -0.00000000000E+00 -0.97603357417E+03  0.97603357417E+03  0.00000000000E+00 0. -1.
         25    2    1    2    0    0 -0.29538768002E+02 -0.24946618134E+02 -0.79354993132E+03  0.80426468117E+03  0.12500124518E+03 0.  0.
          2    1    1    2  501    0  0.23277918443E+02 -0.20414723987E+01 -0.14602739683E+03  0.14788519101E+03  0.00000000000E+00 0. -1.
          1    1    1    2  502    0  0.62608495594E+01  0.26988090533E+02 -0.23809716056E+02  0.36530231952E+02  0.00000000000E+00 0. -1.
         22    1    3    3    0    0  0.47316519347E+02  0.24292450026E+00 -0.21925015221E+03  0.22429788510E+03  0.00000000000E+00 0.  1.
         22    1    3    3    0    0 -0.76855287348E+02 -0.25189542634E+02 -0.57429977911E+03  0.57996679607E+03  0.00000000000E+00 0.  1.
</event>
<event>
 7    1  0.6219721E-006  0.1580532E+03  0.7818608E-02  0.1355409E+00
          2   -1    0    0  502    0  0.00000000000E+00  0.00000000000E+00  0.97449982761E+03  0.97449982761E+03  0.00000000000E+00 0. -1.
          1   -1    0    0  501    0 -0.00000000000E+00 -0.00000000000E+00 -0.13884458966E+04  0.13884458966E+04  0.00000000000E+00 0. -1.
         25    2    1    2    0    0 -0.14498872430E+03 -0.31960623312E+02  0.66523484995E+03  0.69297092632E+03  0.12501234951E+03 0.  0.
          2    1    1    2  501    0  0.14451550482E+03  0.64208319115E+02 -0.13691326316E+04  0.13782349591E+04  0.00000000000E+00 0. -1.
          1    1    1    2  502    0  0.47321947466E+00 -0.32247695803E+02  0.28995171273E+03  0.29173983879E+03  0.00000000000E+00 0. -1.
         22    1    3    3    0    0 -0.21058961840E+02  0.40864647481E+02  0.10564228217E+03  0.11521150580E+03  0.00000000000E+00 0.  1.
         22    1    3    3    0    0 -0.12392976246E+03 -0.72825270793E+02  0.55959256778E+03  0.57775942052E+03  0.00000000000E+00 0.  1.
</event>
<event>
 7    1  0.6219721E-006  0.8496844E+02  0.7818608E-02  0.1357273E+00
          2   -1    0    0  502    0  0.00000000000E+00  0.00000000000E+00  0.18447616833E+04  0.18447616833E+04  0.00000000000E+00 0. -1.
          1   -1    0    0  501    0 -0.00000000000E+00 -0.00000000000E+00 -0.56174296573E+02  0.56174296573E+02  0.00000000000E+00 0. -1.
         25    2    1    2    0    0 -0.95388861596E+02  0.65350186945E+02  0.23888421479E+03  0.29336449707E+03  0.12500951250E+03 0.  0.
          2    1    1    2  501    0  0.80271818115E+02 -0.82637898365E+01  0.29040375634E+02  0.85762453457E+02  0.00000000000E+00 0. -1.
          1    1    1    2  502    0  0.15117043481E+02 -0.57086397109E+02  0.15206627963E+04  0.15218090293E+04  0.00000000000E+00 0. -1.
         22    1    3    3    0    0 -0.29910331451E+02 -0.69761901734E+01  0.17284439983E+03  0.17555193451E+03  0.00000000000E+00 0.  1.
         22    1    3    3    0    0 -0.65478530145E+02  0.72326377119E+02  0.66039814954E+02  0.11781256256E+03  0.00000000000E+00 0.  1.
</event>
<event>
 7    1  0.6219721E-006  0.1052031E+03  0.7818608E-02  0.1386905E+00
          2   -1    0    0  502    0  0.00000000000E+00  0.00000000000E+00  0.47021679285E+02  0.47021679285E+02  0.00000000000E+00 0. -1.
          1   -1    0    0  501    0 -0.00000000000E+00 -0.00000000000E+00 -0.82210446059E+03  0.82210446059E+03  0.00000000000E+00 0. -1.
         25    2    1    2    0    0  0.15412087500E+01 -0.96167581317E+02 -0.60665341115E+03  0.62681643977E+03  0.12497963392E+03 0.  0.
          2    1    1    2  501    0 -0.27024959935E+02  0.12347106820E+03 -0.16021377507E+03  0.20406838771E+03  0.00000000000E+00 0. -1.
          1    1    1    2  502    0  0.25483751185E+02 -0.27303486882E+02 -0.82155950874E+01  0.38241312386E+02  0.00000000000E+00 0. -1.
         22    1    3    3    0    0  0.37197996410E+02  0.17431528734E+01 -0.31331453201E+03  0.31551977036E+03  0.00000000000E+00 0.  1.
         22    1    3    3    0    0 -0.35656787660E+02 -0.97910734190E+02 -0.29333887914E+03  0.31129666941E+03  0.00000000000E+00 0.  1.
</event>
<event>
 7    1  0.6219721E-006  0.1720126E+03  0.7818608E-02  0.1232048E+00
          2   -1    0    0  502    0  0.00000000000E+00  0.00000000000E+00  0.89040329789E+03  0.89040329789E+03  0.00000000000E+00 0. -1.
          1   -1    0    0  501    0 -0.00000000000E+00 -0.00000000000E+00 -0.47677907217E+04  0.47677907217E+04  0.00000000000E+00 0. -1.
         25    2    1    2    0    0 -0.62211792528E+02 -0.82714699989E+02 -0.12496805517E+03  0.20482695906E+03  0.12500015847E+03 0.  0.
          2    1    1    2  501    0 -0.93697044454E+02  0.31871188473E+00 -0.45932693126E+04  0.45942248765E+04  0.00000000000E+00 0. -1.
          1    1    1    2  502    0  0.15590883698E+03  0.82395988104E+02  0.84084994391E+03  0.85914218409E+03  0.00000000000E+00 0. -1.
         22    1    3    3    0    0 -0.68506765634E+02 -0.86017425100E+02 -0.36192613441E+02  0.11576735130E+03  0.00000000000E+00 0. -1.
         22    1    3    3    0    0  0.62949731065E+01  0.33027251111E+01 -0.88775441731E+02  0.89059607759E+02  0.00000000000E+00 0. -1.
</event>
<event>
 7    1  0.6219721E-006  0.6703161E+02  0.7818608E-02  0.1508069E+00
          2   -1    0    0  502    0  0.00000000000E+00  0.00000000000E+00  0.18593364342E+03  0.18593364342E+03  0.00000000000E+00 0. -1.
          1   -1    0    0  501    0 -0.00000000000E+00 -0.00000000000E+00 -0.14255148489E+04  0.14255148489E+04  0.00000000000E+00 0. -1.
         25    2    1    2    0    0  0.43656063202E+02  0.34448819900E+02 -0.10439584563E+02  0.13721239411E+03  0.12500273247E+03 0.  0.
          2    1    1    2  501    0  0.21144721163E+02 -0.11124207816E+02 -0.13418978871E+04  0.13421105717E+04  0.00000000000E+00 0. -1.
          1    1    1    2  502    0 -0.64800784366E+02 -0.23324612084E+02  0.11275626621E+03  0.13212552650E+03  0.00000000000E+00 0. -1.
         22    1    3    3    0    0  0.57829359171E+02  0.24437540173E+02 -0.58686950989E+02  0.85939434302E+02  0.00000000000E+00 0.  1.
         22    1    3    3    0    0 -0.14173295968E+02  0.10011279727E+02  0.48247366427E+02  0.51272959808E+02  0.00000000000E+00 0.  1.
</event>
<event>
 7    1  0.6219721E-006  0.3607962E+02  0.7818608E-02  0.1598007E+00
          2   -1    0    0  502    0  0.00000000000E+00  0.00000000000E+00  0.27454836226E+04  0.27454836226E+04  0.00000000000E+00 0. -1.
          1   -1    0    0  501    0 -0.00000000000E+00 -0.00000000000E+00 -0.39071535501E+02  0.39071535501E+02  0.00000000000E+00 0. -1.
         25    2    1    2    0    0 -0.14742463120E+02  0.17090663449E+02  0.18624607877E+03  0.22543834330E+03  0.12500165510E+03 0.  0.
          2    1    1    2  501    0 -0.21245096056E+02 -0.13096017991E+02 -0.11296957365E+02  0.27394909005E+02  0.00000000000E+00 0. -1.
          1    1    1    2  502    0  0.35987559176E+02 -0.39946454577E+01  0.25314629656E+04  0.25317219057E+04  0.00000000000E+00 0. -1.
         22    1    3    3    0    0  0.47195214149E+02  0.22906820700E+02  0.13501406384E+03  0.14484787920E+03  0.00000000000E+00 0.  1.
         22    1    3    3    0    0 -0.61937677270E+02 -0.58161572512E+01  0.51232014930E+02  0.80590464104E+02  0.00000000000E+00 0.  1.
</event>
<event>
 7    1  0.6219721E-006  0.1025876E+03  0.7818608E-02  0.1437687E+00
          2   -1    0    0  502    0  0.00000000000E+00  0.00000000000E+00  0.14843699068E+04  0.14843699068E+04  0.00000000000E+00 0. -1.
          1   -1    0    0  501    0 -0.00000000000E+00 -0.00000000000E+00 -0.76867683370E+03  0.76867683370E+03  0.00000000000E+00 0. -1.
         25    2    1    2    0    0  0.80592139979E+02 -0.47409970315E+02  0.18650414353E+03  0.24321148183E+03  0.12500092411E+03 0.  0.
          2    1    1    2  501    0 -0.66374831545E+01 -0.24932476534E+02 -0.73798970850E+03  0.73844058286E+03  0.00000000000E+00 0. -1.
          1    1    1    2  502    0 -0.73954656825E+02  0.72342446849E+02  0.12671786381E+04  0.12713946758E+04  0.00000000000E+00 0. -1.
         22    1    3    3    0    0  0.96110368354E+01  0.32618073691E+02  0.77213400041E+01  0.34870185716E+02  0.00000000000E+00 0. -1.
         22    1    3    3    0    0  0.70981103144E+02 -0.80028044006E+02  0.17878280352E+03  0.20834129611E+03  0.00000000000E+00 0. -1.
</event>
<event>
 7    1  0.6219721E-006  0.3768452E+02  0.7818608E-02  0.1620413E+00
          2   -1    0    0  502    0  0.00000000000E+00  0.00000000000E+00  0.10337566671E+04  0.10337566671E+04  0.00000000000E+00 0. -1.
          1   -1    0    0  501    0 -0.00000000000E+00 -0.00000000000E+00 -0.87666536478E+02  0.87666536478E+02  0.00000000000E+00 0. -1.
         25    2    1    2    0    0  0.17481317956E+00 -0.57516840699E+02 -0.18478362359E+01  0.13761530234E+03  0.12500535755E+03 0.  0.
          2    1    1    2  501    0 -0.51627376973E+01  0.20266652908E+02 -0.11342394601E+02  0.23791616084E+02  0.00000000000E+00 0. -1.
          1    1    1    2  502    0  0.49879245178E+01  0.37250187791E+02  0.95928036150E+03  0.96001628520E+03  0.00000000000E+00 0. -1.
         22    1    3    3    0    0 -0.52836729841E+02  0.37729068675E+01  0.14560217218E+02  0.54935915137E+02  0.00000000000E+00 0. -1.
         22    1    3    3    0    0  0.53011543020E+02 -0.61289747566E+02 -0.16408053454E+02  0.82679387203E+02  0.00000000000E+00 0. -1.
</event>
<event>
 7    1  0.6219721E-006  0.5558266E+02  0.7818608E-02  0.1435649E+00
          2   -1    0    0  502    0  0.00000000000E+00  0.00000000000E+00  0.31681062845E+03  0.31681062845E+03  0.00000000000E+00 0. -1.
          1   -1    0    0  501    0 -0.00000000000E+00 -0.00000000000E+00 -0.17695909953E+04  0.17695909953E+04  0.00000000000E+00 0. -1.
         25    2    1    2    0    0 -0.67323014819E+02  0.77907009199E+02 -0.88635449909E+03  0.90102769840E+03  0.12499889922E+03 0.  0.
          2    1    1    2  501    0  0.26344069132E+02 -0.40547588181E+02 -0.87274121029E+03  0.87407970862E+03  0.00000000000E+00 0. -1.
          1    1    1    2  502    0  0.40978945688E+02 -0.37359421018E+02  0.30631534251E+03  0.31129421676E+03  0.00000000000E+00 0. -1.
         22    1    3    3    0    0 -0.37684317981E+02 -0.10024024335E+02 -0.76409138362E+02  0.85784295245E+02  0.00000000000E+00 0. -1.
         22    1    3    3    0    0 -0.29638696839E+02  0.87931033534E+02 -0.80994536073E+03  0.81524340315E+03  0.00000000000E+00 0. -1.
</event>
<event>
 7    1  0.6219721E-006  0.5367920E+02  0.7818608E-02  0.1452956E+00
          2   -1    0    0  502    0  0.00000000000E+00  0.00000000000E+00  0.63071903409E+03  0.63071903409E+03  0.00000000000E+00 0. -1.
          1   -1    0    0  501    0 -0.00000000000E+00 -0.00000000000E+00 -0.10787296353E+03  0.10787296353E+03  0.00000000000E+00 0. -1.
         25    2    1    2    0    0 -0.44033698059E+02 -0.27459957998E+02 -0.33982442238E+02  0.13954495620E+03  0.12499989025E+03 0.  0.
          2    1    1    2  501    0  0.61909495355E+02 -0.12777306475E+02  0.29282981983E+02  0.69667339620E+02  0.00000000000E+00 0. -1.
          1    1    1    2  502    0 -0.17875797296E+02  0.40237264473E+02  0.52754553082E+03  0.52937970179E+03  0.00000000000E+00 0. -1.
         22    1    3    3    0    0 -0.37755045715E+02  0.41750584944E+02  0.10182974714E+02  0.57203564523E+02  0.00000000000E+00 0. -1.
         22    1    3    3    0    0 -0.62786523439E+01 -0.69210542942E+02 -0.44165416952E+02  0.82341391682E+02  0.00000000000E+00 0. -1.
</event>
<event>
 7    1  0.6219721E-006  0.1106589E+03  0.7818608E-02  0.1299054E+00
          2   -1    0    0  502    0  0.00000000000E+00  0.00000000000E+00  0.12816711310E+04  0.12816711310E+04  0.00000000000E+00 0. -1.
          1   -1    0    0  501    0 -0.00000000000E+00 -0.00000000000E+00 -0.25801958900E+03  0.25801958900E+03  0.00000000000E+00 0. -1.
         25    2    1    2    0    0  0.47291573312E+02  0.65412454672E+01  0.93425631357E+03  0.94378980654E+03  0.12500023477E+03 0.  0.
          2    1    1    2  501    0 -0.10144907979E+03  0.46494736367E+02 -0.23639313777E+03  0.26141038978E+03  0.00000000000E+00 0. -1.
          1    1    1    2  502    0  0.54157506483E+02 -0.53035981834E+02  0.32578836624E+03  0.33449052371E+03  0.00000000000E+00 0. -1.
         22    1    3    3    0    0 -0.21143990422E+02  0.44960921642E+02  0.23844521029E+03  0.24356656404E+03  0.00000000000E+00 0. -1.
         22    1    3    3    0    0  0.68435563733E+02 -0.38419676175E+02  0.69581110328E+03  0.70022324250E+03  0.00000000000E+00 0. -1.
</event>
<event>
 7    1  0.6219721E-006  0.1264705E+03  0.7818608E-02  0.1271300E+00
          2   -1    0    0  502    0  0.00000000000E+00  0.00000000000E+00  0.10443228430E+04  0.10443228430E+04  0.00000000000E+00 0. -1.
          1   -1    0    0  501    0 -0.00000000000E+00 -0.00000000000E+00 -0.43128885219E+03  0.43128885219E+03  0.00000000000E+00 0. -1.
         25    2    1    2    0    0  0.56932989546E+02 -0.95087530025E+02  0.32640549226E+03  0.36667203931E+03  0.12499934147E+03 0.  0.
          2    1    1    2  501    0  0.72656094883E+02  0.46358815642E+02 -0.39964887445E+03  0.40883648413E+03  0.00000000000E+00 0. -1.
          1    1    1    2  502    0 -0.12958908443E+03  0.48728714383E+02  0.68627737302E+03  0.70010317178E+03  0.00000000000E+00 0. -1.
         22    1    3    3    0    0  0.33001022181E+02  0.88623964041E+00  0.21571477177E+03  0.21822629458E+03  0.00000000000E+00 0.  1.
         22    1    3    3    0    0  0.23931967364E+02 -0.95973769665E+02  0.11069072050E+03  0.14844574473E+03  0.00000000000E+00 0.  1.
</event>
<event>
 7    1  0.6219721E-006  0.1420083E+03  0.7818608E-02  0.1213154E+00
          2   -1    0    0  502    0  0.00000000000E+00  0.00000000000E+00  0.23877616796E+04  0.23877616796E+04  0.00000000000E+00 0. -1.
          1   -1    0    0  501    0 -0.00000000000E+00 -0.00000000000E+00 -0.12158471825E+04  0.12158471825E+04  0.00000000000E+00 0. -1.
         25    2    1    2    0    0 -0.90010656044E+02 -0.16423352684E+03  0.11831069220E+04  0.12043422276E+04  0.12499457099E+03 0.  0.
          2    1    1    2  501    0  0.13781118333E+03  0.34482168187E+02 -0.11970119881E+04  0.12054122290E+04  0.00000000000E+00 0. -1.
          1    1    1    2  502    0 -0.47800527290E+02  0.12975135865E+03  0.11858195631E+04  0.11938544055E+04  0.00000000000E+00 0. -1.
         22    1    3    3    0    0 -0.53873018212E+02 -0.96534676135E+02  0.99590019275E+03  0.10020171853E+04  0.00000000000E+00 0.  1.
         22    1    3    3    0    0 -0.36137637832E+02 -0.67698850706E+02  0.18720672927E+03  0.20232504229E+03  0.00000000000E+00 0.  1.
</event>
<event>
 7    1  0.6219721E-006  0.7587793E+02  0.7818608E-02  0.1489028E+00
          2   -1    0    0  502    0  0.00000000000E+00  0.00000000000E+00  0.74920209649E+03  0.74920209649E+03  0.00000000000E+00 0. -1.
          1   -1    0    0  501    0 -0.00000000000E+00 -0.00000000000E+00 -0.71999681486E+03  0.71999681486E+03  0.00000000000E+00 0. -1.
         25    2    1    2    0    0 -0.21827503106E+02 -0.82834384444E+02  0.59811200698E+03  0.61701139112E+03  0.12500843468E+03 0.  0.
          2    1    1    2  501    0 -0.93482083012E+01  0.22173606159E+02 -0.70211871014E+03  0.70253095373E+03  0.00000000000E+00 0. -1.
          1    1    1    2  502    0  0.31175711407E+02  0.60660778285E+02  0.13321198479E+03  0.14965656650E+03  0.00000000000E+00 0. -1.
         22    1    3    3    0    0 -0.21779972409E+02  0.29187529686E+02  0.20673579779E+03  0.20991895858E+03  0.00000000000E+00 0. -1.
         22    1    3    3    0    0 -0.47530696970E-01 -0.11202191413E+03  0.39137620920E+03  0.40709243254E+03  0.00000000000E+00 0. -1.
</event>
<event>
 7    1  0.6219721E-006  0.5184517E+02  0.7818608E-02  0.1446715E+00
          2   -1    0    0  502    0  0.00000000000E+00  0.00000000000E+00  0.25258092712E+04  0.25258092712E+04  0.00000000000E+00 0. -1.
          1   -1    0    0  501    0 -0.00000000000E+00 -0.00000000000E+00 -0.70261314515E+03  0.70261314515E+03  0.00000000000E+00 0. -1.
         25    2    1    2    0    0  0.44072854534E+02  0.21035493963E+02  0.19958279699E+02  0.13568098720E+03  0.12500435531E+03 0.  0.
          2    1    1    2  501    0  0.50974139132E+00 -0.47729473372E+02 -0.64359213302E+03  0.64535974165E+03  0.00000000000E+00 0. -1.
          1    1    1    2  502    0 -0.44582595926E+02  0.26693979409E+02  0.24468299793E+04  0.24473816875E+04  0.00000000000E+00 0. -1.
         22    1    3    3    0    0 -0.33608438609E+02 -0.26672758552E+02  0.92530409604E+01  0.43892846359E+02  0.00000000000E+00 0.  1.
         22    1    3    3    0    0  0.77681293144E+02  0.47708252515E+02  0.10705238738E+02  0.91788140840E+02  0.00000000000E+00 0.  1.
</event>
<event>
 7    1  0.6219721E-006  0.1038491E+03  0.7818608E-02  0.1377965E+00
          2   -1    0    0  502    0  0.00000000000E+00  0.00000000000E+00  0.12074655420E+04  0.12074655420E+04  0.00000000000E+00 0. -1.
          1   -1    0    0  501    0 -0.00000000000E+00 -0.00000000000E+00 -0.95264842547E+03  0.95264842547E+03  0.00000000000E+00 0. -1.
         25    2    1    2    0    0 -0.40006968203E+02  0.13115089892E+03 -0.15339168680E+03  0.24074149074E+03  0.12500535986E+03 0.  0.
          2    1    1    2  501    0 -0.85741414575E+01 -0.39772587133E+02 -0.75273066394E+03  0.75382944160E+03  0.00000000000E+00 0. -1.
          1    1    1    2  502    0  0.48581109660E+02 -0.91378311784E+02  0.11609394673E+04  0.11655430352E+04  0.00000000000E+00 0. -1.
         22    1    3    3    0    0 -0.55082685436E+02  0.76293932425E+01 -0.22074255431E+02  0.59829613311E+02  0.00000000000E+00 0. -1.
         22    1    3    3    0    0  0.15075717234E+02  0.12352150567E+03 -0.13131743137E+03  0.18091187743E+03  0.00000000000E+00 0. -1.
</event>
<event>
 7    1  0.6219721E-006  0.1023436E+03  0.7818608E-02  0.1463744E+00
          2   -1    0    0  502    0  0.00000000000E+00  0.00000000000E+00  0.14247899980E+04  0.14247899980E+04  0.00000000000E+00 0. -1.
          1   -1    0    0  501    0 -0.00000000000E+00 -0.00000000000E+00 -0.89277052845E+03  0.89277052845E+03  0.00000000000E+00 0. -1.
         25    2    1    2    0    0 -0.71070387894E+02 -0.64194343422E+02  0.63356730973E+03  0.65284300126E+03  0.12499813826E+03 0.  0.
          2    1    1    2  501    0  0.77737723190E+01 -0.19883234641E+02 -0.87945991173E+03  0.87971899542E+03  0.00000000000E+00 0. -1.
          1    1    1    2  502    0  0.63296615575E+02  0.84077578063E+02  0.77791207152E+03  0.78499852974E+03  0.00000000000E+00 0. -1.
         22    1    3    3    0    0 -0.12498407824E+02 -0.65663902317E+02  0.52707832370E+03  0.53129983773E+03  0.00000000000E+00 0. -1.
         22    1    3    3    0    0 -0.58571980071E+02  0.14695588956E+01  0.10648898603E+03  0.12154316352E+03  0.00000000000E+00 0. -1.
</event>
<event>
 7    1  0.6219721E-006  0.5338175E+02  0.7818608E-02  0.1485984E+00
          2   -1    0    0  502    0  0.00000000000E+00  0.00000000000E+00  0.11560309183E+04  0.11560309183E+04  0.00000000000E+00 0. -1.
          1   -1    0    0  501    0 -0.00000000000E+00 -0.00000000000E+00 -0.14139406222E+03  0.14139406222E+03  0.00000000000E+00 0. -1.
         25    2    1    2    0    0 -0.33980094897E+02 -0.25077793114E+02  0.40679327580E+02  0.13806198025E+03  0.12499104024E+03 0.  0.
          2    1    1    2  501    0  0.55172433184E+02 -0.27015863622E+01 -0.84159988893E+02  0.10066876220E+03  0.00000000000E+00 0. -1.
          1    1    1    2  502    0 -0.21192338287E+02  0.27779379476E+02  0.10581175173E+04  0.10586942380E+04  0.00000000000E+00 0. -1.
         22    1    3    3    0    0 -0.73590886232E+02 -0.23813884927E+02 -0.50945446815E+01  0.77515637372E+02  0.00000000000E+00 0. -1.
         22    1    3    3    0    0  0.39610791335E+02 -0.12639081865E+01  0.45773872262E+02  0.60546342878E+02  0.00000000000E+00 0. -1.
</event>
<event>
 7    1  0.6219721E-006  0.2480573E+03  0.7818608E-02  0.1254462E+00
          2   -1    0    0  502    0  0.00000000000E+00  0.00000000000E+00  0.54812514216E+03  0.54812514216E+03  0.00000000000E+00 0. -1.
          1   -1    0    0  501    0 -0.00000000000E+00 -0.00000000000E+00 -0.58612349847E+03  0.58612349847E+03  0.00000000000E+00 0. -1.
         25    2    1    2    0    0 -0.24213588698E+03  0.82557267644E+01  0.74550554619E+02  0.28263168228E+03  0.12499975140E+03 0.  0.
          2    1    1    2  501    0  0.24612732490E+03  0.43399754400E+02 -0.44756553963E+03  0.51261789962E+03  0.00000000000E+00 0. -1.
          1    1    1    2  502    0 -0.39914379227E+01 -0.51655481164E+02  0.33501662870E+03  0.33899905873E+03  0.00000000000E+00 0. -1.
         22    1    3    3    0    0 -0.79489874401E+02  0.11744142476E+02  0.88276248580E+02  0.11937026882E+03  0.00000000000E+00 0. -1.
         22    1    3    3    0    0 -0.16264601257E+03 -0.34884157117E+01 -0.13725693960E+02  0.16326141346E+03  0.00000000000E+00 0. -1.
</event>
<event>
 7    1  0.6219721E-006  0.5232240E+02  0.7818608E-02  0.1469052E+00
          2   -1    0    0  502    0  0.00000000000E+00  0.00000000000E+00  0.16926055093E+04  0.16926055093E+04  0.00000000000E+00 0. -1.
          1   -1    0    0  501    0 -0.00000000000E+00 -0.00000000000E+00 -0.35176402529E+02  0.35176402529E+02  0.00000000000E+00 0. -1.
         25    2    1    2    0    0 -0.86909593148E+01  0.28908971252E+02  0.54466418137E+03  0.55963837187E+03  0.12499910161E+03 0.  0.
          2    1    1    2  501    0  0.48502870992E+02 -0.23385807708E+02 -0.80121625740E+00  0.53852264986E+02  0.00000000000E+00 0. -1.
          1    1    1    2  502    0 -0.39811911677E+02 -0.55231635444E+01  0.11135661417E+04  0.11142912750E+04  0.00000000000E+00 0. -1.
         22    1    3    3    0    0 -0.38736758495E+02  0.51193660385E+02  0.48490718204E+03  0.48913832656E+03  0.00000000000E+00 0. -1.
         22    1    3    3    0    0  0.30045799181E+02 -0.22284689133E+02  0.59756999340E+02  0.70500045307E+02  0.00000000000E+00 0. -1.
</event>
<event>
 7    1  0.6219721E-006  0.1288380E+03  0.7818608E-02  0.1299845E+00
          2   -1    0    0  502    0  0.00000000000E+00  0.00000000000E+00  0.12330780544E+04  0.12330780544E+04  0.00000000000E+00 0. -1.
          1   -1    0    0  501    0 -0.00000000000E+00 -0.00000000000E+00 -0.25238069485E+04  0.25238069485E+04  0.00000000000E+00 0. -1.
         25    2    1    2    0    0  0.40390951194E+02 -0.18436036929E+03 -0.18735189716E+03  0.29384740358E+03  0.12500155406E+03 0.  0.
          2    1    1    2  501    0 -0.31017094261E+02  0.56703704846E+02 -0.22792761458E+04  0.22801923425E+04  0.00000000000E+00 0. -1.
          1    1    1    2  502    0 -0.93738569322E+01  0.12765666445E+03  0.11758991488E+04  0.11828452567E+04  0.00000000000E+00 0. -1.
         22    1    3    3    0    0  0.57769277961E+02 -0.17268253049E+03 -0.10784444829E+03  0.21162932415E+03  0.00000000000E+00 0.  1.
         22    1    3    3    0    0 -0.17378326768E+02 -0.11677838806E+02 -0.79507448867E+02  0.82218079434E+02  0.00000000000E+00 0.  1.
</event>
<event>
 7    1  0.6219721E-006  0.1469614E+03  0.7818608E-02  0.1350880E+00
          2   -1    0    0  502    0  0.00000000000E+00  0.00000000000E+00  0.44837971362E+03  0.44837971362E+03  0.00000000000E+00 0. -1.
          1   -1    0    0  501    0 -0.00000000000E+00 -0.00000000000E+00 -0.11135023760E+04  0.11135023760E+04  0.00000000000E+00 0. -1.
         25    2    1    2    0    0 -0.11727134519E+03  0.19167431378E+02 -0.33942141360E+03  0.38072513232E+03  0.12499908617E+03 0.  0.
          2    1    1    2  501    0 -0.23152536201E+02  0.27626368226E+02 -0.74017220523E+03  0.74104935703E+03  0.00000000000E+00 0. -1.
          1    1    1    2  502    0  0.14042388139E+03 -0.46793799604E+02  0.41447095641E+03  0.44010760031E+03  0.00000000000E+00 0. -1.
         22    1    3    3    0    0 -0.11013543648E+03 -0.14945129298E+02 -0.14237582851E+03  0.18062128280E+03  0.00000000000E+00 0.  1.
         22    1    3    3    0    0 -0.71359087174E+01  0.34112560675E+02 -0.19704558509E+03  0.20010384952E+03  0.00000000000E+00 0.  1.
</event>
<event>
 7    1  0.6219721E-006  0.9154726E+02  0.7818608E-02  0.1358445E+00
          2   -1    0    0  502    0  0.00000000000E+00  0.00000000000E+00  0.11069706956E+03  0.11069706956E+03  0.00000000000E+00 0. -1.
          1   -1    0    0  501    0 -0.00000000000E+00 -0.00000000000E+00 -0.12235866842E+04  0.12235866842E+04  0.00000000000E+00 0. -1.
         25    2    1    2    0    0 -0.13630940076E+03 -0.29610830729E+02 -0.30549441202E+03  0.35833666529E+03  0.12498510264E+03 0.  0.
          2    1    1    2  501    0  0.87507480870E+02  0.58673687922E+01 -0.88052345092E+03  0.88488051897E+03  0.00000000000E+00 0. -1.
          1    1    1    2  502    0  0.48801919889E+02  0.23743461937E+02  0.73128248336E+02  0.91066569466E+02  0.00000000000E+00 0. -1.
         22    1    3    3    0    0 -0.19440788712E+02 -0.58945080041E+02 -0.14431630461E+03  0.15709762093E+03  0.00000000000E+00 0. -1.
         22    1    3    3    0    0 -0.11686861205E+03  0.29334249312E+02 -0.16117810741E+03  0.20123904435E+03  0.00000000000E+00 0. -1.
</event>
<event>
 7    1  0.6219721E-006  0.1275242E+03  0.7818608E-02  0.1302620E+00
          2   -1    0    0  502    0  0.00000000000E+00  0.00000000000E+00  0.16637268236E+04  0.16637268236E+04  0.00000000000E+00 0. -1.
          1   -1    0    0  501    0 -0.00000000000E+00 -0.00000000000E+00 -0.27274125545E+04  0.27274125545E+04  0.00000000000E+00 0. -1.
         25    2    1    2    0    0  0.52401267684E+02 -0.98688257888E+02 -0.36950290731E+02  0.17168441798E+03  0.12499980117E+03 0.  0.
          2    1    1    2  501    0 -0.56393389784E+02 -0.29520583267E+02 -0.26201313289E+04  0.26209043973E+04  0.00000000000E+00 0. -1.
          1    1    1    2  502    0  0.39921221002E+01  0.12820884116E+03  0.15933958887E+04  0.15985505628E+04  0.00000000000E+00 0. -1.
         22    1    3    3    0    0 -0.26754603112E+02 -0.13856085993E+02  0.25897330053E+02  0.39729983773E+02  0.00000000000E+00 0.  1.
         22    1    3    3    0    0  0.79155870796E+02 -0.84832171895E+02 -0.62847620784E+02  0.13195443421E+03  0.00000000000E+00 0.  1.
</event>
<event>
 7    1  0.6219721E-006  0.1211906E+03  0.7818608E-02  0.1384211E+00
          2   -1    0    0  502    0  0.00000000000E+00  0.00000000000E+00  0.25973955750E+04  0.25973955750E+04  0.00000000000E+00 0. -1.
          1   -1    0    0  501    0 -0.00000000000E+00 -0.00000000000E+00 -0.11713436029E+04  0.11713436029E+04  0.00000000000E+00 0. -1.
         25    2    1    2    0    0  0.14989057601E+03 -0.46933245945E+01  0.13209853222E+04  0.13353337104E+04  0.12499873853E+03 0.  0.
          2    1    1    2  501    0 -0.12063639660E+03 -0.10867908943E+02 -0.11608014364E+04  0.11671037771E+04  0.00000000000E+00 0. -1.
          1    1    1    2  502    0 -0.29254179406E+02  0.15561233537E+02  0.12658680863E+04  0.12663016904E+04  0.00000000000E+00 0. -1.
         22    1    3    3    0    0  0.14056104214E+03  0.42043260284E+02  0.94036186507E+03  0.95173813603E+03  0.00000000000E+00 0. -1.
         22    1    3    3    0    0  0.93295338687E+01 -0.46736584878E+02  0.38062345711E+03  0.38359557436E+03  0.00000000000E+00 0. -1.
</event>
<event>
 7    1  0.6219721E-006  0.6212703E+02  0.7818608E-02  0.1464886E+00
          2   -1    0    0  502    0  0.00000000000E+00  0.00000000000E+00  0.23231759743E+04  0.23231759743E+04  0.00000000000E+00 0. -1.
          1   -1    0    0  501    0 -0.00000000000E+00 -0.00000000000E+00 -0.80292838559E+02  0.80292838559E+02  0.00000000000E+00 0. -1.
         25    2    1    2    0    0  0.45239126480E+02 -0.70821963088E+02  0.57654558130E+02  0.16127936579E+03  0.12499862694E+03 0.  0.
          2    1    1    2  501    0  0.50101965255E+01  0.34518084416E+02 -0.17198959322E+02  0.38889644158E+02  0.00000000000E+00 0. -1.
          1    1    1    2  502    0 -0.50249323006E+02  0.36303878672E+02  0.22024275369E+04  0.22032998029E+04  0.00000000000E+00 0. -1.
         22    1    3    3    0    0 -0.12069266300E+02  0.31262777164E+02  0.11299097701E+02  0.35365209371E+02  0.00000000000E+00 0.  1.
         22    1    3    3    0    0  0.57308392780E+02 -0.10208474025E+03  0.46355460429E+02  0.12591415642E+03  0.00000000000E+00 0.  1.
</event>
<event>
 7    1  0.6219721E-006  0.1175553E+03  0.7818608E-02  0.1260530E+00
          2   -1    0    0  502    0  0.00000000000E+00  0.00000000000E+00  0.11374800181E+04  0.11374800181E+04  0.00000000000E+00 0. -1.
          1   -1    0    0  501    0 -0.00000000000E+00 -0.00000000000E+00 -0.31013150562E+03  0.31013150562E+03  0.00000000000E+00 0. -1.
         25    2    1    2    0    0  0.17145202705E+03 -0.92373784820E+02  0.40149507471E+03  0.46341404988E+03  0.12500229161E+03 0.  0.
          2    1    1    2  501    0 -0.11574489626E+03  0.57729662426E+01 -0.26315212135E+03  0.28753999221E+03  0.00000000000E+00 0. -1.
          1    1    1    2  502    0 -0.55707130797E+02  0.86600818577E+02  0.68900555908E+03  0.69665748158E+03  0.00000000000E+00 0. -1.
         22    1    3    3    0    0  0.18862980330E+03 -0.98585833462E+02  0.36278641181E+03  0.42061187554E+03  0.00000000000E+00 0.  1.
         22    1    3    3    0    0 -0.17177776242E+02  0.62120486417E+01  0.38708662902E+02  0.42802174344E+02  0.00000000000E+00 0.  1.
</event>
<event>
 7    1  0.6219721E-006  0.4748566E+02  0.7818608E-02  0.1468006E+00
          2   -1    0    0  502    0  0.00000000000E+00  0.00000000000E+00  0.64704814023E+03  0.64704814023E+03  0.00000000000E+00 0. -1.
          1   -1    0    0  501    0 -0.00000000000E+00 -0.00000000000E+00 -0.24823236861E+03  0.24823236861E+03  0.00000000000E+00 0. -1.
         25    2    1    2    0    0  0.11159948481E+02  0.75541477120E+02 -0.11336955746E+03  0.18522665495E+03  0.12500079171E+03 0.  0.
          2    1    1    2  501    0 -0.30702900024E+02 -0.32378386758E+02 -0.92929449036E+02  0.10308690750E+03  0.00000000000E+00 0. -1.
          1    1    1    2  502    0  0.19542951543E+02 -0.43163090362E+02  0.60511477812E+03  0.60696694640E+03  0.00000000000E+00 0. -1.
         22    1    3    3    0    0  0.13270544602E+02  0.10342640000E+03 -0.49343461342E+02  0.11535989229E+03  0.00000000000E+00 0. -1.
         22    1    3    3    0    0 -0.21105961209E+01 -0.27884922880E+02 -0.64026096122E+02  0.69866762661E+02  0.00000000000E+00 0. -1.
</event>
<event>
 7    1  0.6219721E-006  0.2700920E+02  0.7818608E-02  0.1665321E+00
          2   -1    0    0  502    0  0.00000000000E+00  0.00000000000E+00  0.71419025025E+03  0.71419025025E+03  0.00000000000E+00 0. -1.
          1   -1    0    0  501    0 -0.00000000000E+00 -0.00000000000E+00 -0.95332742225E+03  0.95332742225E+03  0.00000000000E+00 0. -1.
         25    2    1    2    0    0 -0.20796259436E+02  0.33250708111E+02  0.14755630270E+03  0.19732108155E+03  0.12499861103E+03 0.  0.
          2    1    1    2  501    0 -0.90995141424E+00 -0.26987558676E+02 -0.92801303338E+03  0.92840580915E+03  0.00000000000E+00 0. -1.
          1    1    1    2  502    0  0.21706210851E+02 -0.62631494353E+01  0.54131955869E+03  0.54179078180E+03  0.00000000000E+00 0. -1.
         22    1    3    3    0    0  0.17704404652E+02  0.62150529464E+02  0.13159051893E+03  0.14660217914E+03  0.00000000000E+00 0.  1.
         22    1    3    3    0    0 -0.38500664089E+02 -0.28899821353E+02  0.15965783770E+02  0.50718902402E+02  0.00000000000E+00 0.  1.
</event>
<event>
 7    1  0.6219721E-006  0.6490225E+02  0.7818608E-02  0.1444815E+00
          2   -1    0    0  502    0  0.00000000000E+00  0.00000000000E+00  0.97739823865E+03  0.97739823865E+03  0.00000000000E+00 0. -1.
          1   -1    0    0  501    0 -0.00000000000E+00 -0.00000000000E+00 -0.34206691829E+03  0.34206691829E+03  0.00000000000E+00 0. -1.
         25    2    1    2    0    0  0.93834842293E+02  0.35659333124E+02  0.32822263914E+03  0.36528401872E+03  0.12500299126E+03 0.  0.
          2    1    1    2  501    0 -0.34688312689E+02 -0.17091247177E+02 -0.32084896314E+03  0.32317092523E+03  0.00000000000E+00 0. -1.
          1    1    1    2  502    0 -0.59146529604E+02 -0.18568085947E+02  0.62795764436E+03  0.63101021299E+03  0.00000000000E+00 0. -1.
         22    1    3    3    0    0  0.89225312405E+02  0.22507541336E+02  0.97228304467E+02  0.13386967162E+03  0.00000000000E+00 0. -1.
         22    1    3    3    0    0  0.46095298878E+01  0.13151791788E+02  0.23099433467E+03  0.23141434710E+03  0.00000000000E+00 0. -1.
</event>
<event>
 7    1  0.6219721E-006  0.7998813E+02  0.7818608E-02  0.1345322E+00
          2   -1    0    0  502    0  0.00000000000E+00  0.00000000000E+00  0.16038736646E+04  0.16038736646E+04  0.00000000000E+00 0. -1.
          1   -1    0    0  501    0 -0.00000000000E+00 -0.00000000000E+00 -0.13390196737E+03  0.13390196737E+03  0.00000000000E+00 0. -1.
         25    2    1    2    0    0  0.95200007875E+02  0.15286587369E+02  0.11740482432E+04  0.11846143299E+04  0.12500044804E+03 0.  0.
          2    1    1    2  501    0 -0.64774377012E+02  0.47145064399E+02 -0.11292426025E+03  0.13845672814E+03  0.00000000000E+00 0. -1.
          1    1    1    2  502    0 -0.30425630863E+02 -0.62431651768E+02  0.40884771424E+03  0.41470457388E+03  0.00000000000E+00 0. -1.
         22    1    3    3    0    0  0.46432447886E+02 -0.54418794684E+02  0.61148757829E+03  0.61565772620E+03  0.00000000000E+00 0.  1.
         22    1    3    3    0    0  0.48767559989E+02  0.69705382053E+02  0.56256066490E+03  0.56895660370E+03  0.00000000000E+00 0.  1.
</event>
<event>
 7    1  0.6219721E-006  0.1818749E+03  0.7818608E-02  0.1273232E+00
          2   -1    0    0  502    0  0.00000000000E+00  0.00000000000E+00  0.71163500066E+03  0.71163500066E+03  0.00000000000E+00 0. -1.
          1   -1    0    0  501    0 -0.00000000000E+00 -0.00000000000E+00 -0.37732863238E+03  0.37732863238E+03  0.00000000000E+00 0. -1.
         25    2    1    2    0    0  0.62142181199E+02 -0.15392803663E+03 -0.13401519245E+03  0.24726608947E+03  0.12499982420E+03 0.  0.
          2    1    1    2  501    0  0.57038313097E+02  0.14393699536E+02 -0.16875754437E+03  0.17871669348E+03  0.00000000000E+00 0. -1.
          1    1    1    2  502    0 -0.11918049430E+03  0.13953433710E+03  0.63707910509E+03  0.66298085009E+03  0.00000000000E+00 0. -1.
         22    1    3    3    0    0 -0.18775886821E+02 -0.34469632706E+02  0.12930489231E+02  0.41326590188E+02  0.00000000000E+00 0. -1.
         22    1    3    3    0    0  0.80918068020E+02 -0.11945840393E+03 -0.14694568168E+03  0.20593949928E+03  0.00000000000E+00 0. -1.
</event>
<event>
 7    1  0.6219721E-006  0.1054146E+03  0.7818608E-02  0.1402894E+00
          2   -1    0    0  502    0  0.00000000000E+00  0.00000000000E+00  0.16416053250E+03  0.16416053250E+03  0.00000000000E+00 0. -1.
          1   -1    0    0  501    0 -0.00000000000E+00 -0.00000000000E+00 -0.65119998856E+03  0.65119998856E+03  0.00000000000E+00 0. -1.
         25    2    1    2    0    0 -0.19836914323E+02 -0.12691069012E+03 -0.74261681370E+02  0.19400916219E+03  0.12499972504E+03 0.  0.
          2    1    1    2  501    0  0.20644766287E+02  0.25500636126E+02 -0.49173322487E+03  0.49282659553E+03  0.00000000000E+00 0. -1.
          1    1    1    2  502    0 -0.80785196460E+00  0.10141005399E+03  0.78955450186E+02  0.12852476333E+03  0.00000000000E+00 0. -1.
         22    1    3    3    0    0 -0.35771269515E+02 -0.72270301911E+02  0.20739658849E+02  0.83262919179E+02  0.00000000000E+00 0. -1.
         22    1    3    3    0    0  0.15934355192E+02 -0.54640388205E+02 -0.95001340219E+02  0.11074624302E+03  0.00000000000E+00 0. -1.
</event>
<event>
 7    1  0.6219721E-006  0.4375673E+02  0.7818608E-02  0.1566050E+00
          2   -1    0    0  502    0  0.00000000000E+00  0.00000000000E+00  0.12971597792E+04  0.12971597792E+04  0.00000000000E+00 0. -1.
          1   -1    0    0  501    0 -0.00000000000E+00 -0.00000000000E+00 -0.11277276074E+03  0.11277276074E+03  0.00000000000E+00 0. -1.
         25    2    1    2    0    0  0.49641165038E+02  0.10565211820E+02  0.18028826121E+03  0.22517598430E+03  0.12499799122E+03 0.  0.
          2    1    1    2  501    0 -0.16923647149E+02  0.18474893949E+02 -0.88145227552E+02  0.91636852190E+02  0.00000000000E+00 0. -1.
          1    1    1    2  502    0 -0.32717517888E+02 -0.29040105769E+02  0.10922439848E+04  0.10931197034E+04  0.00000000000E+00 0. -1.
         22    1    3    3    0    0  0.24307439831E+02  0.45014194641E+02  0.17471776559E+03  0.18205336296E+03  0.00000000000E+00 0.  1.
         22    1    3    3    0    0  0.25333725206E+02 -0.34448982821E+02  0.55704956192E+01  0.43122621345E+02  0.00000000000E+00 0.  1.
</event>
<event>
 7    1  0.6219721E-006  0.4143533E+02  0.7818608E-02  0.1606305E+00
          2   -1    0    0  502    0  0.00000000000E+00  0.00000000000E+00  0.28953898242E+03  0.28953898242E+03  0.00000000000E+00 0. -1.
          1   -1    0    0  501    0 -0.00000000000E+00 -0.00000000000E+00 -0.37004321076E+03  0.37004321076E+03  0.00000000000E+00 0. -1.
         25    2    1    2    0    0  0.42583607246E+02 -0.21203919984E+02  0.14559197354E+02  0.13453597466E+03  0.12499995369E+03 0.  0.
          2    1    1    2  501    0 -0.41403181940E+02  0.56172748979E+00 -0.30816981160E+03  0.31093917700E+03  0.00000000000E+00 0. -1.
          1    1    1    2  502    0 -0.11804253059E+01  0.20642192494E+02  0.21310638591E+03  0.21410704152E+03  0.00000000000E+00 0. -1.
         22    1    3    3    0    0  0.43598272283E+02 -0.69608891423E+02 -0.50720915362E+01  0.82291756718E+02  0.00000000000E+00 0.  1.
         22    1    3    3    0    0 -0.10146650370E+01  0.48404971439E+02  0.19631288890E+02  0.52244217944E+02  0.00000000000E+00 0.  1.
</event>
<event>
 7    1  0.6219721E-006  0.1356373E+03  0.7818608E-02  0.1266467E+00
          2   -1    0    0  502    0  0.00000000000E+00  0.00000000000E+00  0.43623316472E+02  0.43623316472E+02  0.00000000000E+00 0. -1.
          1   -1    0    0  501    0 -0.00000000000E+00 -0.00000000000E+00 -0.10057800544E+04  0.10057800544E+04  0.00000000000E+00 0. -1.
         25    2    1    2    0    0  0.12448710531E+02  0.10873552300E+01 -0.39083007192E+03  0.41052626670E+03  0.12501007080E+03 0.  0.
          2    1    1    2  501    0  0.12952882580E+03  0.40246265742E+02 -0.23219256139E+03  0.26890679460E+03  0.00000000000E+00 0. -1.
          1    1    1    2  502    0 -0.14197753633E+03 -0.41333620972E+02 -0.33913410460E+03  0.36997030954E+03  0.00000000000E+00 0. -1.
         22    1    3    3    0    0 -0.87921161693E+01 -0.52880077267E+02 -0.28355003036E+03  0.28857273537E+03  0.00000000000E+00 0.  1.
         22    1    3    3    0    0  0.21240826701E+02  0.53967432497E+02 -0.10728004156E+03  0.12195353134E+03  0.00000000000E+00 0.  1.
</event>
<event>
 7    1  0.6219721E-006  0.1174879E+03  0.7818608E-02  0.1359059E+00
          2   -1    0    0  502    0  0.00000000000E+00  0.00000000000E+00  0.19601449474E+03  0.19601449474E+03  0.00000000000E+00 0. -1.
          1   -1    0    0  501    0 -0.00000000000E+00 -0.00000000000E+00 -0.38465603644E+03  0.38465603644E+03  0.00000000000E+00 0. -1.
         25    2    1    2    0    0 -0.70271711776E+02  0.36831638075E+02  0.91645868718E+02  0.17411739311E+03  0.12499287296E+03 0.  0.
          2    1    1    2  501    0  0.11109668278E+03 -0.46992817765E+02 -0.32409513274E+03  0.34581563428E+03  0.00000000000E+00 0. -1.
          1    1    1    2  502    0 -0.40824971005E+02  0.10161179690E+02  0.43807722329E+02  0.60737503784E+02  0.00000000000E+00 0. -1.
         22    1    3    3    0    0 -0.95534465967E+01  0.60600314978E+02 -0.35889839080E+00  0.61349778528E+02  0.00000000000E+00 0. -1.
         22    1    3    3    0    0 -0.60718265180E+02 -0.23768676903E+02  0.92004767108E+02  0.11276761458E+03  0.00000000000E+00 0. -1.
</event>
<event>
 7    1  0.6219721E-006  0.1632744E+03  0.7818608E-02  0.1246792E+00
          2   -1    0    0  502    0  0.00000000000E+00  0.00000000000E+00  0.39135127313E+03  0.39135127313E+03  0.00000000000E+00 0. -1.
          1   -1    0    0  501    0 -0.00000000000E+00 -0.00000000000E+00 -0.73490496902E+03  0.73490496902E+03  0.00000000000E+00 0. -1.
         25    2    1    2    0    0  0.14319552117E+03  0.18276123373E+03 -0.18688241939E+03  0.32319812118E+03  0.12500144409E+03 0.  0.
          2    1    1    2  501    0 -0.20689698555E+02 -0.82416027486E+02 -0.45630648337E+03  0.46415091509E+03  0.00000000000E+00 0. -1.
          1    1    1    2  502    0 -0.12250582261E+03 -0.10034520624E+03  0.29963520687E+03  0.33890720587E+03  0.00000000000E+00 0. -1.
         22    1    3    3    0    0  0.23925068400E+02  0.56273746286E+01  0.15441984473E+02  0.29026386747E+02  0.00000000000E+00 0. -1.
         22    1    3    3    0    0  0.11927045277E+03  0.17713385910E+03 -0.20232440386E+03  0.29417173444E+03  0.00000000000E+00 0. -1.
</event>
<event>
 7    1  0.6219721E-006  0.1194976E+03  0.7818608E-02  0.1324581E+00
          2   -1    0    0  502    0  0.00000000000E+00  0.00000000000E+00  0.50605674279E+03  0.50605674279E+03  0.00000000000E+00 0. -1.
          1   -1    0    0  501    0 -0.00000000000E+00 -0.00000000000E+00 -0.11760022688E+04  0.11760022688E+04  0.00000000000E+00 0. -1.
         25    2    1    2    0    0  0.57689320190E+02 -0.14348310448E+03 -0.11519805105E+03  0.22980543725E+03  0.12499795633E+03 0.  0.
          2    1    1    2  501    0 -0.49520308164E+02  0.25536093251E+02 -0.99492027342E+03  0.99647915354E+03  0.00000000000E+00 0. -1.
          1    1    1    2  502    0 -0.81690120257E+01  0.11794701123E+03  0.44017279842E+03  0.45577442084E+03  0.00000000000E+00 0. -1.
         22    1    3    3    0    0  0.16472558998E+02 -0.58697835768E+02  0.20722951693E+02  0.64391162830E+02  0.00000000000E+00 0. -1.
         22    1    3    3    0    0  0.41216761192E+02 -0.84785268711E+02 -0.13592100274E+03  0.16541427442E+03  0.00000000000E+00 0. -1.
</event>
<event>
 7    1  0.6219721E-006  0.3482895E+02  0.7818608E-02  0.1589709E+00
          2   -1    0    0  502    0  0.00000000000E+00  0.00000000000E+00  0.55303994652E+03  0.55303994652E+03  0.00000000000E+00 0. -1.
          1   -1    0    0  501    0 -0.00000000000E+00 -0.00000000000E+00 -0.23802037558E+02  0.23802037558E+02  0.00000000000E+00 0. -1.
         25    2    1    2    0    0 -0.21818534388E+02 -0.10573690767E+01  0.41844508440E+03  0.43726237038E+03  0.12499970168E+03 0.  0.
          2    1    1    2  501    0  0.25041854690E+02 -0.25938492437E+02  0.13400886545E+02  0.38464056422E+02  0.00000000000E+00 0. -1.
          1    1    1    2  502    0 -0.32233203019E+01  0.26995861514E+02  0.97391938017E+02  0.10111555728E+03  0.00000000000E+00 0. -1.
         22    1    3    3    0    0 -0.58072423107E+01 -0.62756914316E+02  0.19830730384E+03  0.20808157322E+03  0.00000000000E+00 0. -1.
         22    1    3    3    0    0 -0.16011292077E+02  0.61699545239E+02  0.22013778056E+03  0.22918079716E+03  0.00000000000E+00 0. -1.
</event>
<event>
 7    1  0.6219721E-006  0.8454079E+02  0.7818608E-02  0.1317221E+00
          2   -1    0    0  502    0  0.00000000000E+00  0.00000000000E+00  0.12692935075E+04  0.12692935075E+04  0.00000000000E+00 0. -1.
          1   -1    0    0  501    0 -0.00000000000E+00 -0.00000000000E+00 -0.34751339150E+03  0.34751339150E+03  0.00000000000E+00 0. -1.
         25    2    1    2    0    0  0.29267115206E+02 -0.19919057486E+02  0.55864504318E+02  0.14141898729E+03  0.12500061695E+03 0.  0.
          2    1    1    2  501    0 -0.56969400511E+02 -0.62463046582E+02 -0.29721998087E+03  0.30900948499E+03  0.00000000000E+00 0. -1.
          1    1    1    2  502    0  0.27702285306E+02  0.82382104067E+02  0.11631355925E+04  0.11663784267E+04  0.00000000000E+00 0. -1.
         22    1    3    3    0    0 -0.17624373651E+02 -0.43943734425E+02  0.72127088177E+02  0.86278544208E+02  0.00000000000E+00 0. -1.
         22    1    3    3    0    0  0.46891488856E+02  0.24024676939E+02 -0.16262583859E+02  0.55140443079E+02  0.00000000000E+00 0. -1.
</event>
<event>
 7    1  0.6219721E-006  0.8225490E+02  0.7818608E-02  0.1433305E+00
          2   -1    0    0  502    0  0.00000000000E+00  0.00000000000E+00  0.16120751793E+04  0.16120751793E+04  0.00000000000E+00 0. -1.
          1   -1    0    0  501    0 -0.00000000000E+00 -0.00000000000E+00 -0.51075785434E+03  0.51075785434E+03  0.00000000000E+00 0. -1.
         25    2    1    2    0    0  0.42514167154E+02 -0.52006175133E+02  0.66245373766E+03  0.67748221862E+03  0.12500042139E+03 0.  0.
          2    1    1    2  501    0  0.32424042371E+02  0.73953098700E+01 -0.50067246550E+03  0.50177577347E+03  0.00000000000E+00 0. -1.
          1    1    1    2  502    0 -0.74938209525E+02  0.44610865263E+02  0.93953605282E+03  0.94357504158E+03  0.00000000000E+00 0. -1.
         22    1    3    3    0    0 -0.22284042122E+02 -0.53007258454E+02  0.48807795717E+03  0.49145339582E+03  0.00000000000E+00 0.  1.
         22    1    3    3    0    0  0.64798209276E+02  0.10010833205E+01  0.17437578048E+03  0.18602882280E+03  0.00000000000E+00 0.  1.
</event>
<event>
 7    1  0.6219721E-006  0.8367636E+02  0.7818608E-02  0.1329795E+00
          2   -1    0    0  502    0  0.00000000000E+00  0.00000000000E+00  0.62061195451E+03  0.62061195451E+03  0.00000000000E+00 0. -1.
          1   -1    0    0  501    0 -0.00000000000E+00 -0.00000000000E+00 -0.11830489580E+04  0.11830489580E+04  0.00000000000E+00 0. -1.
         25    2    1    2    0    0  0.11250703408E+03 -0.39384043948E+02  0.63346982045E+02  0.18397575278E+03  0.12500120736E+03 0.  0.
          2    1    1    2  501    0 -0.78523653109E+02 -0.28579618166E+02 -0.11182618513E+04  0.11213796532E+04  0.00000000000E+00 0. -1.
          1    1    1    2  502    0 -0.33983380971E+02  0.67963662115E+02  0.49247786575E+03  0.49830550649E+03  0.00000000000E+00 0. -1.
         22    1    3    3    0    0  0.16554815699E+02 -0.42601555246E+02  0.74418747864E+02  0.87333295288E+02  0.00000000000E+00 0. -1.
         22    1    3    3    0    0  0.95952218381E+02  0.32175112978E+01 -0.11071765819E+02  0.96642457489E+02  0.00000000000E+00 0. -1.
</event>
<event>
 7    1  0.6219721E-006  0.1175045E+03  0.7818608E-02  0.1259968E+00
          2   -1    0    0  502    0  0.00000000000E+00  0.00000000000E+00  0.22508481672E+04  0.22508481672E+04  0.00000000000E+00 0. -1.
          1   -1    0    0  501    0 -0.00000000000E+00 -0.00000000000E+00 -0.69077116732E+03  0.69077116732E+03  0.00000000000E+00 0. -1.
         25    2    1    2    0    0 -0.13828099664E+03 -0.11830072184E+03 -0.11871351966E+03  0.25067338879E+03  0.12501021270E+03 0.  0.
          2    1    1    2  501    0  0.11206644840E+03  0.18087326138E+02 -0.49846519309E+03  0.51122753148E+03  0.00000000000E+00 0. -1.
          1    1    1    2  502    0  0.26214548244E+02  0.10021339570E+03  0.21772557127E+04  0.21797184143E+04  0.00000000000E+00 0. -1.
         22    1    3    3    0    0 -0.61926900678E+02 -0.87709574400E+02 -0.13759264926E+01  0.10737692323E+03  0.00000000000E+00 0.  1.
         22    1    3    3    0    0 -0.76354095962E+02 -0.30591147438E+02 -0.11733759317E+03  0.14329646556E+03  0.00000000000E+00 0.  1.
</event>
<event>
 7    1  0.6219721E-006  0.5900639E+02  0.7818608E-02  0.1463296E+00
          2   -1    0    0  502    0  0.00000000000E+00  0.00000000000E+00  0.20199252077E+04  0.20199252077E+04  0.00000000000E+00 0. -1.
          1   -1    0    0  501    0 -0.00000000000E+00 -0.00000000000E+00 -0.16963783187E+04  0.16963783187E+04  0.00000000000E+00 0. -1.
         25    2    1    2    0    0  0.64933999944E+01 -0.90852385722E+02  0.17567119774E+03  0.23405491065E+03  0.12500004500E+03 0.  0.
          2    1    1    2  501    0 -0.16648573591E+02  0.33209106411E+02 -0.16665075439E+04  0.16669215380E+04  0.00000000000E+00 0. -1.
          1    1    1    2  502    0  0.10155173597E+02  0.57643279310E+02  0.18143832352E+04  0.18153270778E+04  0.00000000000E+00 0. -1.
         22    1    3    3    0    0  0.53750358433E+02 -0.47070334177E+02  0.35482772011E+02  0.79773081304E+02  0.00000000000E+00 0. -1.
         22    1    3    3    0    0 -0.47256958439E+02 -0.43782051545E+02  0.14018842573E+03  0.15428182935E+03  0.00000000000E+00 0. -1.
</event>
<event>
 7    1  0.6219721E-006  0.5333730E+02  0.7818608E-02  0.1512790E+00
          2   -1    0    0  502    0  0.00000000000E+00  0.00000000000E+00  0.58221868949E+03  0.58221868949E+03  0.00000000000E+00 0. -1.
          1   -1    0    0  501    0 -0.00000000000E+00 -0.00000000000E+00 -0.13264911714E+03  0.13264911714E+03  0.00000000000E+00 0. -1.
         25    2    1    2    0    0 -0.41147477778E+02  0.10208382833E+02  0.52797897122E+02  0.14214405652E+03  0.12497995382E+03 0.  0.
          2    1    1    2  501    0  0.52223612095E+02  0.16681559976E+02 -0.78947760664E+02  0.96116226608E+02  0.00000000000E+00 0. -1.
          1    1    1    2  502    0 -0.11076134317E+02 -0.26889942809E+02  0.47571943589E+03  0.47660752350E+03  0.00000000000E+00 0. -1.
         22    1    3    3    0    0 -0.67351913295E+02  0.27667821751E+01  0.79340906248E+02  0.10411010860E+03  0.00000000000E+00 0.  1.
         22    1    3    3    0    0  0.26204435517E+02  0.74416006577E+01 -0.26543009126E+02  0.38033947923E+02  0.00000000000E+00 0.  1.
</event>
<event>
 7    1  0.6219721E-006  0.9307922E+02  0.7818608E-02  0.1445880E+00
          2   -1    0    0  502    0  0.00000000000E+00  0.00000000000E+00  0.27053700700E+03  0.27053700700E+03  0.00000000000E+00 0. -1.
          1   -1    0    0  501    0 -0.00000000000E+00 -0.00000000000E+00 -0.53514566622E+03  0.53514566622E+03  0.00000000000E+00 0. -1.
         25    2    1    2    0    0 -0.94166320603E+02  0.44319290056E+02 -0.44612726960E+03  0.47485359044E+03  0.12499958505E+03 0.  0.
          2    1    1    2  501    0  0.68848698968E+02 -0.35677316655E+02 -0.53553903500E+02  0.94239242639E+02  0.00000000000E+00 0. -1.
          1    1    1    2  502    0  0.25317621635E+02 -0.86419734014E+01  0.23507251389E+03  0.23658984013E+03  0.00000000000E+00 0. -1.
         22    1    3    3    0    0 -0.60765018800E+02 -0.24868815073E+02 -0.32388422056E+03  0.33047213770E+03  0.00000000000E+00 0.  1.
         22    1    3    3    0    0 -0.33401301803E+02  0.69188105129E+02 -0.12224304905E+03  0.14438145273E+03  0.00000000000E+00 0.  1.
</event>
<event>
 7    1  0.6219721E-006  0.5633888E+02  0.7818608E-02  0.1460969E+00
          2   -1    0    0  502    0  0.00000000000E+00  0.00000000000E+00  0.23601770683E+03  0.23601770683E+03  0.00000000000E+00 0. -1.
          1   -1    0    0  501    0 -0.00000000000E+00 -0.00000000000E+00 -0.28367975909E+03  0.28367975909E+03  0.00000000000E+00 0. -1.
         25    2    1    2    0    0 -0.37100057197E+02  0.41717612626E+02 -0.66600822819E+01  0.13706541274E+03  0.12500318886E+03 0.  0.
          2    1    1    2  501    0  0.36397021530E+02  0.15522435015E+02 -0.20507608692E+03  0.20885854206E+03  0.00000000000E+00 0. -1.
          1    1    1    2  502    0  0.70303566727E+00 -0.57240047641E+02  0.16407411695E+03  0.17377351111E+03  0.00000000000E+00 0. -1.
         22    1    3    3    0    0 -0.63335367269E+01  0.84206717106E+02 -0.39552391739E+01  0.84537144559E+02  0.00000000000E+00 0. -1.
         22    1    3    3    0    0 -0.30766520471E+02 -0.42489104480E+02 -0.27048431080E+01  0.52528268176E+02  0.00000000000E+00 0. -1.
</event>
<event>
 7    1  0.6219721E-006  0.1090106E+03  0.7818608E-02  0.1378460E+00
          2   -1    0    0  502    0  0.00000000000E+00  0.00000000000E+00  0.16077043398E+04  0.16077043398E+04  0.00000000000E+00 0. -1.
          1   -1    0    0  501    0 -0.00000000000E+00 -0.00000000000E+00 -0.16507035014E+04  0.16507035014E+04  0.00000000000E+00 0. -1.
         25    2    1    2    0    0 -0.11037597438E+03 -0.28597404900E+02  0.89727916247E+02  0.19151218757E+03  0.12500060699E+03 0.  0.
          2    1    1    2  501    0  0.17639481437E+01  0.38562970000E+02 -0.15975507441E+04  0.15980170820E+04  0.00000000000E+00 0. -1.
          1    1    1    2  502    0  0.10861202623E+03 -0.99655651003E+01  0.14648236664E+04  0.14688785716E+04  0.00000000000E+00 0. -1.
         22    1    3    3    0    0 -0.40023988903E+01 -0.47659639424E+02  0.64916309334E+02  0.80632423035E+02  0.00000000000E+00 0.  1.
         22    1    3    3    0    0 -0.10637357548E+03  0.19062234525E+02  0.24811606913E+02  0.11087976454E+03  0.00000000000E+00 0.  1.
</event>
<event>
 7    1  0.6219721E-006  0.1130448E+03  0.7818608E-02  0.1393725E+00
          2   -1    0    0  502    0  0.00000000000E+00  0.00000000000E+00  0.29804288139E+04  0.29804288139E+04  0.00000000000E+00 0. -1.
          1   -1    0    0  501    0 -0.00000000000E+00 -0.00000000000E+00 -0.18506622324E+02  0.18506622324E+02  0.00000000000E+00 0. -1.
         25    2    1    2    0    0  0.65733064277E+01 -0.97747801386E+02  0.95434258868E+03  0.96746653387E+03  0.12499550614E+03 0.  0.
          2    1    1    2  501    0 -0.35802216948E+02  0.11286095651E+03  0.28554919165E+03  0.30912414188E+03  0.00000000000E+00 0. -1.
          1    1    1    2  502    0  0.29228910521E+02 -0.15113155125E+02  0.17220304113E+04  0.17223447605E+04  0.00000000000E+00 0. -1.
         22    1    3    3    0    0 -0.48398711013E+02 -0.90137757426E+01  0.20175615497E+03  0.20767577964E+03  0.00000000000E+00 0. -1.
         22    1    3    3    0    0  0.54972017440E+02 -0.88734025643E+02  0.75258643372E+03  0.75979075424E+03  0.00000000000E+00 0. -1.
</event>
<event>
 7    1  0.6219721E-006  0.4606966E+02  0.7818608E-02  0.1491450E+00
          2   -1    0    0  502    0  0.00000000000E+00  0.00000000000E+00  0.93629670035E+03  0.93629670035E+03  0.00000000000E+00 0. -1.
          1   -1    0    0  501    0 -0.00000000000E+00 -0.00000000000E+00 -0.45785479074E+03  0.45785479074E+03  0.00000000000E+00 0. -1.
         25    2    1    2    0    0 -0.22812520284E+02  0.57477037104E+02  0.52384034793E+03  0.54207811814E+03  0.12496381546E+03 0.  0.
          2    1    1    2  501    0 -0.13741486351E+02 -0.43967841864E+02 -0.44660710101E+03  0.44897650522E+03  0.00000000000E+00 0. -1.
          1    1    1    2  502    0  0.36554006635E+02 -0.13509195240E+02  0.40120866269E+03  0.40309686773E+03  0.00000000000E+00 0. -1.
         22    1    3    3    0    0 -0.32542855803E+02 -0.20945273993E+02  0.58944372418E+02  0.70513693750E+02  0.00000000000E+00 0.  1.
         22    1    3    3    0    0  0.97303355189E+01  0.78422311098E+02  0.46489597551E+03  0.47156442439E+03  0.00000000000E+00 0.  1.
</event>
<event>
 7    1  0.6219721E-006  0.5860511E+02  0.7818608E-02  0.1410489E+00
          2   -1    0    0  502    0  0.00000000000E+00  0.00000000000E+00  0.49770111302E+02  0.49770111302E+02  0.00000000000E+00 0. -1.
          1   -1    0    0  501    0 -0.00000000000E+00 -0.00000000000E+00 -0.36145109188E+03  0.36145109188E+03  0.00000000000E+00 0. -1.
         25    2    1    2    0    0  0.41056576112E+01 -0.17057336964E+02 -0.15352355455E+03  0.19875124801E+03  0.12499907046E+03 0.  0.
          2    1    1    2  501    0 -0.50454052904E+02  0.52923551283E+02 -0.12584964810E+03  0.14554946809E+03  0.00000000000E+00 0. -1.
          1    1    1    2  502    0  0.46348395293E+02 -0.35866214318E+02 -0.32307777926E+02  0.66920487075E+02  0.00000000000E+00 0. -1.
         22    1    3    3    0    0 -0.49090685358E+02  0.27636056577E+02 -0.60834283388E+02  0.82912345566E+02  0.00000000000E+00 0.  1.
         22    1    3    3    0    0  0.53196342969E+02 -0.44693393541E+02 -0.92689271160E+02  0.11583890245E+03  0.00000000000E+00 0.  1.
</event>
<event>
 7    1  0.6219721E-006  0.1653612E+03  0.7818608E-02  0.1268263E+00
          2   -1    0    0  502    0  0.00000000000E+00  0.00000000000E+00  0.27399762083E+03  0.27399762083E+03  0.00000000000E+00 0. -1.
          1   -1    0    0  501    0 -0.00000000000E+00 -0.00000000000E+00 -0.19638486436E+04  0.19638486436E+04  0.00000000000E+00 0. -1.
         25    2    1    2    0    0 -0.17309639164E+03  0.10961474393E+03 -0.30770006160E+03  0.39023129414E+03  0.12499352836E+03 0.  0.
          2    1    1    2  501    0  0.10643093383E+03 -0.12240510250E+03 -0.16057588636E+04  0.16139306307E+04  0.00000000000E+00 0. -1.
          1    1    1    2  502    0  0.66665457812E+02  0.12790358569E+02  0.22360790242E+03  0.23368433957E+03  0.00000000000E+00 0. -1.
         22    1    3    3    0    0  0.14473359581E+02  0.29833685457E+02 -0.24152992003E+02  0.41023090427E+02  0.00000000000E+00 0. -1.
         22    1    3    3    0    0 -0.18756975122E+03  0.79781058472E+02 -0.28354706960E+03  0.34920820371E+03  0.00000000000E+00 0. -1.
</event>
<event>
 7    1  0.6219721E-006  0.1296055E+03  0.7818608E-02  0.1375889E+00
          2   -1    0    0  502    0  0.00000000000E+00  0.00000000000E+00  0.22118858126E+04  0.22118858126E+04  0.00000000000E+00 0. -1.
          1   -1    0    0  501    0 -0.00000000000E+00 -0.00000000000E+00 -0.36664537281E+03  0.36664537281E+03  0.00000000000E+00 0. -1.
         25    2    1    2    0    0  0.58015466519E+02  0.12163736016E+03  0.26366333952E+03  0.32140903321E+03  0.12499587306E+03 0.  0.
          2    1    1    2  501    0 -0.32721484027E+02  0.53741773805E+01 -0.33476789138E+03  0.33640618068E+03  0.00000000000E+00 0. -1.
          1    1    1    2  502    0 -0.25293982492E+02 -0.12701153754E+03  0.19163449917E+04  0.19207159715E+04  0.00000000000E+00 0. -1.
         22    1    3    3    0    0 -0.30961586726E+02  0.65575067594E+02  0.14968141159E+03  0.16632268131E+03  0.00000000000E+00 0. -1.
         22    1    3    3    0    0  0.88977053244E+02  0.56062292561E+02  0.11398192793E+03  0.15508635190E+03  0.00000000000E+00 0. -1.
</event>
<event>
 7    1  0.1413935E-005  0.7714430E+02  0.7818608E-02  0.1455971E+00
          2   -1    0    0  502    0  0.00000000000E+00  0.00000000000E+00  0.11503028903E+04  0.11503028903E+04  0.00000000000E+00 0. -1.
          1   -1    0    0  501    0 -0.00000000000E+00 -0.00000000000E+00 -0.11485414008E+04  0.11485414008E+04  0.00000000000E+00 0. -1.
         25    2    1    2    0    0 -0.57716312008E+02  0.59560055270E+02 -0.56697374447E+03  0.58648738327E+03  0.12501860245E+03 0.  0.
          2    1    1    2  501    0  0.27676004840E+02  0.11494517107E+02 -0.57011238220E+03  0.57089947758E+03  0.00000000000E+00 0. -1.
          1    1    1    2  502    0  0.30040307168E+02 -0.71054572377E+02  0.11388476162E+04  0.11414574303E+04  0.00000000000E+00 0. -1.
         22    1    3    3    0    0 -0.39592817788E+01  0.67850904310E+02 -0.47339418049E+03  0.47824833638E+03  0.00000000000E+00 0. -1.
         22    1    3    3    0    0 -0.53757030229E+02 -0.82908490403E+01 -0.93579563980E+02  0.10823904689E+03  0.00000000000E+00 0. -1.
</event>
<event>
 7    1  0.6219721E-006  0.1315389E+03  0.7818608E-02  0.1246477E+00
          2   -1    0    0  502    0  0.00000000000E+00  0.00000000000E+00  0.43637645420E+03  0.43637645420E+03  0.00000000000E+00 0. -1.
          1   -1    0    0  501    0 -0.00000000000E+00 -0.00000000000E+00 -0.59579706867E+03  0.59579706867E+03  0.00000000000E+00 0. -1.
         25    2    1    2    0    0 -0.59604320715E+02  0.55305174508E+02 -0.30035658064E+03  0.33533656476E+03  0.12500079503E+03 0.  0.
          2    1    1    2  501    0 -0.73058866460E+02 -0.76535566649E+02 -0.25641476332E+03  0.27738749392E+03  0.00000000000E+00 0. -1.
          1    1    1    2  502    0  0.13266318717E+03  0.21230392142E+02  0.39735072950E+03  0.41944946419E+03  0.00000000000E+00 0. -1.
         22    1    3    3    0    0 -0.84648519075E+02  0.21125439969E+02 -0.11040237510E+03  0.14071368243E+03  0.00000000000E+00 0.  1.
         22    1    3    3    0    0  0.25044198360E+02  0.34179734539E+02 -0.18995420554E+03  0.19462288233E+03  0.00000000000E+00 0.  1.
</event>
<event>
 7    1  0.6219721E-006  0.6071700E+02  0.7818608E-02  0.1422385E+00
          2   -1    0    0  502    0  0.00000000000E+00  0.00000000000E+00  0.16073979540E+04  0.16073979540E+04  0.00000000000E+00 0. -1.
          1   -1    0    0  501    0 -0.00000000000E+00 -0.00000000000E+00 -0.52939234382E+03  0.52939234382E+03  0.00000000000E+00 0. -1.
         25    2    1    2    0    0  0.91095829636E+02 -0.41053179165E+02  0.42299515127E+03  0.45225342971E+03  0.12499781194E+03 0.  0.
          2    1    1    2  501    0 -0.42201107188E+02  0.43470401805E+02 -0.51246579546E+03  0.51603468953E+03  0.00000000000E+00 0. -1.
          1    1    1    2  502    0 -0.48894722447E+02 -0.24172226403E+01  0.11674762543E+04  0.11685021786E+04  0.00000000000E+00 0. -1.
         22    1    3    3    0    0 -0.27314038439E+02  0.15805765828E+01  0.35413594199E+02  0.44751285706E+02  0.00000000000E+00 0.  1.
         22    1    3    3    0    0  0.11840986808E+03 -0.42633755748E+02  0.38758155707E+03  0.40750214400E+03  0.00000000000E+00 0.  1.
</event>
<event>
 7    1  0.6219721E-006  0.6431897E+02  0.7818608E-02  0.1457553E+00
          2   -1    0    0  502    0  0.00000000000E+00  0.00000000000E+00  0.20084280590E+03  0.20084280590E+03  0.00000000000E+00 0. -1.
          1   -1    0    0  501    0 -0.00000000000E+00 -0.00000000000E+00 -0.17652307084E+04  0.17652307084E+04  0.00000000000E+00 0. -1.
         25    2    1    2    0    0 -0.19589436753E+02 -0.26142856205E+02 -0.29909025414E+03  0.32580238737E+03  0.12500008211E+03 0.  0.
          2    1    1    2  501    0  0.25000664826E+02  0.61259492076E+02 -0.14503399732E+04  0.14518484068E+04  0.00000000000E+00 0. -1.
          1    1    1    2  502    0 -0.54112280725E+01 -0.35116635872E+02  0.18504232478E+03  0.18842272014E+03  0.00000000000E+00 0. -1.
         22    1    3    3    0    0  0.57562376588E+01  0.27550929686E+02 -0.24133479753E+03  0.24297051776E+03  0.00000000000E+00 0. -1.
         22    1    3    3    0    0 -0.25345674412E+02 -0.53693785891E+02 -0.57755456613E+02  0.82831869611E+02  0.00000000000E+00 0. -1.
</event>
<event>
 7    1  0.6219721E-006  0.1011641E+03  0.7818608E-02  0.1355251E+00
          2   -1    0    0  502    0  0.00000000000E+00  0.00000000000E+00  0.25661966672E+04  0.25661966672E+04  0.00000000000E+00 0. -1.
          1   -1    0    0  501    0 -0.00000000000E+00 -0.00000000000E+00 -0.12199684040E+04  0.12199684040E+04  0.00000000000E+00 0. -1.
         25    2    1    2    0    0 -0.10132149168E+03  0.77318188532E+02 -0.27865592945E+02  0.18068053461E+03  0.12499926945E+03 0.  0.
          2    1    1    2  501    0  0.40092861663E+01 -0.50295485255E+02 -0.11140999775E+04  0.11152418886E+04  0.00000000000E+00 0. -1.
          1    1    1    2  502    0  0.97312205510E+02 -0.27022703277E+02  0.24881938337E+04  0.24902426480E+04  0.00000000000E+00 0. -1.
         22    1    3    3    0    0 -0.98312949514E+02  0.49069853312E+02  0.31977364140E+02  0.11443704979E+03  0.00000000000E+00 0.  1.
         22    1    3    3    0    0 -0.30085421619E+01  0.28248335220E+02 -0.59842957085E+02  0.66243484822E+02  0.00000000000E+00 0.  1.
</event>
<event>
 7    1  0.6219721E-006  0.2774029E+03  0.7818608E-02  0.1205989E+00
          2   -1    0    0  502    0  0.00000000000E+00  0.00000000000E+00  0.90832303418E+03  0.90832303418E+03  0.00000000000E+00 0. -1.
          1   -1    0    0  501    0 -0.00000000000E+00 -0.00000000000E+00 -0.19293482550E+04  0.19293482550E+04  0.00000000000E+00 0. -1.
         25    2    1    2    0    0  0.14584639880E+03  0.29524374329E+03  0.70976230688E+02  0.35930823791E+03  0.12499897803E+03 0.  0.
          2    1    1    2  501    0 -0.65822722526E+02 -0.38822662273E+02 -0.17582977693E+04  0.17599576346E+04  0.00000000000E+00 0. -1.
          1    1    1    2  502    0 -0.80023676273E+02 -0.25642108102E+03  0.66629631783E+03  0.71840541668E+03  0.00000000000E+00 0. -1.
         22    1    3    3    0    0  0.94856591650E+02  0.27025730414E+03  0.88671217076E+02  0.29983223335E+03  0.00000000000E+00 0.  1.
         22    1    3    3    0    0  0.50989807149E+02  0.24986439159E+02 -0.17694986387E+02  0.59476004558E+02  0.00000000000E+00 0.  1.
</event>
<event>
 7    1  0.6219721E-006  0.4797537E+02  0.7818608E-02  0.1471393E+00
          2   -1    0    0  502    0  0.00000000000E+00  0.00000000000E+00  0.11515312214E+03  0.11515312214E+03  0.00000000000E+00 0. -1.
          1   -1    0    0  501    0 -0.00000000000E+00 -0.00000000000E+00 -0.13840294256E+04  0.13840294256E+04  0.00000000000E+00 0. -1.
         25    2    1    2    0    0  0.58184844849E+02 -0.62743958586E+02 -0.65182177881E+03  0.66918631497E+03  0.12496564452E+03 0.  0.
          2    1    1    2  501    0 -0.21961172716E+02  0.39376986916E+02 -0.71842643212E+03  0.71983982841E+03  0.00000000000E+00 0. -1.
          1    1    1    2  502    0 -0.36223672133E+02  0.23366971670E+02  0.10137190748E+03  0.11015640433E+03  0.00000000000E+00 0. -1.
         22    1    3    3    0    0 -0.20466334814E+02 -0.21793087819E+02 -0.41875569767E+03  0.41982156193E+03  0.00000000000E+00 0. -1.
         22    1    3    3    0    0  0.78651179663E+02 -0.40950870767E+02 -0.23306608114E+03  0.24936475304E+03  0.00000000000E+00 0. -1.
</event>
<event>
 7    1  0.6219721E-006  0.1739898E+03  0.7818608E-02  0.1208379E+00
          2   -1    0    0  502    0  0.00000000000E+00  0.00000000000E+00  0.61613943763E+03  0.61613943763E+03  0.00000000000E+00 0. -1.
          1   -1    0    0  501    0 -0.00000000000E+00 -0.00000000000E+00 -0.81557917658E+03  0.81557917658E+03  0.00000000000E+00 0. -1.
         25    2    1    2    0    0  0.20189417060E+03 -0.13168549395E+03  0.39686258434E+03  0.48085245149E+03  0.12496737101E+03 0.  0.
          2    1    1    2  501    0 -0.84708685674E+02  0.15092557335E+03 -0.74256291097E+03  0.76246558406E+03  0.00000000000E+00 0. -1.
          1    1    1    2  502    0 -0.11718548493E+03 -0.19240079398E+02  0.14626058767E+03  0.18840057866E+03  0.00000000000E+00 0. -1.
         22    1    3    3    0    0  0.13830242842E+03 -0.17671209467E+02  0.23041032520E+03  0.26931162490E+03  0.00000000000E+00 0.  1.
         22    1    3    3    0    0  0.63591742185E+02 -0.11401428448E+03  0.16645225915E+03  0.21154082659E+03  0.00000000000E+00 0.  1.
</event>
<event>
 7    1  0.6219721E-006  0.1102626E+03  0.7818608E-02  0.1306423E+00
          2   -1    0    0  502    0  0.00000000000E+00  0.00000000000E+00  0.40547813484E+03  0.40547813484E+03  0.00000000000E+00 0. -1.
          1   -1    0    0  501    0 -0.00000000000E+00 -0.00000000000E+00 -0.10078489626E+04  0.10078489626E+04  0.00000000000E+00 0. -1.
         25    2    1    2    0    0  0.10272649921E+03 -0.13656281489E+03 -0.77897944151E+02  0.22560131855E+03  0.12500291668E+03 0.  0.
          2    1    1    2  501    0 -0.42359658338E+02  0.99000327086E+02 -0.84884758980E+03  0.85565041701E+03  0.00000000000E+00 0. -1.
          1    1    1    2  502    0 -0.60366840868E+02  0.37562487800E+02  0.32437470618E+03  0.33207536189E+03  0.00000000000E+00 0. -1.
         22    1    3    3    0    0  0.17514528470E+02  0.39071348251E+01 -0.57270791217E+02  0.60016397232E+02  0.00000000000E+00 0. -1.
         22    1    3    3    0    0  0.85211970736E+02 -0.14046994971E+03 -0.20627152934E+02  0.16558492131E+03  0.00000000000E+00 0. -1.
</event>
<event>
 7    1  0.6219721E-006  0.3200047E+02  0.7818608E-02  0.1602612E+00
          2   -1    0    0  502    0  0.00000000000E+00  0.00000000000E+00  0.22254839434E+04  0.22254839434E+04  0.00000000000E+00 0. -1.
          1   -1    0    0  501    0 -0.00000000000E+00 -0.00000000000E+00 -0.48292574794E+03  0.48292574794E+03  0.00000000000E+00 0. -1.
         25    2    1    2    0    0 -0.48326748364E+02  0.32172271887E+02  0.88201910818E+03  0.89272296396E+03  0.12500421398E+03 0.  0.
          2    1    1    2  501    0  0.20595515039E+02 -0.18025868158E+02 -0.47700041102E+03  0.47778499273E+03  0.00000000000E+00 0. -1.
          1    1    1    2  502    0  0.27731233325E+02 -0.14146403729E+02  0.13375394983E+04  0.13379017346E+04  0.00000000000E+00 0. -1.
         22    1    3    3    0    0 -0.97567481842E+01 -0.11167274911E+02  0.72781362306E+03  0.72796467776E+03  0.00000000000E+00 0. -1.
         22    1    3    3    0    0 -0.38570000180E+02  0.43339546798E+02  0.15420548512E+03  0.16475828620E+03  0.00000000000E+00 0. -1.
</event>
<event>
 7    1  0.6219721E-006  0.8092090E+02  0.7818608E-02  0.1439744E+00
          2   -1    0    0  502    0  0.00000000000E+00  0.00000000000E+00  0.84631150027E+03  0.84631150027E+03  0.00000000000E+00 0. -1.
          1   -1    0    0  501    0 -0.00000000000E+00 -0.00000000000E+00 -0.37780350921E+03  0.37780350921E+03  0.00000000000E+00 0. -1.
         25    2    1    2    0    0  0.58648128560E+02 -0.63686206608E+02 -0.26511484068E+01  0.15205963173E+03  0.12497826658E+03 0.  0.
          2    1    1    2  501    0 -0.28744592469E+02  0.75652910136E+02 -0.29465358258E+03  0.30556562002E+03  0.00000000000E+00 0. -1.
          1    1    1    2  502    0 -0.29903536091E+02 -0.11966703529E+02  0.76581272205E+03  0.76648975774E+03  0.00000000000E+00 0. -1.
         22    1    3    3    0    0  0.33845360399E+02 -0.50994321605E+02  0.58622006940E+02  0.84749448106E+02  0.00000000000E+00 0. -1.
         22    1    3    3    0    0  0.24802768161E+02 -0.12691885003E+02 -0.61273155347E+02  0.67310183624E+02  0.00000000000E+00 0. -1.
</event>
<event>
 7    1  0.6219721E-006  0.1188479E+03  0.7818608E-02  0.1302999E+00
          2   -1    0    0  502    0  0.00000000000E+00  0.00000000000E+00  0.71930530637E+03  0.71930530637E+03  0.00000000000E+00 0. -1.
          1   -1    0    0  501    0 -0.00000000000E+00 -0.00000000000E+00 -0.25345355870E+04  0.25345355870E+04  0.00000000000E+00 0. -1.
         25    2    1    2    0    0 -0.52008565827E+02 -0.17629741362E+03 -0.15708518201E+02  0.22283875934E+03  0.12499874460E+03 0.  0.
          2    1    1    2  501    0  0.15995847121E+02  0.66155865321E+02 -0.24093250987E+04  0.24102862687E+04  0.00000000000E+00 0. -1.
          1    1    1    2  502    0  0.36012718707E+02  0.11014154829E+03  0.60980333628E+03  0.62071586536E+03  0.00000000000E+00 0. -1.
         22    1    3    3    0    0  0.17976415348E+02 -0.70709505538E+02  0.41398576885E+02  0.83885802436E+02  0.00000000000E+00 0. -1.
         22    1    3    3    0    0 -0.69984981176E+02 -0.10558790808E+03 -0.57107095086E+02  0.13895295690E+03  0.00000000000E+00 0. -1.
</event>
<event>
 7    1  0.6219721E-006  0.1296439E+03  0.7818608E-02  0.1341242E+00
          2   -1    0    0  502    0  0.00000000000E+00  0.00000000000E+00  0.12091552358E+04  0.12091552358E+04  0.00000000000E+00 0. -1.
          1   -1    0    0  501    0 -0.00000000000E+00 -0.00000000000E+00 -0.74291427179E+02  0.74291427179E+02  0.00000000000E+00 0. -1.
         25    2    1    2    0    0  0.10642808198E+03  0.48513990610E+02  0.37462366409E+03  0.41188382439E+03  0.12499940471E+03 0.  0.
          2    1    1    2  501    0  0.27811181457E+02 -0.34589472658E+02 -0.40165138434E+02  0.59859266436E+02  0.00000000000E+00 0. -1.
          1    1    1    2  502    0 -0.13423926344E+03 -0.13924517952E+02  0.80040528300E+03  0.81170357218E+03  0.00000000000E+00 0. -1.
         22    1    3    3    0    0 -0.18397109530E+02  0.31127849145E+02  0.15022967870E+03  0.15451974953E+03  0.00000000000E+00 0. -1.
         22    1    3    3    0    0  0.12482519151E+03  0.17386141464E+02  0.22439398538E+03  0.25736407486E+03  0.00000000000E+00 0. -1.
</event>
<event>
 7    1  0.6219721E-006  0.1088152E+03  0.7818608E-02  0.1298936E+00
          2   -1    0    0  502    0  0.00000000000E+00  0.00000000000E+00  0.69034580482E+02  0.69034580482E+02  0.00000000000E+00 0. -1.
          1   -1    0    0  501    0 -0.00000000000E+00 -0.00000000000E+00 -0.19706292614E+04  0.19706292614E+04  0.00000000000E+00 0. -1.
         25    2    1    2    0    0  0.94149767620E+02  0.96119102700E+02 -0.90725321804E+03  0.92565405414E+03  0.12499586257E+03 0.  0.
          2    1    1    2  501    0  0.12653176615E+02 -0.76125881458E+02 -0.10021074737E+04  0.10050744458E+04  0.00000000000E+00 0. -1.
          1    1    1    2  502    0 -0.10680294424E+03 -0.19993221243E+02  0.77660108716E+01  0.10893534191E+03  0.00000000000E+00 0. -1.
         22    1    3    3    0    0 -0.38368006941E+01  0.74009729780E+02 -0.53410427046E+03  0.53922122813E+03  0.00000000000E+00 0.  1.
         22    1    3    3    0    0  0.97986568314E+02  0.22109372920E+02 -0.37314894758E+03  0.38643282601E+03  0.00000000000E+00 0.  1.
</event>
<event>
 7    1  0.6219721E-006  0.1224990E+03  0.7818608E-02  0.1313706E+00
          2   -1    0    0  502    0  0.00000000000E+00  0.00000000000E+00  0.47857848284E+03  0.47857848284E+03  0.00000000000E+00 0. -1.
          1   -1    0    0  501    0 -0.00000000000E+00 -0.00000000000E+00 -0.82553803729E+03  0.82553803729E+03  0.00000000000E+00 0. -1.
         25    2    1    2    0    0  0.14491115023E+03 -0.10730475636E+03 -0.34882633130E+03  0.41209028976E+03  0.12500018124E+03 0.  0.
          2    1    1    2  501    0 -0.42809375894E+02  0.41903521678E+02 -0.43476433179E+03  0.43887193120E+03  0.00000000000E+00 0. -1.
          1    1    1    2  502    0 -0.10210177434E+03  0.65401234681E+02  0.43663110864E+03  0.45315429917E+03  0.00000000000E+00 0. -1.
         22    1    3    3    0    0 -0.61134732005E+01  0.14772348961E+02 -0.42215791547E+01  0.16535373566E+02  0.00000000000E+00 0. -1.
         22    1    3    3    0    0  0.15102462343E+03 -0.12207710532E+03 -0.34460475214E+03  0.39555491619E+03  0.00000000000E+00 0. -1.
</event>
<event>
 7    1  0.6219721E-006  0.8080730E+02  0.7818608E-02  0.1397449E+00
          2   -1    0    0  502    0  0.00000000000E+00  0.00000000000E+00  0.24847212724E+03  0.24847212724E+03  0.00000000000E+00 0. -1.
          1   -1    0    0  501    0 -0.00000000000E+00 -0.00000000000E+00 -0.65910116760E+03  0.65910116760E+03  0.00000000000E+00 0. -1.
         25    2    1    2    0    0  0.43144641615E+02  0.52658266333E+02 -0.12477809045E+03  0.18928429085E+03  0.12499847116E+03 0.  0.
          2    1    1    2  501    0 -0.79047350431E+02 -0.26052667314E+02 -0.49625799744E+03  0.50318905503E+03  0.00000000000E+00 0. -1.
          1    1    1    2  502    0  0.35902708816E+02 -0.26605599019E+02  0.21040704752E+03  0.21509994896E+03  0.00000000000E+00 0. -1.
         22    1    3    3    0    0 -0.28116250661E+02 -0.19487388510E+02 -0.59656444581E+02  0.68768984595E+02  0.00000000000E+00 0. -1.
         22    1    3    3    0    0  0.71260892276E+02  0.72145654843E+02 -0.65121645864E+02  0.12051530625E+03  0.00000000000E+00 0. -1.
</event>
<event>
 7    1  0.6219721E-006  0.2325845E+03  0.7818608E-02  0.1212711E+00
          2   -1    0    0  502    0  0.00000000000E+00  0.00000000000E+00  0.30299353985E+03  0.30299353985E+03  0.00000000000E+00 0. -1.
          1   -1    0    0  501    0 -0.00000000000E+00 -0.00000000000E+00 -0.14580698222E+04  0.14580698222E+04  0.00000000000E+00 0. -1.
         25    2    1    2    0    0 -0.14725500273E+03 -0.11024106227E+03 -0.21301405558E+03  0.30795643978E+03  0.12500021316E+03 0.  0.
          2    1    1    2  501    0 -0.97672601100E+00 -0.84820069645E+02 -0.11369148623E+04  0.11400749108E+04  0.00000000000E+00 0. -1.
          1    1    1    2  502    0  0.14823172874E+03  0.19506113191E+03  0.19485263555E+03  0.31303201141E+03  0.00000000000E+00 0. -1.
         22    1    3    3    0    0 -0.10183960148E+02 -0.24425347966E+02  0.13444450696E+02  0.29682720935E+02  0.00000000000E+00 0.  1.
         22    1    3    3    0    0 -0.13707104258E+03 -0.85815714299E+02 -0.22645850628E+03  0.27827371884E+03  0.00000000000E+00 0.  1.
</event>
<event>
 7    1  0.6219721E-006  0.4347319E+02  0.7818608E-02  0.1521437E+00
          2   -1    0    0  502    0  0.00000000000E+00  0.00000000000E+00  0.11320358720E+04  0.11320358720E+04  0.00000000000E+00 0. -1.
          1   -1    0    0  501    0 -0.00000000000E+00 -0.00000000000E+00 -0.21925530272E+02  0.21925530272E+02  0.00000000000E+00 0. -1.
         25    2    1    2    0    0  0.66067797768E+02  0.10718983593E+02  0.63008612373E+03  0.64584328769E+03  0.12500071369E+03 0.  0.
          2    1    1    2  501    0 -0.40914749509E+02  0.11661471807E+02  0.20258460551E+02  0.47121246546E+02  0.00000000000E+00 0. -1.
          1    1    1    2  502    0 -0.25153048259E+02 -0.22380455399E+02  0.45976575747E+03  0.46099686806E+03  0.00000000000E+00 0. -1.
         22    1    3    3    0    0  0.66485659383E+02  0.13713438651E+02  0.63578134212E+03  0.63939527390E+03  0.00000000000E+00 0.  1.
         22    1    3    3    0    0 -0.41786161468E+00 -0.29944550587E+01 -0.56952183825E+01  0.64480137912E+01  0.00000000000E+00 0.  1.
</event>
<event>
 7    1  0.6219721E-006  0.1053392E+03  0.7818608E-02  0.1350250E+00
          2   -1    0    0  502    0  0.00000000000E+00  0.00000000000E+00  0.11769287232E+03  0.11769287232E+03  0.00000000000E+00 0. -1.
          1   -1    0    0  501    0 -0.00000000000E+00 -0.00000000000E+00 -0.44348641746E+03  0.44348641746E+03  0.00000000000E+00 0. -1.
         25    2    1    2    0    0  0.21137002212E+01  0.70871943699E+02 -0.67330312245E+02  0.15870214453E+03  0.12500279837E+03 0.  0.
          2    1    1    2  501    0 -0.37167606923E+02 -0.10730473252E+03 -0.31008275897E+03  0.33022273398E+03  0.00000000000E+00 0. -1.
          1    1    1    2  502    0  0.35053906702E+02  0.36432788824E+02  0.51619526074E+02  0.72254411275E+02  0.00000000000E+00 0. -1.
         22    1    3    3    0    0 -0.45609166996E+02  0.37953801530E+02 -0.79759892632E+02  0.99409897079E+02  0.00000000000E+00 0. -1.
         22    1    3    3    0    0  0.47722867217E+02  0.32918142169E+02  0.12429580387E+02  0.59292247452E+02  0.00000000000E+00 0. -1.
</event>
<event>
 7    1  0.6219721E-006  0.9164805E+02  0.7818608E-02  0.1462102E+00
          2   -1    0    0  502    0  0.00000000000E+00  0.00000000000E+00  0.17962841420E+04  0.17962841420E+04  0.00000000000E+00 0. -1.
          1   -1    0    0  501    0 -0.00000000000E+00 -0.00000000000E+00 -0.26340072074E+03  0.26340072074E+03  0.00000000000E+00 0. -1.
         25    2    1    2    0    0  0.13119274688E+02 -0.73348652228E+02 -0.10863015121E+02  0.14594668499E+03  0.12502115665E+03 0.  0.
          2    1    1    2  501    0  0.20889450667E+02 -0.12068678620E+02 -0.18298116342E+03  0.18456469955E+03  0.00000000000E+00 0. -1.
          1    1    1    2  502    0 -0.34008725355E+02  0.85417330847E+02  0.17267275998E+04  0.17291734782E+04  0.00000000000E+00 0. -1.
         22    1    3    3    0    0 -0.12756151107E+02  0.19476316465E+02 -0.39121207363E+02  0.45524885059E+02  0.00000000000E+00 0.  1.
         22    1    3    3    0    0  0.25875425794E+02 -0.92824968692E+02  0.28258192241E+02  0.10042179993E+03  0.00000000000E+00 0.  1.
</event>
<event>
 7    1  0.6219721E-006  0.6014361E+02  0.7818608E-02  0.1451718E+00
          2   -1    0    0  502    0  0.00000000000E+00  0.00000000000E+00  0.90495764439E+03  0.90495764439E+03  0.00000000000E+00 0. -1.
          1   -1    0    0  501    0 -0.00000000000E+00 -0.00000000000E+00 -0.12370933065E+03  0.12370933065E+03  0.00000000000E+00 0. -1.
         25    2    1    2    0    0 -0.23355157081E+02  0.41927449916E+01 -0.23426057728E+02  0.12936958066E+03  0.12499866298E+03 0.  0.
          2    1    1    2  501    0 -0.36081827074E+02 -0.16452154647E+02 -0.37713963449E+02  0.54725813622E+02  0.00000000000E+00 0. -1.
          1    1    1    2  502    0  0.59436984155E+02  0.12259409655E+02  0.84238833492E+03  0.84457158076E+03  0.00000000000E+00 0. -1.
         22    1    3    3    0    0  0.11356960541E+02 -0.28862843043E+02  0.39527865424E+02  0.50244366911E+02  0.00000000000E+00 0.  1.
         22    1    3    3    0    0 -0.34712117622E+02  0.33055588035E+02 -0.62953923153E+02  0.79125213747E+02  0.00000000000E+00 0.  1.
</event>
<event>
 7    1  0.6219721E-006  0.9262863E+02  0.7818608E-02  0.1358402E+00
          2   -1    0    0  502    0  0.00000000000E+00  0.00000000000E+00  0.64363442395E+03  0.64363442395E+03  0.00000000000E+00 0. -1.
          1   -1    0    0  501    0 -0.00000000000E+00 -0.00000000000E+00 -0.15760392874E+03  0.15760392874E+03  0.00000000000E+00 0. -1.
         25    2    1    2    0    0  0.30798037255E+02  0.45838037853E+02  0.20228329355E+03  0.24411598091E+03  0.12499774587E+03 0.  0.
          2    1    1    2  501    0  0.31249494706E+01  0.53566472043E+02 -0.12450509798E+03  0.13557526198E+03  0.00000000000E+00 0. -1.
          1    1    1    2  502    0 -0.33922986726E+02 -0.99404509896E+02  0.40825229965E+03  0.42154710981E+03  0.00000000000E+00 0. -1.
         22    1    3    3    0    0  0.15213755007E+01  0.34681115571E+02 -0.44711127762E+01  0.35001217266E+02  0.00000000000E+00 0.  1.
         22    1    3    3    0    0  0.29276661755E+02  0.11156922282E+02  0.20675440633E+03  0.20911476364E+03  0.00000000000E+00 0.  1.
</event>
<event>
 7    1  0.6219721E-006  0.2689365E+03  0.7818608E-02  0.1127866E+00
          2   -1    0    0  502    0  0.00000000000E+00  0.00000000000E+00  0.89629837017E+03  0.89629837017E+03  0.00000000000E+00 0. -1.
          1   -1    0    0  501    0 -0.00000000000E+00 -0.00000000000E+00 -0.84724802213E+03  0.84724802213E+03  0.00000000000E+00 0. -1.
         25    2    1    2    0    0 -0.23293114489E+03 -0.13013524615E+03 -0.22668565186E+03  0.37175688931E+03  0.12499879775E+03 0.  0.
          2    1    1    2  501    0  0.10407612594E+03  0.27482115078E+03 -0.49577354121E+03  0.57632448245E+03  0.00000000000E+00 0. -1.
          1    1    1    2  502    0  0.12885501895E+03 -0.14468590464E+03  0.77150954110E+03  0.79546502055E+03  0.00000000000E+00 0. -1.
         22    1    3    3    0    0 -0.10593083827E+03 -0.19359460996E+02 -0.15473007384E+03  0.18851399677E+03  0.00000000000E+00 0.  1.
         22    1    3    3    0    0 -0.12700030662E+03 -0.11077578515E+03 -0.71955578012E+02  0.18324289254E+03  0.00000000000E+00 0.  1.
</event>
<event>
 7    1  0.6219721E-006  0.3911645E+02  0.7818608E-02  0.1621487E+00
          2   -1    0    0  502    0  0.00000000000E+00  0.00000000000E+00  0.33316739795E+03  0.33316739795E+03  0.00000000000E+00 0. -1.
          1   -1    0    0  501    0 -0.00000000000E+00 -0.00000000000E+00 -0.90696491423E+03  0.90696491423E+03  0.00000000000E+00 0. -1.
         25    2    1    2    0    0  0.44995325227E+02 -0.21020042094E+02  0.86246881993E+02  0.15978109387E+03  0.12500020738E+03 0.  0.
          2    1    1    2  501    0 -0.39045612844E+02  0.19024679582E+01 -0.86928064543E+03  0.87015919220E+03  0.00000000000E+00 0. -1.
          1    1    1    2  502    0 -0.59497123834E+01  0.19117574136E+02  0.20923624715E+03  0.21019202611E+03  0.00000000000E+00 0. -1.
         22    1    3    3    0    0  0.23678635549E+02  0.28388028727E+02  0.97966639773E+02  0.10470921862E+03  0.00000000000E+00 0.  1.
         22    1    3    3    0    0  0.21316689678E+02 -0.49408070821E+02 -0.11719757780E+02  0.55071875250E+02  0.00000000000E+00 0.  1.
</event>
<event>
 7    1  0.6219721E-006  0.3007968E+02  0.7818608E-02  0.1625212E+00
          2   -1    0    0  502    0  0.00000000000E+00  0.00000000000E+00  0.39872742745E+03  0.39872742745E+03  0.00000000000E+00 0. -1.
          1   -1    0    0  501    0 -0.00000000000E+00 -0.00000000000E+00 -0.32304575388E+03  0.32304575388E+03  0.00000000000E+00 0. -1.
         25    2    1    2    0    0 -0.15006809227E+02  0.47013277339E+01 -0.18177967992E+03  0.22116847441E+03  0.12499734091E+03 0.  0.
          2    1    1    2  501    0  0.26864713463E+02  0.17847671907E+02 -0.11899435333E+03  0.12328790836E+03  0.00000000000E+00 0. -1.
          1    1    1    2  502    0 -0.11857904236E+02 -0.22548999641E+02  0.37645570682E+03  0.37731679856E+03  0.00000000000E+00 0. -1.
         22    1    3    3    0    0 -0.12918383795E+02  0.55265034011E+02 -0.15246141719E+03  0.16268248940E+03  0.00000000000E+00 0.  1.
         22    1    3    3    0    0 -0.20884254323E+01 -0.50563706278E+02 -0.29318262724E+02  0.58485985009E+02  0.00000000000E+00 0.  1.
</event>
<event>
 7    1  0.6219721E-006  0.1649763E+03  0.7818608E-02  0.1335369E+00
          2   -1    0    0  502    0  0.00000000000E+00  0.00000000000E+00  0.14673638071E+04  0.14673638071E+04  0.00000000000E+00 0. -1.
          1   -1    0    0  501    0 -0.00000000000E+00 -0.00000000000E+00 -0.68699591386E+03  0.68699591386E+03  0.00000000000E+00 0. -1.
         25    2    1    2    0    0 -0.68124143612E+01  0.19321883397E+03  0.10026645373E+04  0.10287572382E+04  0.12500141633E+03 0.  0.
          2    1    1    2  501    0 -0.15387397012E+02 -0.16399032852E+03 -0.66311181696E+03  0.68326194218E+03  0.00000000000E+00 0. -1.
          1    1    1    2  502    0  0.22199811374E+02 -0.29228505451E+02  0.44081517294E+03  0.44234054059E+03  0.00000000000E+00 0. -1.
         22    1    3    3    0    0  0.11746275852E+02 -0.91161816691E+01  0.20791176644E+03  0.20844275566E+03  0.00000000000E+00 0.  1.
         22    1    3    3    0    0 -0.18558690213E+02  0.20233501564E+03  0.79475277085E+03  0.82031448257E+03  0.00000000000E+00 0.  1.
</event>
<event>
 7    1  0.1412479E-005  0.6399623E+02  0.7818608E-02  0.1461669E+00
          2   -1    0    0  502    0  0.00000000000E+00  0.00000000000E+00  0.14041319680E+04  0.14041319680E+04  0.00000000000E+00 0. -1.
          1   -1    0    0  501    0 -0.00000000000E+00 -0.00000000000E+00 -0.71265030467E+03  0.71265030467E+03  0.00000000000E+00 0. -1.
         25    2    1    2    0    0  0.29696747384E+02  0.31858198230E+02 -0.32148815240E+03  0.34767469032E+03  0.12500486613E+03 0.  0.
          2    1    1    2  501    0  0.31772838883E+02 -0.13844337812E+02 -0.37653522200E+03  0.37812689985E+03  0.00000000000E+00 0. -1.
          1    1    1    2  502    0 -0.61469586267E+02 -0.18013860418E+02  0.13895050377E+04  0.13909806825E+04  0.00000000000E+00 0. -1.
         22    1    3    3    0    0 -0.95292554862E+01  0.52671890433E+02 -0.52256670042E+02  0.74805710449E+02  0.00000000000E+00 0.  1.
         22    1    3    3    0    0  0.39226002870E+02 -0.20813692203E+02 -0.26923148235E+03  0.27286897987E+03  0.00000000000E+00 0.  1.
</event>
<event>
 7    1  0.6219721E-006  0.7551573E+02  0.7818608E-02  0.1404425E+00
          2   -1    0    0  502    0  0.00000000000E+00  0.00000000000E+00  0.60272859352E+02  0.60272859352E+02  0.00000000000E+00 0. -1.
          1   -1    0    0  501    0 -0.00000000000E+00 -0.00000000000E+00 -0.52202239844E+03  0.52202239844E+03  0.00000000000E+00 0. -1.
         25    2    1    2    0    0  0.16639655206E+02 -0.39302065581E+02 -0.14386835334E+03  0.19529614280E+03  0.12498379822E+03 0.  0.
          2    1    1    2  501    0  0.35550891977E+01 -0.45111352853E+02 -0.29332760425E+03  0.29679750038E+03  0.00000000000E+00 0. -1.
          1    1    1    2  502    0 -0.20194744404E+02  0.84413418434E+02 -0.24553581496E+02  0.90201614606E+02  0.00000000000E+00 0. -1.
         22    1    3    3    0    0  0.27644932466E+02  0.41571782667E+02 -0.46285758348E+02  0.68079562506E+02  0.00000000000E+00 0.  1.
         22    1    3    3    0    0 -0.11005277259E+02 -0.80873848247E+02 -0.97582594991E+02  0.12721658030E+03  0.00000000000E+00 0.  1.
</event>
<event>
 7    1  0.6219721E-006  0.1014945E+03  0.7818608E-02  0.1366963E+00
          2   -1    0    0  502    0  0.00000000000E+00  0.00000000000E+00  0.11789060471E+04  0.11789060471E+04  0.00000000000E+00 0. -1.
          1   -1    0    0  501    0 -0.00000000000E+00 -0.00000000000E+00 -0.53069881869E+02  0.53069881869E+02  0.00000000000E+00 0. -1.
         25    2    1    2    0    0  0.49545371900E+02  0.54256909571E+02  0.44509343438E+03  0.46811664132E+03  0.12500587360E+03 0.  0.
          2    1    1    2  501    0  0.41464865117E+01  0.45395420051E+02 -0.23008873471E+02  0.51062175536E+02  0.00000000000E+00 0. -1.
          1    1    1    2  502    0 -0.53691858412E+02 -0.99652329622E+02  0.70375160430E+03  0.71279711210E+03  0.00000000000E+00 0. -1.
         22    1    3    3    0    0 -0.23125005051E+02  0.66774797529E+02  0.23900186607E+03  0.24922987668E+03  0.00000000000E+00 0.  1.
         22    1    3    3    0    0  0.72670376951E+02 -0.12517887959E+02  0.20609156831E+03  0.21888676464E+03  0.00000000000E+00 0.  1.
</event>
<event>
 7    1  0.6219721E-006  0.3543715E+02  0.7818608E-02  0.1631750E+00
          2   -1    0    0  502    0  0.00000000000E+00  0.00000000000E+00  0.14431431538E+04  0.14431431538E+04  0.00000000000E+00 0. -1.
          1   -1    0    0  501    0 -0.00000000000E+00 -0.00000000000E+00 -0.93828172146E+03  0.93828172146E+03  0.00000000000E+00 0. -1.
         25    2    1    2    0    0 -0.40535464828E+02  0.31978723740E+02  0.21549981075E+03  0.25442520930E+03  0.12500502396E+03 0.  0.
          2    1    1    2  501    0  0.19887407778E+02 -0.29306362324E+02 -0.91838796583E+03  0.91907063257E+03  0.00000000000E+00 0. -1.
          1    1    1    2  502    0  0.20648057050E+02 -0.26723614158E+01  0.12077495874E+04  0.12079290334E+04  0.00000000000E+00 0. -1.
         22    1    3    3    0    0  0.26164190958E+02  0.57480528238E+02  0.11396398844E+03  0.13029338692E+03  0.00000000000E+00 0. -1.
         22    1    3    3    0    0 -0.66699655787E+02 -0.25501804498E+02  0.10153582231E+03  0.12413182238E+03  0.00000000000E+00 0. -1.
</event>
<event>
 7    1  0.6219721E-006  0.4704493E+02  0.7818608E-02  0.1496053E+00
          2   -1    0    0  502    0  0.00000000000E+00  0.00000000000E+00  0.21225379113E+03  0.21225379113E+03  0.00000000000E+00 0. -1.
          1   -1    0    0  501    0 -0.00000000000E+00 -0.00000000000E+00 -0.75928728060E+03  0.75928728060E+03  0.00000000000E+00 0. -1.
         25    2    1    2    0    0 -0.26375753196E+02  0.72625862895E+02 -0.87467665281E+02  0.17101667228E+03  0.12500365359E+03 0.  0.
          2    1    1    2  501    0  0.21431944957E+00 -0.46511604077E+02 -0.62717003917E+03  0.62889238609E+03  0.00000000000E+00 0. -1.
          1    1    1    2  502    0  0.26161433746E+02 -0.26114258818E+02  0.16760421498E+03  0.17163201336E+03  0.00000000000E+00 0. -1.
         22    1    3    3    0    0 -0.22093178936E+02  0.63472409844E+02 -0.11967828958E+03  0.13725796284E+03  0.00000000000E+00 0. -1.
         22    1    3    3    0    0 -0.42825742599E+01  0.91534530517E+01  0.32210624299E+02  0.33758709437E+02  0.00000000000E+00 0. -1.
</event>
<event>
 7    1  0.6219721E-006  0.8639803E+02  0.7818608E-02  0.1361119E+00
          2   -1    0    0  502    0  0.00000000000E+00  0.00000000000E+00  0.13216923710E+04  0.13216923710E+04  0.00000000000E+00 0. -1.
          1   -1    0    0  501    0 -0.00000000000E+00 -0.00000000000E+00 -0.30270321624E+04  0.30270321624E+04  0.00000000000E+00 0. -1.
         25    2    1    2    0    0 -0.42475769796E+02  0.56989656190E+02  0.31766219130E+02  0.14726206864E+03  0.12500004900E+03 0.  0.
          2    1    1    2  501    0 -0.42424172561E+02 -0.36901958342E+02 -0.29674732549E+04  0.29680059103E+04  0.00000000000E+00 0. -1.
          1    1    1    2  502    0  0.84899942357E+02 -0.20087697847E+02  0.12303672443E+04  0.12334565544E+04  0.00000000000E+00 0. -1.
         22    1    3    3    0    0 -0.55680958149E+02  0.89729825251E+02  0.36305087277E+02  0.11166857213E+03  0.00000000000E+00 0.  1.
         22    1    3    3    0    0  0.13205188353E+02 -0.32740169062E+02 -0.45388681470E+01  0.35593496508E+02  0.00000000000E+00 0.  1.
</event>
<event>
 7    1  0.6219721E-006  0.5595350E+03  0.7818608E-02  0.1124016E+00
          2   -1    0    0  502    0  0.00000000000E+00  0.00000000000E+00  0.39722634784E+04  0.39722634784E+04  0.00000000000E+00 0. -1.
          1   -1    0    0  501    0 -0.00000000000E+00 -0.00000000000E+00 -0.38536253673E+03  0.38536253673E+03  0.00000000000E+00 0. -1.
         25    2    1    2    0    0  0.28663529564E+03 -0.53378717570E+03  0.66324556307E+03  0.90697682912E+03  0.12499499988E+03 0.  0.
          2    1    1    2  501    0 -0.19211196594E+03  0.50921434618E+03  0.19235967360E+02  0.54458817491E+03  0.00000000000E+00 0. -1.
          1    1    1    2  502    0 -0.94523329700E+02  0.24572829517E+02  0.29044194112E+04  0.29060610111E+04  0.00000000000E+00 0. -1.
         22    1    3    3    0    0  0.80245424177E+01 -0.26148948116E+02  0.11457258348E+01  0.27376512858E+02  0.00000000000E+00 0. -1.
         22    1    3    3    0    0  0.27861075322E+03 -0.50763822758E+03  0.66209983723E+03  0.87960031627E+03  0.00000000000E+00 0. -1.
</event>
<event>
 7    1  0.6219721E-006  0.1151536E+03  0.7818608E-02  0.1260603E+00
          2   -1    0    0  502    0  0.00000000000E+00  0.00000000000E+00  0.45200598693E+03  0.45200598693E+03  0.00000000000E+00 0. -1.
          1   -1    0    0  501    0 -0.00000000000E+00 -0.00000000000E+00 -0.49390635543E+03  0.49390635543E+03  0.00000000000E+00 0. -1.
         25    2    1    2    0    0 -0.15461567895E+03  0.12571831908E+03  0.73205406465E+02  0.24636168921E+03  0.12499578571E+03 0.  0.
          2    1    1    2  501    0  0.99136165166E+02 -0.34727538380E+02 -0.39043368687E+03  0.40431725786E+03  0.00000000000E+00 0. -1.
          1    1    1    2  502    0  0.55479513783E+02 -0.90990780698E+02  0.27532791190E+03  0.29523339528E+03  0.00000000000E+00 0. -1.
         22    1    3    3    0    0 -0.46879713474E+01 -0.19541129067E+02 -0.89807979433E+01  0.22011077490E+02  0.00000000000E+00 0.  1.
         22    1    3    3    0    0 -0.14992770760E+03  0.14525944815E+03  0.82186204409E+02  0.22435061172E+03  0.00000000000E+00 0.  1.
</event>
<event>
 7    1  0.6219721E-006  0.1170578E+03  0.7818608E-02  0.1338606E+00
          2   -1    0    0  502    0  0.00000000000E+00  0.00000000000E+00  0.88098433821E+03  0.88098433821E+03  0.00000000000E+00 0. -1.
          1   -1    0    0  501    0 -0.00000000000E+00 -0.00000000000E+00 -0.27168390985E+03  0.27168390985E+03  0.00000000000E+00 0. -1.
         25    2    1    2    0    0  0.94062601651E+02  0.96078533236E+02  0.11495732995E+03  0.21660706604E+03  0.12499830307E+03 0.  0.
          2    1    1    2  501    0 -0.49054261764E+02  0.11086359855E+02 -0.21319141992E+03  0.21904293985E+03  0.00000000000E+00 0. -1.
          1    1    1    2  502    0 -0.45008339887E+02 -0.10716489309E+03  0.70753451833E+03  0.71701824217E+03  0.00000000000E+00 0. -1.
         22    1    3    3    0    0  0.99449653395E+02  0.11921991293E+03  0.11438378389E+03  0.19284001456E+03  0.00000000000E+00 0. -1.
         22    1    3    3    0    0 -0.53870517440E+01 -0.23141379695E+02  0.57354605472E+00  0.23767051474E+02  0.00000000000E+00 0. -1.
</event>
<event>
 7    1  0.6219721E-006  0.1031096E+03  0.7818608E-02  0.1328437E+00
          2   -1    0    0  502    0  0.00000000000E+00  0.00000000000E+00  0.10278106294E+04  0.10278106294E+04  0.00000000000E+00 0. -1.
          1   -1    0    0  501    0 -0.00000000000E+00 -0.00000000000E+00 -0.45159378382E+03  0.45159378382E+03  0.00000000000E+00 0. -1.
         25    2    1    2    0    0 -0.56628580072E+02 -0.47336611160E+02  0.51353233200E+03  0.53366419482E+03  0.12503785820E+03 0.  0.
          2    1    1    2  501    0 -0.13794771255E+02 -0.60863308571E+02 -0.43097967985E+03  0.43547459453E+03  0.00000000000E+00 0. -1.
          1    1    1    2  502    0  0.70423351326E+02  0.10819991973E+03  0.49366419341E+03  0.51026562387E+03  0.00000000000E+00 0. -1.
         22    1    3    3    0    0  0.23098723358E+02 -0.23712416842E+02  0.35841008303E+02  0.48789421081E+02  0.00000000000E+00 0.  1.
         22    1    3    3    0    0 -0.79727303430E+02 -0.23624194318E+02  0.47769132370E+03  0.48487477374E+03  0.00000000000E+00 0.  1.
</event>
<event>
 7    1  0.6219721E-006  0.1150317E+03  0.7818608E-02  0.1378069E+00
          2   -1    0    0  502    0  0.00000000000E+00  0.00000000000E+00  0.34381031212E+04  0.34381031212E+04  0.00000000000E+00 0. -1.
          1   -1    0    0  501    0 -0.00000000000E+00 -0.00000000000E+00 -0.39156109316E+03  0.39156109316E+03  0.00000000000E+00 0. -1.
         25    2    1    2    0    0 -0.94341837984E+02  0.44138541388E+02  0.29319262597E+04  0.29364374885E+04  0.12499975419E+03 0.  0.
          2    1    1    2  501    0  0.11430268881E+03 -0.13341964645E+02 -0.38010660307E+03  0.39714498913E+03  0.00000000000E+00 0. -1.
          1    1    1    2  502    0 -0.19960850828E+02 -0.30796576744E+02  0.49472237150E+03  0.49608173678E+03  0.00000000000E+00 0. -1.
         22    1    3    3    0    0 -0.48039988395E+01  0.31317707945E+02  0.16393382282E+03  0.16696758817E+03  0.00000000000E+00 0. -1.
         22    1    3    3    0    0 -0.89537839144E+02  0.12820833443E+02  0.27679924368E+04  0.27694699003E+04  0.00000000000E+00 0. -1.
</event>
<event>
 7    1  0.6219721E-006  0.9034234E+02  0.7818608E-02  0.1455906E+00
          2   -1    0    0  502    0  0.00000000000E+00  0.00000000000E+00  0.37563581192E+03  0.37563581192E+03  0.00000000000E+00 0. -1.
          1   -1    0    0  501    0 -0.00000000000E+00 -0.00000000000E+00 -0.28048657923E+04  0.28048657923E+04  0.00000000000E+00 0. -1.
         25    2    1    2    0    0  0.19353648585E+02 -0.86436278496E+02 -0.12494299102E+04  0.12587869858E+04  0.12499512465E+03 0.  0.
          2    1    1    2  501    0 -0.25328696907E+02 -0.37318343122E+01 -0.15451464026E+04  0.15453584940E+04  0.00000000000E+00 0. -1.
          1    1    1    2  502    0  0.59750483219E+01  0.90168112808E+02  0.36534633243E+03  0.37635612442E+03  0.00000000000E+00 0. -1.
         22    1    3    3    0    0  0.42714049065E+02  0.82548869803E+01 -0.65188521632E+03  0.65333526493E+03  0.00000000000E+00 0. -1.
         22    1    3    3    0    0 -0.23360400479E+02 -0.94691165476E+02 -0.59754469390E+03  0.60545172089E+03  0.00000000000E+00 0. -1.
</event>
<event>
 7    1  0.6219721E-006  0.5618684E+02  0.7818608E-02  0.1465151E+00
          2   -1    0    0  502    0  0.00000000000E+00  0.00000000000E+00  0.14180220046E+03  0.14180220046E+03  0.00000000000E+00 0. -1.
          1   -1    0    0  501    0 -0.00000000000E+00 -0.00000000000E+00 -0.10161209684E+03  0.10161209684E+03  0.00000000000E+00 0. -1.
         25    2    1    2    0    0  0.13646300671E+02 -0.27545289520E+02  0.44100276595E+02  0.13606797572E+03  0.12499878049E+03 0.  0.
          2    1    1    2  501    0 -0.11952161412E+02  0.66001751216E+02  0.67220290824E+01  0.67411208274E+02  0.00000000000E+00 0. -1.
          1    1    1    2  502    0 -0.16941392587E+01 -0.38456461696E+02 -0.10632202062E+02  0.39935113305E+02  0.00000000000E+00 0. -1.
         22    1    3    3    0    0  0.54100067092E+02  0.40677322380E+01 -0.16440083276E+02  0.56688976380E+02  0.00000000000E+00 0.  1.
         22    1    3    3    0    0 -0.40453766421E+02 -0.31613021758E+02  0.60540359871E+02  0.79378999336E+02  0.00000000000E+00 0.  1.
</event>
<event>
 7    1  0.6219721E-006  0.6732885E+02  0.7818608E-02  0.1419062E+00
          2   -1    0    0  502    0  0.00000000000E+00  0.00000000000E+00  0.31577165544E+03  0.31577165544E+03  0.00000000000E+00 0. -1.
          1   -1    0    0  501    0 -0.00000000000E+00 -0.00000000000E+00 -0.75207325863E+03  0.75207325863E+03  0.00000000000E+00 0. -1.
         25    2    1    2    0    0  0.93638467293E+02  0.59877910793E+02 -0.89124668253E+02  0.18952799689E+03  0.12499651337E+03 0.  0.
          2    1    1    2  501    0 -0.39737020924E+02 -0.21726435699E+02 -0.60778613758E+03  0.60947112965E+03  0.00000000000E+00 0. -1.
          1    1    1    2  502    0 -0.53901446369E+02 -0.38151475094E+02  0.26060920264E+03  0.26884578754E+03  0.00000000000E+00 0. -1.
         22    1    3    3    0    0  0.10681003083E+03  0.61163130209E+02 -0.10982613083E+03  0.16495784370E+03  0.00000000000E+00 0.  1.
         22    1    3    3    0    0 -0.13171563537E+02 -0.12852194154E+01  0.20701462581E+02  0.24570153193E+02  0.00000000000E+00 0.  1.
</event>
<event>
 7    1  0.6219721E-006  0.6046548E+02  0.7818608E-02  0.1442401E+00
          2   -1    0    0  502    0  0.00000000000E+00  0.00000000000E+00  0.11948776728E+04  0.11948776728E+04  0.00000000000E+00 0. -1.
          1   -1    0    0  501    0 -0.00000000000E+00 -0.00000000000E+00 -0.94901088121E+03  0.94901088121E+03  0.00000000000E+00 0. -1.
         25    2    1    2    0    0  0.43771346179E+02  0.12517114127E+02  0.54163655246E+03  0.55773445385E+03  0.12499982861E+03 0.  0.
          2    1    1    2  501    0 -0.69987752336E+01  0.41675750884E+02 -0.93882344800E+03  0.93977407794E+03  0.00000000000E+00 0. -1.
          1    1    1    2  502    0 -0.36772570945E+02 -0.54192865011E+02  0.64305368717E+03  0.64638002226E+03  0.00000000000E+00 0. -1.
         22    1    3    3    0    0  0.66642667578E+02  0.44408191216E+02  0.22806674951E+03  0.24171837915E+03  0.00000000000E+00 0. -1.
         22    1    3    3    0    0 -0.22871321399E+02 -0.31891077089E+02  0.31356980295E+03  0.31601607469E+03  0.00000000000E+00 0. -1.
</event>
<event>
 7    1  0.6219721E-006  0.3924765E+02  0.7818608E-02  0.1598164E+00
          2   -1    0    0  502    0  0.00000000000E+00  0.00000000000E+00  0.23687447391E+04  0.23687447391E+04  0.00000000000E+00 0. -1.
          1   -1    0    0  501    0 -0.00000000000E+00 -0.00000000000E+00 -0.32309130090E+02  0.32309130090E+02  0.00000000000E+00 0. -1.
         25    2    1    2    0    0  0.12929958344E+02  0.56240494660E+02  0.17836425700E+04  0.17889482772E+04  0.12499977507E+03 0.  0.
          2    1    1    2  501    0 -0.64238532461E+00 -0.22911859578E+02 -0.24598632900E+02  0.33622294817E+02  0.00000000000E+00 0. -1.
          1    1    1    2  502    0 -0.12287573019E+02 -0.33328635082E+02  0.57739167193E+03  0.57848329723E+03  0.00000000000E+00 0. -1.
         22    1    3    3    0    0 -0.18860129030E+02  0.54299959267E+02  0.16682789421E+04  0.16692689474E+04  0.00000000000E+00 0. -1.
         22    1    3    3    0    0  0.31790087374E+02  0.19405353931E+01  0.11536362788E+03  0.11967932975E+03  0.00000000000E+00 0. -1.
</event>
<event>
 7    1  0.6219721E-006  0.1681968E+03  0.7818608E-02  0.1233100E+00
          2   -1    0    0  502    0  0.00000000000E+00  0.00000000000E+00  0.12487243195E+04  0.12487243195E+04  0.00000000000E+00 0. -1.
          1   -1    0    0  501    0 -0.00000000000E+00 -0.00000000000E+00 -0.11282470420E+03  0.11282470420E+03  0.00000000000E+00 0. -1.
         25    2    1    2    0    0  0.24244878581E+03 -0.15401422602E+02  0.31295450700E+03  0.41543296252E+03  0.12500162134E+03 0.  0.
          2    1    1    2  501    0 -0.14771967249E+03  0.18847260577E+02  0.35636832796E+02  0.15312186233E+03  0.00000000000E+00 0. -1.
          1    1    1    2  502    0 -0.94729113324E+02 -0.34458379741E+01  0.78730827546E+03  0.79299419880E+03  0.00000000000E+00 0. -1.
         22    1    3    3    0    0 -0.22455846511E+01 -0.12411994906E+02  0.68094268882E+02  0.69252651376E+02  0.00000000000E+00 0.  1.
         22    1    3    3    0    0  0.24469437047E+03 -0.29894276965E+01  0.24486023812E+03  0.34618031115E+03  0.00000000000E+00 0.  1.
</event>
<event>
 7    1  0.6219721E-006  0.1787428E+03  0.7818608E-02  0.1396554E+00
          2   -1    0    0  502    0  0.00000000000E+00  0.00000000000E+00  0.12413497608E+03  0.12413497608E+03  0.00000000000E+00 0. -1.
          1   -1    0    0  501    0 -0.00000000000E+00 -0.00000000000E+00 -0.17571154512E+04  0.17571154512E+04  0.00000000000E+00 0. -1.
         25    2    1    2    0    0  0.24015649987E+02  0.17202426594E+03 -0.71030051625E+03  0.74183708403E+03  0.12500534527E+03 0.  0.
          2    1    1    2  501    0  0.20268194107E+02  0.17816164680E+01 -0.95664976991E+03  0.95686611191E+03  0.00000000000E+00 0. -1.
          1    1    1    2  502    0 -0.44283844094E+02 -0.17380588241E+03  0.33969811038E+02  0.18254723134E+03  0.00000000000E+00 0. -1.
         22    1    3    3    0    0  0.53916375077E+02  0.62893377617E+02 -0.45649517649E+03  0.46395085796E+03  0.00000000000E+00 0.  1.
         22    1    3    3    0    0 -0.29900725090E+02  0.10913088832E+03 -0.25380533976E+03  0.27788622607E+03  0.00000000000E+00 0.  1.
</event>
<event>
 7    1  0.6219721E-006  0.1351101E+03  0.7818608E-02  0.1252210E+00
          2   -1    0    0  502    0  0.00000000000E+00  0.00000000000E+00  0.98609646083E+02  0.98609646083E+02  0.00000000000E+00 0. -1.
          1   -1    0    0  501    0 -0.00000000000E+00 -0.00000000000E+00 -0.99964163484E+03  0.99964163484E+03  0.00000000000E+00 0. -1.
         25    2    1    2    0    0  0.11792006680E+03  0.12371647515E+03 -0.27435647252E+03  0.34656482210E+03  0.12499917410E+03 0.  0.
          2    1    1    2  501    0 -0.13017498066E+03 -0.27219576606E+02 -0.63985156273E+03  0.65352616877E+03  0.00000000000E+00 0. -1.
          1    1    1    2  502    0  0.12254913863E+02 -0.96496898541E+02  0.13176046495E+02  0.98160290052E+02  0.00000000000E+00 0. -1.
         22    1    3    3    0    0 -0.24186363590E+02  0.24633374088E+02 -0.74276347196E+02  0.81907014691E+02  0.00000000000E+00 0.  1.
         22    1    3    3    0    0  0.14210643039E+03  0.99083101059E+02 -0.20008012532E+03  0.26465780741E+03  0.00000000000E+00 0.  1.
</event>
<event>
 7    1  0.6219721E-006  0.7153451E+02  0.7818608E-02  0.1436265E+00
          2   -1    0    0  502    0  0.00000000000E+00  0.00000000000E+00  0.20193752429E+04  0.20193752429E+04  0.00000000000E+00 0. -1.
          1   -1    0    0  501    0 -0.00000000000E+00 -0.00000000000E+00 -0.40082272869E+02  0.40082272869E+02  0.00000000000E+00 0. -1.
         25    2    1    2    0    0 -0.31703314958E+02  0.39574901076E+02  0.55329391596E+03  0.56950844497E+03  0.12503774819E+03 0.  0.
          2    1    1    2  501    0  0.16620431814E+02  0.33501808453E+02 -0.19738438905E+02  0.42287301802E+02  0.00000000000E+00 0. -1.
          1    1    1    2  502    0  0.15082883144E+02 -0.73076709529E+02  0.14457374930E+04  0.14476617690E+04  0.00000000000E+00 0. -1.
         22    1    3    3    0    0  0.26036254629E+02  0.34723587216E+02  0.67352756802E+02  0.80124951876E+02  0.00000000000E+00 0.  1.
         22    1    3    3    0    0 -0.57739569587E+02  0.48513138600E+01  0.48594115916E+03  0.48938349309E+03  0.00000000000E+00 0.  1.
</event>
<event>
 7    1  0.6219721E-006  0.8995182E+02  0.7818608E-02  0.1321659E+00
          2   -1    0    0  502    0  0.00000000000E+00  0.00000000000E+00  0.29028552917E+03  0.29028552917E+03  0.00000000000E+00 0. -1.
          1   -1    0    0  501    0 -0.00000000000E+00 -0.00000000000E+00 -0.58949634018E+03  0.58949634018E+03  0.00000000000E+00 0. -1.
         25    2    1    2    0    0  0.11497342670E+02 -0.13411226987E+03 -0.64131027770E+02  0.19457081552E+03  0.12500689464E+03 0.  0.
          2    1    1    2  501    0 -0.51730242224E+02  0.55630123814E+02 -0.44818495566E+03  0.45457725759E+03  0.00000000000E+00 0. -1.
          1    1    1    2  502    0  0.40232899554E+02  0.78482146060E+02  0.21310517242E+03  0.23063379624E+03  0.00000000000E+00 0. -1.
         22    1    3    3    0    0  0.15040306553E+02  0.21890999316E+02 -0.17120946456E+02  0.31599896833E+02  0.00000000000E+00 0. -1.
         22    1    3    3    0    0 -0.35429638830E+01 -0.15600326919E+03 -0.47010081314E+02  0.16297091868E+03  0.00000000000E+00 0. -1.
</event>
<event>
 7    1  0.6219721E-006  0.3435956E+03  0.7818608E-02  0.1222071E+00
          2   -1    0    0  502    0  0.00000000000E+00  0.00000000000E+00  0.26745429804E+03  0.26745429804E+03  0.00000000000E+00 0. -1.
          1   -1    0    0  501    0 -0.00000000000E+00 -0.00000000000E+00 -0.17287559065E+04  0.17287559065E+04  0.00000000000E+00 0. -1.
         25    2    1    2    0    0  0.30762739667E+03  0.20364454283E+03 -0.36732392025E+03  0.53540455998E+03  0.12500186183E+03 0.  0.
          2    1    1    2  501    0 -0.25759132890E+03 -0.21788390572E+03 -0.12508402118E+04  0.12955415565E+04  0.00000000000E+00 0. -1.
          1    1    1    2  502    0 -0.50036067764E+02  0.14239362897E+02  0.15686252355E+03  0.16526408813E+03  0.00000000000E+00 0. -1.
         22    1    3    3    0    0  0.47868103682E+02  0.95597847943E+02 -0.82303528163E+02  0.13492284695E+03  0.00000000000E+00 0.  1.
         22    1    3    3    0    0  0.25975929298E+03  0.10804669488E+03 -0.28502039208E+03  0.40048171303E+03  0.00000000000E+00 0.  1.
</event>
<event>
 7    1  0.6219721E-006  0.1595917E+03  0.7818608E-02  0.1267269E+00
          2   -1    0    0  502    0  0.00000000000E+00  0.00000000000E+00  0.22287122767E+04  0.22287122767E+04  0.00000000000E+00 0. -1.
          1   -1    0    0  501    0 -0.00000000000E+00 -0.00000000000E+00 -0.20101633923E+04  0.20101633923E+04  0.00000000000E+00 0. -1.
         25    2    1    2    0    0  0.36676836240E+02 -0.88812998440E+02 -0.45042616700E+02  0.16396623757E+03  0.12499260272E+03 0.  0.
          2    1    1    2  501    0 -0.88461834787E+02  0.13741077105E+03 -0.19015720407E+04  0.19085815263E+04  0.00000000000E+00 0. -1.
          1    1    1    2  502    0  0.51784998547E+02 -0.48597772611E+02  0.21651635419E+04  0.21663279052E+04  0.00000000000E+00 0. -1.
         22    1    3    3    0    0 -0.63958123917E+00  0.29861671037E+02  0.42180201718E+01  0.30164882818E+02  0.00000000000E+00 0. -1.
         22    1    3    3    0    0  0.37316417479E+02 -0.11867466948E+03 -0.49260636872E+02  0.13380135475E+03  0.00000000000E+00 0. -1.
</event>
<event>
 7    1  0.6219721E-006  0.4380718E+02  0.7818608E-02  0.1511048E+00
          2   -1    0    0  502    0  0.00000000000E+00  0.00000000000E+00  0.95088224580E+02  0.95088224580E+02  0.00000000000E+00 0. -1.
          1   -1    0    0  501    0 -0.00000000000E+00 -0.00000000000E+00 -0.56262792840E+03  0.56262792840E+03  0.00000000000E+00 0. -1.
         25    2    1    2    0    0  0.75139422441E+02 -0.24747681583E+02 -0.39516555281E+03  0.42195181767E+03  0.12501656595E+03 0.  0.
          2    1    1    2  501    0 -0.34270439519E+02  0.10448877325E+02 -0.14601030493E+03  0.15034178131E+03  0.00000000000E+00 0. -1.
          1    1    1    2  502    0 -0.40868982922E+02  0.14298804258E+02  0.73636153915E+02  0.85422553999E+02  0.00000000000E+00 0. -1.
         22    1    3    3    0    0  0.45198917157E+02 -0.64113898038E+02 -0.33502633621E+03  0.34408745980E+03  0.00000000000E+00 0.  1.
         22    1    3    3    0    0  0.29940505284E+02  0.39366216455E+02 -0.60139216597E+02  0.77864357876E+02  0.00000000000E+00 0.  1.
</event>
<event>
 7    1  0.6219721E-006  0.2035481E+03  0.7818608E-02  0.1255986E+00
          2   -1    0    0  502    0  0.00000000000E+00  0.00000000000E+00  0.25822693510E+04  0.25822693510E+04  0.00000000000E+00 0. -1.
          1   -1    0    0  501    0 -0.00000000000E+00 -0.00000000000E+00 -0.13032891946E+04  0.13032891946E+04  0.00000000000E+00 0. -1.
         25    2    1    2    0    0  0.19326762930E+03 -0.83971008798E+02 -0.47195731570E+01  0.24505091336E+03  0.12499667561E+03 0.  0.
          2    1    1    2  501    0 -0.15454752290E+03  0.13263940772E+03 -0.11692072128E+04  0.11868123928E+04  0.00000000000E+00 0. -1.
          1    1    1    2  502    0 -0.38720106395E+02 -0.48668398924E+02  0.24529069424E+04  0.24536952394E+04  0.00000000000E+00 0. -1.
         22    1    3    3    0    0  0.86679218596E+02  0.10611102103E+02 -0.43224320627E+02  0.97438310320E+02  0.00000000000E+00 0.  1.
         22    1    3    3    0    0  0.10658841070E+03 -0.94582110901E+02  0.38504747470E+02  0.14761260304E+03  0.00000000000E+00 0.  1.
</event>
<event>
 7    1  0.6320054E-006  0.1151028E+03  0.7818608E-02  0.1422065E+00
          2   -1    0    0  502    0  0.00000000000E+00  0.00000000000E+00  0.14203686679E+04  0.14203686679E+04  0.00000000000E+00 0. -1.
          1   -1    0    0  501    0 -0.00000000000E+00 -0.00000000000E+00 -0.11904826849E+04  0.11904826849E+04  0.00000000000E+00 0. -1.
         25    2    1    2    0    0 -0.10580438057E+03 -0.51777801100E+01 -0.44100389873E+03  0.47045809626E+03  0.12500002116E+03 0.  0.
          2    1    1    2  501    0 -0.76890414304E+01  0.24718816114E+02 -0.73216373504E+03  0.73262123647E+03  0.00000000000E+00 0. -1.
          1    1    1    2  502    0  0.11349342200E+03 -0.19541036004E+02  0.14030536168E+04  0.14077720201E+04  0.00000000000E+00 0. -1.
         22    1    3    3    0    0 -0.19291391657E+02  0.54227564747E+02 -0.12844200501E+03  0.14074848213E+03  0.00000000000E+00 0.  1.
         22    1    3    3    0    0 -0.86512988909E+02 -0.59405344857E+02 -0.31256189371E+03  0.32970961413E+03  0.00000000000E+00 0.  1.
</event>
<event>
 7    1  0.6219721E-006  0.1713866E+03  0.7818608E-02  0.1360494E+00
          2   -1    0    0  502    0  0.00000000000E+00  0.00000000000E+00  0.29336816137E+03  0.29336816137E+03  0.00000000000E+00 0. -1.
          1   -1    0    0  501    0 -0.00000000000E+00 -0.00000000000E+00 -0.76029959276E+03  0.76029959276E+03  0.00000000000E+00 0. -1.
         25    2    1    2    0    0  0.70329798859E+02  0.17055420784E+03 -0.12049226466E+03  0.25333391508E+03  0.12499867307E+03 0.  0.
          2    1    1    2  501    0 -0.85134400529E+02 -0.14620784570E+03 -0.55993883366E+03  0.58494110621E+03  0.00000000000E+00 0. -1.
          1    1    1    2  502    0  0.14804601670E+02 -0.24346362132E+02  0.21349966693E+03  0.21539273284E+03  0.00000000000E+00 0. -1.
         22    1    3    3    0    0  0.10562858343E+03  0.14431393082E+03 -0.95334016506E+02  0.20266347222E+03  0.00000000000E+00 0. -1.
         22    1    3    3    0    0 -0.35298784571E+02  0.26240277012E+02 -0.25158248157E+02  0.50670442865E+02  0.00000000000E+00 0. -1.
</event>
<event>
 7    1  0.6219721E-006  0.5586226E+02  0.7818608E-02  0.1511126E+00
          2   -1    0    0  502    0  0.00000000000E+00  0.00000000000E+00  0.13417630482E+04  0.13417630482E+04  0.00000000000E+00 0. -1.
          1   -1    0    0  501    0 -0.00000000000E+00 -0.00000000000E+00 -0.37315879174E+03  0.37315879174E+03  0.00000000000E+00 0. -1.
         25    2    1    2    0    0  0.14165828869E+02  0.77060395607E+02  0.11614573088E+03  0.18776063424E+03  0.12500099877E+03 0.  0.
          2    1    1    2  501    0  0.89640433962E+01 -0.26612128166E+02 -0.33611835602E+03  0.33728935455E+03  0.00000000000E+00 0. -1.
          1    1    1    2  502    0 -0.23129872265E+02 -0.50448267441E+02  0.11885768816E+04  0.11898718512E+04  0.00000000000E+00 0. -1.
         22    1    3    3    0    0  0.47976928020E+02  0.38505580037E+02  0.79302850003E+00  0.61523119317E+02  0.00000000000E+00 0.  1.
         22    1    3    3    0    0 -0.33811099152E+02  0.38554815569E+02  0.11535270238E+03  0.12623751493E+03  0.00000000000E+00 0.  1.
</event>
<event>
 7    1  0.6219721E-006  0.2049394E+03  0.7818608E-02  0.1260737E+00
          2   -1    0    0  502    0  0.00000000000E+00  0.00000000000E+00  0.34519428298E+03  0.34519428298E+03  0.00000000000E+00 0. -1.
          1   -1    0    0  501    0 -0.00000000000E+00 -0.00000000000E+00 -0.21890015278E+04  0.21890015278E+04  0.00000000000E+00 0. -1.
         25    2    1    2    0    0 -0.21587908352E+03 -0.12488045464E+03 -0.31313979935E+03  0.41938593106E+03  0.12501647322E+03 0.  0.
          2    1    1    2  501    0  0.28810295074E+02  0.51424422191E+02 -0.17876227929E+04  0.17885943515E+04  0.00000000000E+00 0. -1.
          1    1    1    2  502    0  0.18706878845E+03  0.73456032447E+02  0.25695534744E+03  0.32621552828E+03  0.00000000000E+00 0. -1.
         22    1    3    3    0    0 -0.10937840944E+03 -0.13092816135E+03 -0.16973133625E+03  0.24065441278E+03  0.00000000000E+00 0.  1.
         22    1    3    3    0    0 -0.10650067408E+03  0.60477067093E+01 -0.14340846310E+03  0.17873151828E+03  0.00000000000E+00 0.  1.
</event>
<event>
 7    1  0.6219721E-006  0.9008188E+02  0.7818608E-02  0.1386066E+00
          2   -1    0    0  502    0  0.00000000000E+00  0.00000000000E+00  0.16148991864E+03  0.16148991864E+03  0.00000000000E+00 0. -1.
          1   -1    0    0  501    0 -0.00000000000E+00 -0.00000000000E+00 -0.42418382106E+03  0.42418382106E+03  0.00000000000E+00 0. -1.
         25    2    1    2    0    0  0.11681880842E+03  0.19481870933E+02 -0.12059182939E+03  0.21022117015E+03  0.12499749504E+03 0.  0.
          2    1    1    2  501    0 -0.77156185194E+02 -0.38332400445E+02 -0.24707466687E+03  0.26166455788E+03  0.00000000000E+00 0. -1.
          1    1    1    2  502    0 -0.39662623222E+02  0.18850529511E+02  0.10497259384E+03  0.11378801168E+03  0.00000000000E+00 0. -1.
         22    1    3    3    0    0  0.96088018990E+02 -0.27184306154E+02 -0.12380276622E+03  0.15905665286E+03  0.00000000000E+00 0.  1.
         22    1    3    3    0    0  0.20730789426E+02  0.46666177087E+02  0.32109368276E+01  0.51164517289E+02  0.00000000000E+00 0.  1.
</event>
<event>
 7    1  0.6219721E-006  0.1597573E+03  0.7818608E-02  0.1277763E+00
          2   -1    0    0  502    0  0.00000000000E+00  0.00000000000E+00  0.61965722400E+03  0.61965722400E+03  0.00000000000E+00 0. -1.
          1   -1    0    0  501    0 -0.00000000000E+00 -0.00000000000E+00 -0.47216482851E+03  0.47216482851E+03  0.00000000000E+00 0. -1.
         25    2    1    2    0    0 -0.19577145709E+03  0.93301699942E+02  0.40599189841E+02  0.25358422629E+03  0.12499997993E+03 0.  0.
          2    1    1    2  501    0  0.14190324806E+03 -0.58514604037E+02 -0.34721224079E+03  0.37962722617E+03  0.00000000000E+00 0. -1.
          1    1    1    2  502    0  0.53868209031E+02 -0.34787095905E+02  0.45410544645E+03  0.45861060005E+03  0.00000000000E+00 0. -1.
         22    1    3    3    0    0 -0.64259870072E+02  0.79730339921E+02 -0.25849925099E+02  0.10561475576E+03  0.00000000000E+00 0.  1.
         22    1    3    3    0    0 -0.13151158702E+03  0.13571360021E+02  0.66449114941E+02  0.14796947054E+03  0.00000000000E+00 0.  1.
</event>
<event>
 7    1  0.6219721E-006  0.8766140E+02  0.7818608E-02  0.1434445E+00
          2   -1    0    0  502    0  0.00000000000E+00  0.00000000000E+00  0.14034741624E+04  0.14034741624E+04  0.00000000000E+00 0. -1.
          1   -1    0    0  501    0 -0.00000000000E+00 -0.00000000000E+00 -0.39800611344E+03  0.39800611344E+03  0.00000000000E+00 0. -1.
         25    2    1    2    0    0  0.67828534177E+02 -0.25075951862E+02  0.34081372505E+03  0.37014640617E+03  0.12499941361E+03 0.  0.
          2    1    1    2  501    0 -0.87922476888E+02  0.15507727136E+01 -0.37806428262E+03  0.38815637137E+03  0.00000000000E+00 0. -1.
          1    1    1    2  502    0  0.20093942711E+02  0.23525179148E+02  0.10427186065E+04  0.10431774983E+04  0.00000000000E+00 0. -1.
         22    1    3    3    0    0 -0.59644382742E+01 -0.55742634710E+02  0.82426676063E+02  0.99684365751E+02  0.00000000000E+00 0. -1.
         22    1    3    3    0    0  0.73792972451E+02  0.30666682848E+02  0.25838704899E+03  0.27046204042E+03  0.00000000000E+00 0. -1.
</event>
<event>
 7    1  0.6219721E-006  0.4510548E+03  0.7818608E-02  0.1226746E+00
          2   -1    0    0  502    0  0.00000000000E+00  0.00000000000E+00  0.10750698386E+04  0.10750698386E+04  0.00000000000E+00 0. -1.
          1   -1    0    0  501    0 -0.00000000000E+00 -0.00000000000E+00 -0.52275547245E+03  0.52275547245E+03  0.00000000000E+00 0. -1.
         25    2    1    2    0    0  0.12410065991E+03  0.43678618576E+03  0.46692652871E+02  0.47327428831E+03  0.12500080916E+03 0.  0.
          2    1    1    2  501    0 -0.86631014511E+02 -0.44133348720E+03 -0.14521726738E+03  0.47261848709E+03  0.00000000000E+00 0. -1.
          1    1    1    2  502    0 -0.37469645396E+02  0.45473014384E+01  0.65083898063E+03  0.65193253561E+03  0.00000000000E+00 0. -1.
         22    1    3    3    0    0 -0.25988308721E+02  0.69059152629E+02  0.70177627152E+01  0.74120224943E+02  0.00000000000E+00 0. -1.
         22    1    3    3    0    0  0.15008896863E+03  0.36772703313E+03  0.39674890156E+02  0.39915406337E+03  0.00000000000E+00 0. -1.
</event>
<event>
 7    1  0.6219721E-006  0.5985257E+02  0.7818608E-02  0.1510657E+00
          2   -1    0    0  502    0  0.00000000000E+00  0.00000000000E+00  0.75391001964E+03  0.75391001964E+03  0.00000000000E+00 0. -1.
          1   -1    0    0  501    0 -0.00000000000E+00 -0.00000000000E+00 -0.36177459044E+03  0.36177459044E+03  0.00000000000E+00 0. -1.
         25    2    1    2    0    0 -0.62733828503E+02 -0.54071768774E+02  0.79810594594E+02  0.16986350871E+03  0.12499836464E+03 0.  0.
          2    1    1    2  501    0  0.12191825995E+02  0.23294971511E+02 -0.31480727697E+03  0.31590333640E+03  0.00000000000E+00 0. -1.
          1    1    1    2  502    0  0.50542002508E+02  0.30776797263E+02  0.62713211157E+03  0.62991776498E+03  0.00000000000E+00 0. -1.
         22    1    3    3    0    0  0.29588651845E+02 -0.22064059158E+02  0.59566710913E+02  0.70074988930E+02  0.00000000000E+00 0.  1.
         22    1    3    3    0    0 -0.92322480348E+02 -0.32007709616E+02  0.20243883681E+02  0.99788519775E+02  0.00000000000E+00 0.  1.
</event>
<event>
 7    1  0.6219721E-006  0.6119389E+02  0.7818608E-02  0.1466699E+00
          2   -1    0    0  502    0  0.00000000000E+00  0.00000000000E+00  0.65046015469E+02  0.65046015469E+02  0.00000000000E+00 0. -1.
          1   -1    0    0  501    0 -0.00000000000E+00 -0.00000000000E+00 -0.16062675387E+04  0.16062675387E+04  0.00000000000E+00 0. -1.
         25    2    1    2    0    0  0.69602128505E+01 -0.43366038188E+02 -0.88834285689E+02  0.15951584293E+03  0.12499886400E+03 0.  0.
          2    1    1    2  501    0 -0.27745273660E+02 -0.21256944567E+02 -0.14428202308E+04  0.14432435264E+04  0.00000000000E+00 0. -1.
          1    1    1    2  502    0  0.20785060809E+02  0.64622982754E+02 -0.95670067668E+01  0.68554184930E+02  0.00000000000E+00 0. -1.
         22    1    3    3    0    0  0.89136910038E+01 -0.77855222072E+02 -0.17553804080E+02  0.80305824999E+02  0.00000000000E+00 0. -1.
         22    1    3    3    0    0 -0.19534781533E+01  0.34489183884E+02 -0.71280481609E+02  0.79210017929E+02  0.00000000000E+00 0. -1.
</event>
<event>
 7    1  0.6219721E-006  0.1298940E+03  0.7818608E-02  0.1306032E+00
          2   -1    0    0  502    0  0.00000000000E+00  0.00000000000E+00  0.92119514054E+02  0.92119514054E+02  0.00000000000E+00 0. -1.
          1   -1    0    0  501    0 -0.00000000000E+00 -0.00000000000E+00 -0.74107958497E+03  0.74107958497E+03  0.00000000000E+00 0. -1.
         25    2    1    2    0    0  0.14588186284E+03  0.81918167967E+02 -0.18982355825E+03  0.28222420532E+03  0.12500165861E+03 0.  0.
          2    1    1    2  501    0 -0.85859953187E+02 -0.90042865151E+02 -0.47278937317E+03  0.48888591768E+03  0.00000000000E+00 0. -1.
          1    1    1    2  502    0 -0.60021909652E+02  0.81246971848E+01  0.13652860506E+02  0.62088976015E+02  0.00000000000E+00 0. -1.
         22    1    3    3    0    0  0.11601736788E+02 -0.25374773802E+02 -0.25295391061E+01  0.28015674364E+02  0.00000000000E+00 0.  1.
         22    1    3    3    0    0  0.13428012605E+03  0.10729294177E+03 -0.18729401914E+03  0.25420853096E+03  0.00000000000E+00 0.  1.
</event>
<event>
 7    1  0.6219721E-006  0.2023491E+03  0.7818608E-02  0.1173870E+00
          2   -1    0    0  502    0  0.00000000000E+00  0.00000000000E+00  0.85860680304E+03  0.85860680304E+03  0.00000000000E+00 0. -1.
          1   -1    0    0  501    0 -0.00000000000E+00 -0.00000000000E+00 -0.15727017833E+04  0.15727017833E+04  0.00000000000E+00 0. -1.
         25    2    1    2    0    0  0.17248311305E+03  0.24625583720E+02  0.12341558972E+03  0.24741360292E+03  0.12500095784E+03 0.  0.
          2    1    1    2  501    0 -0.12192195572E+03 -0.16521074559E+03 -0.14953106745E+04  0.15093420974E+04  0.00000000000E+00 0. -1.
          1    1    1    2  502    0 -0.50561157332E+02  0.14058516187E+03  0.65780010457E+03  0.67455288595E+03  0.00000000000E+00 0. -1.
         22    1    3    3    0    0  0.26936692846E+02  0.54900335078E+02  0.13750723825E+02  0.62679459306E+02  0.00000000000E+00 0.  1.
         22    1    3    3    0    0  0.14554642020E+03 -0.30274751358E+02  0.10966486590E+03  0.18473414361E+03  0.00000000000E+00 0.  1.
</event>
<event>
 7    1  0.6219721E-006  0.9351668E+02  0.7818608E-02  0.1406385E+00
          2   -1    0    0  502    0  0.00000000000E+00  0.00000000000E+00  0.10956202467E+02  0.10956202467E+02  0.00000000000E+00 0. -1.
          1   -1    0    0  501    0 -0.00000000000E+00 -0.00000000000E+00 -0.19200152145E+04  0.19200152145E+04  0.00000000000E+00 0. -1.
         25    2    1    2    0    0 -0.76958127136E+02  0.73499648404E+02 -0.11534879689E+04  0.11651114585E+04  0.12500185862E+03 0.  0.
          2    1    1    2  501    0  0.35574083807E+02  0.54068633346E+01 -0.20954334046E+03  0.21261035050E+03  0.00000000000E+00 0. -1.
          1    1    1    2  502    0  0.41384043329E+02 -0.78906511739E+02 -0.54602770269E+03  0.55324960799E+03  0.00000000000E+00 0. -1.
         22    1    3    3    0    0 -0.65142282524E+02  0.70322799609E+02 -0.39288156603E+03  0.40440664936E+03  0.00000000000E+00 0.  1.
         22    1    3    3    0    0 -0.11815844612E+02  0.31768487956E+01 -0.76060640288E+03  0.76070480914E+03  0.00000000000E+00 0.  1.
</event>
<event>
 7    1  0.6219721E-006  0.3391383E+02  0.7818608E-02  0.1626118E+00
          2   -1    0    0  502    0  0.00000000000E+00  0.00000000000E+00  0.43146478282E+03  0.43146478282E+03  0.00000000000E+00 0. -1.
          1   -1    0    0  501    0 -0.00000000000E+00 -0.00000000000E+00 -0.23223461283E+02  0.23223461283E+02  0.00000000000E+00 0. -1.
         25    2    1    2    0    0  0.13310727333E+02 -0.14552614299E+02  0.24969408740E+03  0.27993173438E+03  0.12500273832E+03 0.  0.
          2    1    1    2  501    0  0.21917995285E+02  0.49848390745E+01  0.15952411097E+02  0.27563137661E+02  0.00000000000E+00 0. -1.
          1    1    1    2  502    0 -0.35228722618E+02  0.95677752242E+01  0.14259482304E+03  0.14719337206E+03  0.00000000000E+00 0. -1.
         22    1    3    3    0    0 -0.36881961120E+02 -0.24399130165E+02  0.27835708505E+02  0.52253452296E+02  0.00000000000E+00 0.  1.
         22    1    3    3    0    0  0.50192688453E+02  0.98465158662E+01  0.22185837889E+03  0.22767828209E+03  0.00000000000E+00 0.  1.
</event>
<event>
 7    1  0.6219721E-006  0.1088026E+03  0.7818608E-02  0.1350020E+00
          2   -1    0    0  502    0  0.00000000000E+00  0.00000000000E+00  0.73923217889E+02  0.73923217889E+02  0.00000000000E+00 0. -1.
          1   -1    0    0  501    0 -0.00000000000E+00 -0.00000000000E+00 -0.43371906560E+03  0.43371906560E+03  0.00000000000E+00 0. -1.
         25    2    1    2    0    0  0.37655721594E+02  0.65757497817E+02 -0.28185759484E+03  0.31750759713E+03  0.12500147430E+03 0.  0.
          2    1    1    2  501    0 -0.84733465002E+01  0.48307316043E+02 -0.48053598317E+02  0.68662527592E+02  0.00000000000E+00 0. -1.
          1    1    1    2  502    0 -0.29182375093E+02 -0.11406481386E+03 -0.29884654550E+02  0.12147215876E+03  0.00000000000E+00 0. -1.
         22    1    3    3    0    0 -0.89787335722E+01  0.80360542329E+02 -0.96915347051E+02  0.12621814019E+03  0.00000000000E+00 0.  1.
         22    1    3    3    0    0  0.46634455166E+02 -0.14603044512E+02 -0.18494224779E+03  0.19128945694E+03  0.00000000000E+00 0.  1.
</event>
<event>
 7    1  0.6219721E-006  0.9988323E+02  0.7818608E-02  0.1413362E+00
          2   -1    0    0  502    0  0.00000000000E+00  0.00000000000E+00  0.14192201610E+04  0.14192201610E+04  0.00000000000E+00 0. -1.
          1   -1    0    0  501    0 -0.00000000000E+00 -0.00000000000E+00 -0.47002563719E+03  0.47002563719E+03  0.00000000000E+00 0. -1.
         25    2    1    2    0    0  0.32825714072E+02 -0.66720572351E+02  0.83134772574E+02  0.16752633467E+03  0.12499808046E+03 0.  0.
          2    1    1    2  501    0  0.28976697408E+02 -0.13349008179E+02 -0.42525467979E+03  0.42644974815E+03  0.00000000000E+00 0. -1.
          1    1    1    2  502    0 -0.61802411480E+02  0.80069580530E+02  0.12913144311E+04  0.12952697154E+04  0.00000000000E+00 0. -1.
         22    1    3    3    0    0 -0.32813240471E+02  0.11174489886E+02  0.49148962444E+02  0.60143149932E+02  0.00000000000E+00 0.  1.
         22    1    3    3    0    0  0.65638954543E+02 -0.77895062237E+02  0.33985810130E+02  0.10738318474E+03  0.00000000000E+00 0.  1.
</event>
<event>
 7    1  0.6219721E-006  0.5443569E+02  0.7818608E-02  0.1478859E+00
          2   -1    0    0  502    0  0.00000000000E+00  0.00000000000E+00  0.12324694531E+03  0.12324694531E+03  0.00000000000E+00 0. -1.
          1   -1    0    0  501    0 -0.00000000000E+00 -0.00000000000E+00 -0.23207817067E+04  0.23207817067E+04  0.00000000000E+00 0. -1.
         25    2    1    2    0    0 -0.64475283539E+02 -0.19593555302E+02  0.17703147041E+02  0.14310591389E+03  0.12499972632E+03 0.  0.
          2    1    1    2  501    0  0.13241400175E+02  0.33504415957E+02 -0.22414333650E+04  0.22417228666E+04  0.00000000000E+00 0. -1.
          1    1    1    2  502    0  0.51233883364E+02 -0.13910860655E+02  0.26195456590E+02  0.59199871576E+02  0.00000000000E+00 0. -1.
         22    1    3    3    0    0 -0.55947381257E+02  0.44713368399E+02  0.28984206398E+02  0.77262403559E+02  0.00000000000E+00 0. -1.
         22    1    3    3    0    0 -0.85279022814E+01 -0.64306923701E+02 -0.11281059357E+02  0.65843510336E+02  0.00000000000E+00 0. -1.
</event>
<event>
 7    1  0.6219721E-006  0.9745125E+02  0.7818608E-02  0.1383951E+00
          2   -1    0    0  502    0  0.00000000000E+00  0.00000000000E+00  0.23046264082E+04  0.23046264082E+04  0.00000000000E+00 0. -1.
          1   -1    0    0  501    0 -0.00000000000E+00 -0.00000000000E+00 -0.35687469736E+04  0.35687469736E+04  0.00000000000E+00 0. -1.
         25    2    1    2    0    0  0.53888378416E+02  0.16569720586E+02 -0.75170463181E+03  0.76410920866E+03  0.12499806518E+03 0.  0.
          2    1    1    2  501    0  0.37770100201E+02  0.16693102155E+02 -0.28096541095E+04  0.28099575539E+04  0.00000000000E+00 0. -1.
          1    1    1    2  502    0 -0.91658478617E+02 -0.33262822741E+02  0.22972381760E+04  0.22993066192E+04  0.00000000000E+00 0. -1.
         22    1    3    3    0    0  0.76333357537E+02  0.35492714797E+02 -0.69663769365E+03  0.70170548701E+03  0.00000000000E+00 0. -1.
         22    1    3    3    0    0 -0.22444979121E+02 -0.18922994211E+02 -0.55066938162E+02  0.62403721653E+02  0.00000000000E+00 0. -1.
</event>
<event>
 7    1  0.6219721E-006  0.7898913E+02  0.7818608E-02  0.1379213E+00
          2   -1    0    0  502    0  0.00000000000E+00  0.00000000000E+00  0.18045102283E+03  0.18045102283E+03  0.00000000000E+00 0. -1.
          1   -1    0    0  501    0 -0.00000000000E+00 -0.00000000000E+00 -0.84745284119E+03  0.84745284119E+03  0.00000000000E+00 0. -1.
         25    2    1    2    0    0  0.42199327168E+02  0.45678584463E+02 -0.38578407090E+03  0.41027007175E+03  0.12499946446E+03 0.  0.
          2    1    1    2  501    0 -0.86819634526E+02 -0.17173127707E+02 -0.44074824942E+03  0.44954597610E+03  0.00000000000E+00 0. -1.
          1    1    1    2  502    0  0.44620307357E+02 -0.28505456755E+02  0.15953050196E+03  0.16808781619E+03  0.00000000000E+00 0. -1.
         22    1    3    3    0    0  0.65130597759E+02  0.76053035601E+02 -0.30396685372E+03  0.32003422809E+03  0.00000000000E+00 0.  1.
         22    1    3    3    0    0 -0.22931270591E+02 -0.30374451138E+02 -0.81817217187E+02  0.90235843660E+02  0.00000000000E+00 0.  1.
</event>
<event>
 7    1  0.6219721E-006  0.8854425E+02  0.7818608E-02  0.1386393E+00
          2   -1    0    0  502    0  0.00000000000E+00  0.00000000000E+00  0.43762369485E+03  0.43762369485E+03  0.00000000000E+00 0. -1.
          1   -1    0    0  501    0 -0.00000000000E+00 -0.00000000000E+00 -0.10233852437E+04  0.10233852437E+04  0.00000000000E+00 0. -1.
         25    2    1    2    0    0  0.11893325401E+03  0.25945169487E+02  0.10268884881E+03  0.20245528086E+03  0.12499948139E+03 0.  0.
          2    1    1    2  501    0 -0.43003133766E+02  0.11672270498E+02 -0.96667995036E+03  0.96770637997E+03  0.00000000000E+00 0. -1.
          1    1    1    2  502    0 -0.75930120246E+02 -0.37617439985E+02  0.27822955271E+03  0.29084727771E+03  0.00000000000E+00 0. -1.
         22    1    3    3    0    0  0.43001349244E+02 -0.50137659745E+02  0.29040505978E+02  0.72154361954E+02  0.00000000000E+00 0.  1.
         22    1    3    3    0    0  0.75931904768E+02  0.76082829232E+02  0.73648342827E+02  0.13030091890E+03  0.00000000000E+00 0.  1.
</event>
<event>
 7    1  0.6219721E-006  0.3563331E+02  0.7818608E-02  0.1589038E+00
          2   -1    0    0  502    0  0.00000000000E+00  0.00000000000E+00  0.28441747972E+03  0.28441747972E+03  0.00000000000E+00 0. -1.
          1   -1    0    0  501    0 -0.00000000000E+00 -0.00000000000E+00 -0.12792206578E+03  0.12792206578E+03  0.00000000000E+00 0. -1.
         25    2    1    2    0    0 -0.14460687224E+02 -0.48823714164E+02  0.21702036486E+02  0.13670684180E+03  0.12499966267E+03 0.  0.
          2    1    1    2  501    0  0.25243364476E+02  0.24416668625E+02 -0.65098571666E+02  0.73967730732E+02  0.00000000000E+00 0. -1.
          1    1    1    2  502    0 -0.10782677252E+02  0.24407045539E+02  0.19989194912E+03  0.20166497297E+03  0.00000000000E+00 0. -1.
         22    1    3    3    0    0  0.45902860234E+01  0.37363665408E+02 -0.15770147579E+02  0.40814357439E+02  0.00000000000E+00 0. -1.
         22    1    3    3    0    0 -0.19050973247E+02 -0.86187379572E+02  0.37472184064E+02  0.95892484365E+02  0.00000000000E+00 0. -1.
</event>
<event>
 7    1  0.6219721E-006  0.1193784E+03  0.7818608E-02  0.1307079E+00
          2   -1    0    0  502    0  0.00000000000E+00  0.00000000000E+00  0.49278149820E+03  0.49278149820E+03  0.00000000000E+00 0. -1.
          1   -1    0    0  501    0 -0.00000000000E+00 -0.00000000000E+00 -0.28261178920E+03  0.28261178920E+03  0.00000000000E+00 0. -1.
         25    2    1    2    0    0  0.11223507327E+03 -0.64547759426E+01  0.28368224829E+03  0.32975467340E+03  0.12499660327E+03 0.  0.
          2    1    1    2  501    0  0.96468490941E+01  0.64561188055E+02 -0.22992241047E+03  0.23900946327E+03  0.00000000000E+00 0. -1.
          1    1    1    2  502    0 -0.12188192236E+03 -0.58106412112E+02  0.15640987118E+03  0.20662915072E+03  0.00000000000E+00 0. -1.
         22    1    3    3    0    0  0.30336766994E+02  0.52860050466E+02  0.66613195064E+02  0.90287441671E+02  0.00000000000E+00 0. -1.
         22    1    3    3    0    0  0.81898306277E+02 -0.59314826408E+02  0.21706905323E+03  0.23946723173E+03  0.00000000000E+00 0. -1.
</event>
<event>
 7    1  0.6219721E-006  0.8046959E+02  0.7818608E-02  0.1371675E+00
          2   -1    0    0  502    0  0.00000000000E+00  0.00000000000E+00  0.33614921425E+03  0.33614921425E+03  0.00000000000E+00 0. -1.
          1   -1    0    0  501    0 -0.00000000000E+00 -0.00000000000E+00 -0.23419410870E+04  0.23419410870E+04  0.00000000000E+00 0. -1.
         25    2    1    2    0    0  0.25222005888E+02  0.49716366664E+02  0.49651089676E+00  0.13686663042E+03  0.12499744519E+03 0.  0.
          2    1    1    2  501    0  0.52455861633E+02 -0.17483720861E+02 -0.22667996639E+04  0.22674739280E+04  0.00000000000E+00 0. -1.
          1    1    1    2  502    0 -0.77677867522E+02 -0.32232645803E+02  0.26051128025E+03  0.27374974283E+03  0.00000000000E+00 0. -1.
         22    1    3    3    0    0  0.71717786860E+02  0.50786161566E+02 -0.12037037149E+02  0.88699297754E+02  0.00000000000E+00 0.  1.
         22    1    3    3    0    0 -0.46495780972E+02 -0.10697949024E+01  0.12533548046E+02  0.48167332664E+02  0.00000000000E+00 0.  1.
</event>
<event>
 7    1  0.6219721E-006  0.2495618E+03  0.7818608E-02  0.1231881E+00
          2   -1    0    0  502    0  0.00000000000E+00  0.00000000000E+00  0.63562835889E+03  0.63562835889E+03  0.00000000000E+00 0. -1.
          1   -1    0    0  501    0 -0.00000000000E+00 -0.00000000000E+00 -0.13473010677E+04  0.13473010677E+04  0.00000000000E+00 0. -1.
         25    2    1    2    0    0  0.13237946091E+03  0.13802979381E+03 -0.20902675551E+03  0.30966631533E+03  0.12499798670E+03 0.  0.
          2    1    1    2  501    0  0.41994927991E+02  0.49209688318E+02 -0.10589584086E+04  0.10609326457E+04  0.00000000000E+00 0. -1.
          1    1    1    2  502    0 -0.17437438890E+03 -0.18723948213E+03  0.55631245532E+03  0.61233046562E+03  0.00000000000E+00 0. -1.
         22    1    3    3    0    0  0.14827703063E+03  0.11962438919E+03 -0.21215913675E+03  0.28514482568E+03  0.00000000000E+00 0.  1.
         22    1    3    3    0    0 -0.15897569721E+02  0.18405404623E+02  0.31323812459E+01  0.24521489650E+02  0.00000000000E+00 0.  1.
</event>
<event>
 7    1  0.6219721E-006  0.5086878E+02  0.7818608E-02  0.1467379E+00
          2   -1    0    0  502    0  0.00000000000E+00  0.00000000000E+00  0.12194822240E+04  0.12194822240E+04  0.00000000000E+00 0. -1.
          1   -1    0    0  501    0 -0.00000000000E+00 -0.00000000000E+00 -0.10711015306E+03  0.10711015306E+03  0.00000000000E+00 0. -1.
         25    2    1    2    0    0  0.40717493442E+02  0.80993352091E+02  0.17533928155E+03  0.23363606261E+03  0.12499643492E+03 0.  0.
          2    1    1    2  501    0 -0.25163480135E+02 -0.33428945407E+02 -0.71682499473E+02  0.83000456952E+02  0.00000000000E+00 0. -1.
          1    1    1    2  502    0 -0.15554013307E+02 -0.47564406684E+02  0.10087152889E+04  0.10099558575E+04  0.00000000000E+00 0. -1.
         22    1    3    3    0    0  0.59333546539E+02  0.10014767483E+03  0.17056785989E+03  0.20650283617E+03  0.00000000000E+00 0.  1.
         22    1    3    3    0    0 -0.18616053097E+02 -0.19154322737E+02  0.47714216573E+01  0.27133226441E+02  0.00000000000E+00 0.  1.
</event>
<event>
 7    1  0.6219721E-006  0.3235846E+02  0.7818608E-02  0.1649450E+00
          2   -1    0    0  502    0  0.00000000000E+00  0.00000000000E+00  0.20983410816E+02  0.20983410816E+02  0.00000000000E+00 0. -1.
          1   -1    0    0  501    0 -0.00000000000E+00 -0.00000000000E+00 -0.16818526906E+04  0.16818526906E+04  0.00000000000E+00 0. -1.
         25    2    1    2    0    0 -0.11901978864E+02  0.33653597121E+02 -0.51026269099E+03  0.52656264301E+03  0.12500392595E+03 0.  0.
          2    1    1    2  501    0  0.26333547119E+02 -0.18942338804E+02 -0.11547896423E+04  0.11552451627E+04  0.00000000000E+00 0. -1.
          1    1    1    2  502    0 -0.14431568255E+02 -0.14711258317E+02  0.41830535299E+01  0.21028295709E+02  0.00000000000E+00 0. -1.
         22    1    3    3    0    0  0.49803667293E+02 -0.29162371619E+01 -0.30672945827E+03  0.31076014913E+03  0.00000000000E+00 0.  1.
         22    1    3    3    0    0 -0.61705646157E+02  0.36569834283E+02 -0.20353323272E+03  0.21580249389E+03  0.00000000000E+00 0.  1.
</event>
<event>
 7    1  0.6219721E-006  0.9533374E+02  0.7818608E-02  0.1436613E+00
          2   -1    0    0  502    0  0.00000000000E+00  0.00000000000E+00  0.22486274336E+04  0.22486274336E+04  0.00000000000E+00 0. -1.
          1   -1    0    0  501    0 -0.00000000000E+00 -0.00000000000E+00 -0.12851021480E+04  0.12851021480E+04  0.00000000000E+00 0. -1.
         25    2    1    2    0    0 -0.10050060074E+02  0.11240794730E+03  0.78952272914E+03  0.80728363320E+03  0.12499669708E+03 0.  0.
          2    1    1    2  501    0  0.28139955362E+02 -0.91050955114E+02 -0.12743071937E+04  0.12778657822E+04  0.00000000000E+00 0. -1.
          1    1    1    2  502    0 -0.18089895288E+02 -0.21356992182E+02  0.14483097502E+04  0.14485801662E+04  0.00000000000E+00 0. -1.
         22    1    3    3    0    0 -0.42697350735E+02  0.12403567319E+03  0.67514518670E+03  0.68777099031E+03  0.00000000000E+00 0. -1.
         22    1    3    3    0    0  0.32647290661E+02 -0.11627725889E+02  0.11437754244E+03  0.11951264289E+03  0.00000000000E+00 0. -1.
</event>
<event>
 7    1  0.6219721E-006  0.7150487E+02  0.7818608E-02  0.1414363E+00
          2   -1    0    0  502    0  0.00000000000E+00  0.00000000000E+00  0.14698271446E+04  0.14698271446E+04  0.00000000000E+00 0. -1.
          1   -1    0    0  501    0 -0.00000000000E+00 -0.00000000000E+00 -0.47055184243E+03  0.47055184243E+03  0.00000000000E+00 0. -1.
         25    2    1    2    0    0  0.15082511459E+02 -0.10770870472E+03  0.85734175389E+03  0.87320482762E+03  0.12499256296E+03 0.  0.
          2    1    1    2  501    0  0.92653741872E+01  0.70794756904E+02 -0.45904829311E+03  0.46456762712E+03  0.00000000000E+00 0. -1.
          1    1    1    2  502    0 -0.24347885647E+02  0.36913947816E+02  0.60098184141E+03  0.60260653231E+03  0.00000000000E+00 0. -1.
         22    1    3    3    0    0 -0.22353236206E+02 -0.66579217051E+02  0.17451385272E+03  0.18811577314E+03  0.00000000000E+00 0.  1.
         22    1    3    3    0    0  0.37435747665E+02 -0.41129487669E+02  0.68282790117E+03  0.68508905448E+03  0.00000000000E+00 0.  1.
</event>
<event>
 7    1  0.6219721E-006  0.3917707E+02  0.7818608E-02  0.1529853E+00
          2   -1    0    0  502    0  0.00000000000E+00  0.00000000000E+00  0.10275292396E+04  0.10275292396E+04  0.00000000000E+00 0. -1.
          1   -1    0    0  501    0 -0.00000000000E+00 -0.00000000000E+00 -0.43799581288E+03  0.43799581288E+03  0.00000000000E+00 0. -1.
         25    2    1    2    0    0  0.45210476969E+02 -0.27882422971E+02  0.41555654337E+03  0.43718881660E+03  0.12500161553E+03 0.  0.
          2    1    1    2  501    0 -0.38577677520E+02 -0.68205208369E+01 -0.42576049302E+03  0.42755906507E+03  0.00000000000E+00 0. -1.
          1    1    1    2  502    0 -0.66327994491E+01  0.34702943808E+02  0.59973737640E+03  0.60077717083E+03  0.00000000000E+00 0. -1.
         22    1    3    3    0    0  0.83979085917E+02 -0.33493070712E+02  0.34319916263E+03  0.35490835139E+03  0.00000000000E+00 0.  1.
         22    1    3    3    0    0 -0.38768608948E+02  0.56106477415E+01  0.72357380738E+02  0.82280465210E+02  0.00000000000E+00 0.  1.
</event>
<event>
 7    1  0.6219721E-006  0.4209650E+02  0.7818608E-02  0.1554957E+00
          2   -1    0    0  502    0  0.00000000000E+00  0.00000000000E+00  0.22993152951E+03  0.22993152951E+03  0.00000000000E+00 0. -1.
          1   -1    0    0  501    0 -0.00000000000E+00 -0.00000000000E+00 -0.12053632089E+03  0.12053632089E+03  0.00000000000E+00 0. -1.
         25    2    1    2    0    0  0.31007190459E+01 -0.27491481533E+02  0.56587149210E+01  0.12814620016E+03  0.12499612612E+03 0.  0.
          2    1    1    2  501    0  0.22594001576E+02  0.38461291233E+02 -0.49456953998E+02  0.66601427382E+02  0.00000000000E+00 0. -1.
          1    1    1    2  502    0 -0.25694720622E+02 -0.10969809699E+02  0.15319344770E+03  0.15572022287E+03  0.00000000000E+00 0. -1.
         22    1    3    3    0    0  0.15783866808E+02 -0.33018621692E+02  0.60981146576E+02  0.71120039845E+02  0.00000000000E+00 0. -1.
         22    1    3    3    0    0 -0.12683147762E+02  0.55271401585E+01 -0.55322431655E+02  0.57026160310E+02  0.00000000000E+00 0. -1.
</event>
<event>
 7    1  0.6219721E-006  0.5941093E+02  0.7818608E-02  0.1415059E+00
          2   -1    0    0  502    0  0.00000000000E+00  0.00000000000E+00  0.21693815800E+04  0.21693815800E+04  0.00000000000E+00 0. -1.
          1   -1    0    0  501    0 -0.00000000000E+00 -0.00000000000E+00 -0.17009396276E+04  0.17009396276E+04  0.00000000000E+00 0. -1.
         25    2    1    2    0    0 -0.74718453922E+01 -0.51308589568E+01  0.63636608773E+03  0.64859088273E+03  0.12500472537E+03 0.  0.
          2    1    1    2  501    0  0.15012572176E+02  0.57526975489E+02 -0.16938467253E+04  0.16948898073E+04  0.00000000000E+00 0. -1.
          1    1    1    2  502    0 -0.75407267840E+01 -0.52396116532E+02  0.15259225899E+04  0.15268405176E+04  0.00000000000E+00 0. -1.
         22    1    3    3    0    0 -0.43768110123E+02 -0.50005165165E+02  0.29619622253E+03  0.30355949375E+03  0.00000000000E+00 0. -1.
         22    1    3    3    0    0  0.36296264731E+02  0.44874306208E+02  0.34016986520E+03  0.34503138898E+03  0.00000000000E+00 0. -1.
</event>
<event>
 7    1  0.6219721E-006  0.5375677E+02  0.7818608E-02  0.1471426E+00
          2   -1    0    0  502    0  0.00000000000E+00  0.00000000000E+00  0.89866796557E+03  0.89866796557E+03  0.00000000000E+00 0. -1.
          1   -1    0    0  501    0 -0.00000000000E+00 -0.00000000000E+00 -0.88328399238E+03  0.88328399238E+03  0.00000000000E+00 0. -1.
         25    2    1    2    0    0 -0.69816754364E+02  0.36471244612E+02  0.11806311173E+03  0.18912444613E+03  0.12499850760E+03 0.  0.
          2    1    1    2  501    0  0.16558718039E+02 -0.34714235706E+02 -0.84636328372E+03  0.84723673040E+03  0.00000000000E+00 0. -1.
          1    1    1    2  502    0  0.53258036325E+02 -0.17570089059E+01  0.74368414519E+03  0.74559078141E+03  0.00000000000E+00 0. -1.
         22    1    3    3    0    0 -0.40298701415E+02  0.33271393127E+02 -0.13726758789E+02  0.54031424590E+02  0.00000000000E+00 0.  1.
         22    1    3    3    0    0 -0.29518052949E+02  0.31998514851E+01  0.13178987052E+03  0.13509302154E+03  0.00000000000E+00 0.  1.
</event>
<event>
 7    1  0.6219721E-006  0.5036231E+02  0.7818608E-02  0.1480650E+00
          2   -1    0    0  502    0  0.00000000000E+00  0.00000000000E+00  0.28148331121E+04  0.28148331121E+04  0.00000000000E+00 0. -1.
          1   -1    0    0  501    0 -0.00000000000E+00 -0.00000000000E+00 -0.18342741634E+03  0.18342741634E+03  0.00000000000E+00 0. -1.
         25    2    1    2    0    0  0.41235717883E+02  0.27985097454E+02  0.50874556951E+03  0.52624170409E+03  0.12499890605E+03 0.  0.
          2    1    1    2  501    0 -0.31586540998E+02  0.21925230093E+02 -0.17227855043E+03  0.17651720660E+03  0.00000000000E+00 0. -1.
          1    1    1    2  502    0 -0.96491768852E+01 -0.49910327547E+02  0.22949386766E+04  0.22955016177E+04  0.00000000000E+00 0. -1.
         22    1    3    3    0    0  0.55031816510E+02 -0.66498329468E+01  0.89049043337E+02  0.10489257946E+03  0.00000000000E+00 0.  1.
         22    1    3    3    0    0 -0.13796098627E+02  0.34634930401E+02  0.41969652618E+03  0.42134912463E+03  0.00000000000E+00 0.  1.
</event>
<event>
 7    1  0.6219721E-006  0.7225866E+02  0.7818608E-02  0.1371708E+00
          2   -1    0    0  502    0  0.00000000000E+00  0.00000000000E+00  0.70809007647E+03  0.70809007647E+03  0.00000000000E+00 0. -1.
          1   -1    0    0  501    0 -0.00000000000E+00 -0.00000000000E+00 -0.28295558467E+03  0.28295558467E+03  0.00000000000E+00 0. -1.
         25    2    1    2    0    0 -0.68782179139E+02 -0.44203225356E+02  0.25643186236E+03  0.29676526077E+03  0.12500962631E+03 0.  0.
          2    1    1    2  501    0  0.70442072289E+02 -0.17333365193E+02 -0.25551819417E+03  0.26561641261E+03  0.00000000000E+00 0. -1.
          1    1    1    2  502    0 -0.16598931508E+01  0.61536590549E+02  0.42422082360E+03  0.42866398776E+03  0.00000000000E+00 0. -1.
         22    1    3    3    0    0 -0.19116979351E+02 -0.80397163572E+02  0.10704951176E+03  0.13523594484E+03  0.00000000000E+00 0.  1.
         22    1    3    3    0    0 -0.49665199787E+02  0.36193938216E+02  0.14938235061E+03  0.16152931593E+03  0.00000000000E+00 0.  1.
</event>
<event>
 7    1  0.6219721E-006  0.9777741E+02  0.7818608E-02  0.1420435E+00
          2   -1    0    0  502    0  0.00000000000E+00  0.00000000000E+00  0.51612088533E+03  0.51612088533E+03  0.00000000000E+00 0. -1.
          1   -1    0    0  501    0 -0.00000000000E+00 -0.00000000000E+00 -0.60350789104E+03  0.60350789104E+03  0.00000000000E+00 0. -1.
         25    2    1    2    0    0 -0.12786654969E+03  0.77269604480E+01 -0.25542083240E+03  0.31188814911E+03  0.12499942194E+03 0.  0.
          2    1    1    2  501    0  0.30735991940E+02 -0.27389559907E+01 -0.31424312648E+03  0.31575456548E+03  0.00000000000E+00 0. -1.
          1    1    1    2  502    0  0.97130557752E+02 -0.49880044573E+01  0.48227695317E+03  0.49198606179E+03  0.00000000000E+00 0. -1.
         22    1    3    3    0    0 -0.88655403362E+02 -0.41741804222E+02 -0.83488708813E+02  0.12873431269E+03  0.00000000000E+00 0. -1.
         22    1    3    3    0    0 -0.39211146329E+02  0.49468764670E+02 -0.17193212358E+03  0.18315383642E+03  0.00000000000E+00 0. -1.
</event>
<event>
 7    1  0.6219721E-006  0.9500621E+02  0.7818608E-02  0.1324276E+00
          2   -1    0    0  502    0  0.00000000000E+00  0.00000000000E+00  0.63078151854E+03  0.63078151854E+03  0.00000000000E+00 0. -1.
          1   -1    0    0  501    0 -0.00000000000E+00 -0.00000000000E+00 -0.56910953872E+03  0.56910953872E+03  0.00000000000E+00 0. -1.
         25    2    1    2    0    0  0.12645874304E+03  0.10518267525E+03  0.34292746795E+03  0.40034932301E+03  0.12500049318E+03 0.  0.
          2    1    1    2  501    0 -0.73169943784E+02 -0.59377782714E+02 -0.53141260267E+03  0.53970261815E+03  0.00000000000E+00 0. -1.
          1    1    1    2  502    0 -0.53288799253E+02 -0.45804892539E+02  0.25015711454E+03  0.25983911611E+03  0.00000000000E+00 0. -1.
         22    1    3    3    0    0  0.48390981277E+02  0.10978178279E+03  0.26010162358E+03  0.28643774453E+03  0.00000000000E+00 0. -1.
         22    1    3    3    0    0  0.78067761759E+02 -0.45991075367E+01  0.82825844368E+02  0.11391157848E+03  0.00000000000E+00 0. -1.
</event>
<event>
 7    1  0.6219721E-006  0.3917476E+02  0.7818608E-02  0.1546720E+00
          2   -1    0    0  502    0  0.00000000000E+00  0.00000000000E+00  0.41156640002E+03  0.41156640002E+03  0.00000000000E+00 0. -1.
          1   -1    0    0  501    0 -0.00000000000E+00 -0.00000000000E+00 -0.11970375155E+03  0.11970375155E+03  0.00000000000E+00 0. -1.
         25    2    1    2    0    0  0.51206285608E+02 -0.38041707123E+02  0.44221912016E+01  0.14041582854E+03  0.12501117536E+03 0.  0.
          2    1    1    2  501    0 -0.35688727124E+02  0.10455296951E+02 -0.44167776323E+02  0.57738989802E+02  0.00000000000E+00 0. -1.
          1    1    1    2  502    0 -0.15517558484E+02  0.27586410172E+02  0.33160823359E+03  0.33311533322E+03  0.00000000000E+00 0. -1.
         22    1    3    3    0    0  0.82767025984E+02 -0.52985907609E+02 -0.16584732506E+02  0.99664137721E+02  0.00000000000E+00 0.  1.
         22    1    3    3    0    0 -0.31560740376E+02  0.14944200486E+02  0.21006923707E+02  0.40751690822E+02  0.00000000000E+00 0.  1.
</event>
<event>
 7    1  0.6219721E-006  0.1109877E+03  0.7818608E-02  0.1362093E+00
          2   -1    0    0  502    0  0.00000000000E+00  0.00000000000E+00  0.11535996503E+04  0.11535996503E+04  0.00000000000E+00 0. -1.
          1   -1    0    0  501    0 -0.00000000000E+00 -0.00000000000E+00 -0.32881257915E+03  0.32881257915E+03  0.00000000000E+00 0. -1.
         25    2    1    2    0    0 -0.96690674809E+02  0.37334794968E+02  0.36583629243E+02  0.16645265997E+03  0.12500061028E+03 0.  0.
          2    1    1    2  501    0 -0.14937895875E+02 -0.40763689695E+02 -0.25910314252E+03  0.26271516438E+03  0.00000000000E+00 0. -1.
          1    1    1    2  502    0  0.11162857068E+03  0.34288947276E+01  0.10473065844E+04  0.10532444051E+04  0.00000000000E+00 0. -1.
         22    1    3    3    0    0 -0.12636110417E+03  0.33382550955E+02  0.39086156393E+02  0.13641572848E+03  0.00000000000E+00 0.  1.
         22    1    3    3    0    0  0.29670429359E+02  0.39522440130E+01 -0.25025271504E+01  0.30036931489E+02  0.00000000000E+00 0.  1.
</event>
<event>
 7    1  0.6219721E-006  0.2232219E+03  0.7818608E-02  0.1217736E+00
          2   -1    0    0  502    0  0.00000000000E+00  0.00000000000E+00  0.23737278493E+03  0.23737278493E+03  0.00000000000E+00 0. -1.
          1   -1    0    0  501    0 -0.00000000000E+00 -0.00000000000E+00 -0.16146673254E+04  0.16146673254E+04  0.00000000000E+00 0. -1.
         25    2    1    2    0    0  0.93576268821E+02 -0.19428932642E+03 -0.15375166584E+03  0.29286454301E+03  0.12500082142E+03 0.  0.
          2    1    1    2  501    0 -0.76173507993E+02 -0.34943964245E+02 -0.13106549301E+04  0.13133315765E+04  0.00000000000E+00 0. -1.
          1    1    1    2  502    0 -0.17402760827E+02  0.22923329067E+03  0.87112055466E+02  0.24584399086E+03  0.00000000000E+00 0. -1.
         22    1    3    3    0    0  0.80196659504E+02 -0.38012594671E+02 -0.80235594776E+02  0.11964201694E+03  0.00000000000E+00 0.  1.
         22    1    3    3    0    0  0.13379609316E+02 -0.15627673175E+03 -0.73516071067E+02  0.17322252607E+03  0.00000000000E+00 0.  1.
</event>
<event>
 7    1  0.6219721E-006  0.3550081E+02  0.7818608E-02  0.1566440E+00
          2   -1    0    0  502    0  0.00000000000E+00  0.00000000000E+00  0.23309797366E+02  0.23309797366E+02  0.00000000000E+00 0. -1.
          1   -1    0    0  501    0 -0.00000000000E+00 -0.00000000000E+00 -0.29727870998E+04  0.29727870998E+04  0.00000000000E+00 0. -1.
         25    2    1    2    0    0  0.46775532925E+02 -0.19360401021E+02 -0.21662744037E+04  0.21704683242E+04  0.12500071546E+03 0.  0.
          2    1    1    2  501    0 -0.12426088803E+02  0.28187999625E+02 -0.78907845321E+03  0.78967954027E+03  0.00000000000E+00 0. -1.
          1    1    1    2  502    0 -0.34349444122E+02 -0.88275986045E+01  0.58755544584E+01  0.35949032654E+02  0.00000000000E+00 0. -1.
         22    1    3    3    0    0  0.68985309189E+02  0.77139443170E+01 -0.63310737400E+03  0.63690142474E+03  0.00000000000E+00 0.  1.
         22    1    3    3    0    0 -0.22209776264E+02 -0.27074345338E+02 -0.15331670297E+04  0.15335668995E+04  0.00000000000E+00 0.  1.
</event>
<event>
 7    1  0.6219721E-006  0.1092609E+03  0.7818608E-02  0.1327930E+00
          2   -1    0    0  502    0  0.00000000000E+00  0.00000000000E+00  0.15255478220E+04  0.15255478220E+04  0.00000000000E+00 0. -1.
          1   -1    0    0  501    0 -0.00000000000E+00 -0.00000000000E+00 -0.42223186299E+02  0.42223186299E+02  0.00000000000E+00 0. -1.
         25    2    1    2    0    0  0.28310064784E+02  0.53946970199E+02  0.32959505555E+03  0.35772973101E+03  0.12500369772E+03 0.  0.
          2    1    1    2  501    0  0.25450424950E+02  0.53403019542E+02  0.99627699468E+01  0.59990527680E+02  0.00000000000E+00 0. -1.
          1    1    1    2  502    0 -0.53760489734E+02 -0.10734998974E+03  0.11437668102E+04  0.11500507496E+04  0.00000000000E+00 0. -1.
         22    1    3    3    0    0  0.23366787910E+02  0.12148371019E+02  0.90069805668E+00  0.26351488623E+02  0.00000000000E+00 0.  1.
         22    1    3    3    0    0  0.49432768741E+01  0.41798599179E+02  0.32869435749E+03  0.33137824239E+03  0.00000000000E+00 0.  1.
</event>
<event>
 7    1  0.6219721E-006  0.8218117E+02  0.7818608E-02  0.1484984E+00
          2   -1    0    0  502    0  0.00000000000E+00  0.00000000000E+00  0.13466720767E+04  0.13466720767E+04  0.00000000000E+00 0. -1.
          1   -1    0    0  501    0 -0.00000000000E+00 -0.00000000000E+00 -0.69604653645E+03  0.69604653645E+03  0.00000000000E+00 0. -1.
         25    2    1    2    0    0  0.81715578606E+02 -0.61573437517E+02  0.93536193085E+03  0.94920752003E+03  0.12499700157E+03 0.  0.
          2    1    1    2  501    0 -0.70914826618E+02  0.41431064769E+02 -0.68635057071E+03  0.69124709885E+03  0.00000000000E+00 0. -1.
          1    1    1    2  502    0 -0.10800751989E+02  0.20142372748E+02  0.40161418008E+03  0.40226399425E+03  0.00000000000E+00 0. -1.
         22    1    3    3    0    0  0.10023911188E+02 -0.78817469860E+02  0.33290140807E+03  0.34225139860E+03  0.00000000000E+00 0.  1.
         22    1    3    3    0    0  0.71691667419E+02  0.17244032343E+02  0.60246052278E+03  0.60695612142E+03  0.00000000000E+00 0.  1.
</event>
<event>
 7    1  0.6219721E-006  0.8685091E+02  0.7818608E-02  0.1434254E+00
          2   -1    0    0  502    0  0.00000000000E+00  0.00000000000E+00  0.12654029048E+04  0.12654029048E+04  0.00000000000E+00 0. -1.
          1   -1    0    0  501    0 -0.00000000000E+00 -0.00000000000E+00 -0.69883059346E+02  0.69883059346E+02  0.00000000000E+00 0. -1.
         25    2    1    2    0    0  0.54615695148E+02  0.38572047314E+02  0.50753675623E+03  0.52696338713E+03  0.12500470176E+03 0.  0.
          2    1    1    2  501    0 -0.54009871774E+02 -0.69838464617E+02 -0.27257765517E+02  0.92398393764E+02  0.00000000000E+00 0. -1.
          1    1    1    2  502    0 -0.60582337324E+00  0.31266417303E+02  0.71524085477E+03  0.71592418328E+03  0.00000000000E+00 0. -1.
         22    1    3    3    0    0 -0.42064513970E+00  0.75282968741E+02  0.25234032541E+03  0.26333124036E+03  0.00000000000E+00 0.  1.
         22    1    3    3    0    0  0.55036340287E+02 -0.36710921427E+02  0.25519643082E+03  0.26363214676E+03  0.00000000000E+00 0.  1.
</event>
<event>
 7    1  0.6219721E-006  0.6236465E+02  0.7818608E-02  0.1456969E+00
          2   -1    0    0  502    0  0.00000000000E+00  0.00000000000E+00  0.28381791266E+03  0.28381791266E+03  0.00000000000E+00 0. -1.
          1   -1    0    0  501    0 -0.00000000000E+00 -0.00000000000E+00 -0.68198935015E+03  0.68198935015E+03  0.00000000000E+00 0. -1.
         25    2    1    2    0    0 -0.42281783011E+02 -0.52397714082E+02  0.14691600437E+02  0.14273822087E+03  0.12500034783E+03 0.  0.
          2    1    1    2  501    0 -0.17221237567E+02  0.32523053600E+02 -0.61260378163E+03  0.61370816623E+03  0.00000000000E+00 0. -1.
          1    1    1    2  502    0  0.59503020579E+02  0.19874660481E+02  0.19974074369E+03  0.20936087571E+03  0.00000000000E+00 0. -1.
         22    1    3    3    0    0  0.28792517215E+02 -0.62037309922E+02  0.18692614877E+02  0.70901697588E+02  0.00000000000E+00 0.  1.
         22    1    3    3    0    0 -0.71074300226E+02  0.96395958402E+01 -0.40010144397E+01  0.71836523281E+02  0.00000000000E+00 0.  1.
</event>
<event>
 7    1  0.6219721E-006  0.1656908E+03  0.7818608E-02  0.1309770E+00
          2   -1    0    0  502    0  0.00000000000E+00  0.00000000000E+00  0.36789965292E+03  0.36789965292E+03  0.00000000000E+00 0. -1.
          1   -1    0    0  501    0 -0.00000000000E+00 -0.00000000000E+00 -0.73989953649E+03  0.73989953649E+03  0.00000000000E+00 0. -1.
         25    2    1    2    0    0 -0.77552832657E+02 -0.13814078575E+03  0.11905388438E+02  0.20214307644E+03  0.12499106584E+03 0.  0.
          2    1    1    2  501    0  0.37664209102E+02 -0.26224949170E+02 -0.61642305691E+03  0.61812921440E+03  0.00000000000E+00 0. -1.
          1    1    1    2  502    0  0.39888623555E+02  0.16436573492E+03  0.23251778490E+03  0.28752689856E+03  0.00000000000E+00 0. -1.
         22    1    3    3    0    0 -0.11612275067E+02 -0.58218410785E+01  0.48195062526E+02  0.49914955852E+02  0.00000000000E+00 0.  1.
         22    1    3    3    0    0 -0.65940557590E+02 -0.13231894467E+03 -0.36289674088E+02  0.15222812059E+03  0.00000000000E+00 0.  1.
</event>
<event>
 7    1  0.6219721E-006  0.5763593E+02  0.7818608E-02  0.1486333E+00
          2   -1    0    0  502    0  0.00000000000E+00  0.00000000000E+00  0.33908217905E+04  0.33908217905E+04  0.00000000000E+00 0. -1.
          1   -1    0    0  501    0 -0.00000000000E+00 -0.00000000000E+00 -0.14051101693E+03  0.14051101693E+03  0.00000000000E+00 0. -1.
         25    2    1    2    0    0 -0.59151218056E+02 -0.63069198559E+02  0.14990319428E+04  0.15067177173E+04  0.12499969527E+03 0.  0.
          2    1    1    2  501    0  0.25156049535E+02  0.20231337734E+02 -0.13435982788E+03  0.13818356343E+03  0.00000000000E+00 0. -1.
          1    1    1    2  502    0  0.33995168521E+02  0.42837860825E+02  0.18856386586E+04  0.18864315266E+04  0.00000000000E+00 0. -1.
         22    1    3    3    0    0 -0.27843396997E+02 -0.25353777626E+02  0.13347021932E+04  0.13352333179E+04  0.00000000000E+00 0.  1.
         22    1    3    3    0    0 -0.31307821059E+02 -0.37715420934E+02  0.16432974957E+03  0.17148439937E+03  0.00000000000E+00 0.  1.
</event>
<event>
 7    1  0.6219721E-006  0.4906371E+02  0.7818608E-02  0.1457011E+00
          2   -1    0    0  502    0  0.00000000000E+00  0.00000000000E+00  0.32522822464E+04  0.32522822464E+04  0.00000000000E+00 0. -1.
          1   -1    0    0  501    0 -0.00000000000E+00 -0.00000000000E+00 -0.15233027670E+04  0.15233027670E+04  0.00000000000E+00 0. -1.
         25    2    1    2    0    0  0.40356207322E+01  0.15360641258E+01 -0.51348758868E+02  0.13520452708E+03  0.12499969351E+03 0.  0.
          2    1    1    2  501    0  0.86514229507E+01  0.45956134338E+02 -0.14294555704E+04  0.14302202772E+04  0.00000000000E+00 0. -1.
          1    1    1    2  502    0 -0.12687043683E+02 -0.47492198464E+02  0.32097838087E+04  0.32101602092E+04  0.00000000000E+00 0. -1.
         22    1    3    3    0    0 -0.71705036210E+01  0.33541881141E+02  0.30946100284E+02  0.46196699400E+02  0.00000000000E+00 0. -1.
         22    1    3    3    0    0  0.11206124353E+02 -0.32005817015E+02 -0.82294859152E+02  0.89007827682E+02  0.00000000000E+00 0. -1.
</event>
<event>
 7    1  0.6219721E-006  0.1255758E+03  0.7818608E-02  0.1278573E+00
          2   -1    0    0  502    0  0.00000000000E+00  0.00000000000E+00  0.22592691590E+04  0.22592691590E+04  0.00000000000E+00 0. -1.
          1   -1    0    0  501    0 -0.00000000000E+00 -0.00000000000E+00 -0.13956122692E+03  0.13956122692E+03  0.00000000000E+00 0. -1.
         25    2    1    2    0    0  0.70478272837E+02  0.17682931381E+02  0.24599109076E+03  0.28533512468E+03  0.12499857454E+03 0.  0.
          2    1    1    2  501    0 -0.12891557223E+03  0.38335817917E+02 -0.81066125113E+02  0.15703686299E+03  0.00000000000E+00 0. -1.
          1    1    1    2  502    0  0.58437299392E+02 -0.56018749297E+02  0.19547829664E+04  0.19564583982E+04  0.00000000000E+00 0. -1.
         22    1    3    3    0    0  0.50034624015E+02 -0.49925231082E+01  0.15195547399E+02  0.52528978174E+02  0.00000000000E+00 0.  1.
         22    1    3    3    0    0  0.20443648822E+02  0.22675454489E+02  0.23079554337E+03  0.23280614651E+03  0.00000000000E+00 0.  1.
</event>
<event>
 7    1  0.6219721E-006  0.4387099E+02  0.7818608E-02  0.1592956E+00
          2   -1    0    0  502    0  0.00000000000E+00  0.00000000000E+00  0.12290967640E+03  0.12290967640E+03  0.00000000000E+00 0. -1.
          1   -1    0    0  501    0 -0.00000000000E+00 -0.00000000000E+00 -0.27800259038E+04  0.27800259038E+04  0.00000000000E+00 0. -1.
         25    2    1    2    0    0 -0.76177380228E+01 -0.56342017394E+02 -0.57989745284E+03  0.59593514948E+03  0.12500077486E+03 0.  0.
          2    1    1    2  501    0 -0.85980168414E+01  0.42745254517E+02 -0.21909164005E+04  0.21913502132E+04  0.00000000000E+00 0. -1.
          1    1    1    2  502    0  0.16215754864E+02  0.13596762876E+02  0.11369762597E+03  0.11565021754E+03  0.00000000000E+00 0. -1.
         22    1    3    3    0    0 -0.62535034294E+02 -0.35798383934E+02 -0.22587539690E+03  0.23709038305E+03  0.00000000000E+00 0.  1.
         22    1    3    3    0    0  0.54917296271E+02 -0.20543633459E+02 -0.35402205594E+03  0.35884476643E+03  0.00000000000E+00 0.  1.
</event>
<event>
 7    1  0.6219721E-006  0.5754335E+02  0.7818608E-02  0.1445324E+00
          2   -1    0    0  502    0  0.00000000000E+00  0.00000000000E+00  0.76169020461E+03  0.76169020461E+03  0.00000000000E+00 0. -1.
          1   -1    0    0  501    0 -0.00000000000E+00 -0.00000000000E+00 -0.23094355880E+03  0.23094355880E+03  0.00000000000E+00 0. -1.
         25    2    1    2    0    0 -0.75594326057E+02  0.38094096768E+02  0.14846623285E+02  0.15169474269E+03  0.12500084158E+03 0.  0.
          2    1    1    2  501    0  0.42579696134E+02  0.86589463319E+01 -0.15838101388E+03  0.16423322877E+03  0.00000000000E+00 0. -1.
          1    1    1    2  502    0  0.33014629923E+02 -0.46753043099E+02  0.67428103640E+03  0.67670579196E+03  0.00000000000E+00 0. -1.
         22    1    3    3    0    0  0.11474673057E+02 -0.16729896733E+02  0.40813214694E+02  0.45577144054E+02  0.00000000000E+00 0. -1.
         22    1    3    3    0    0 -0.87068999114E+02  0.54823993501E+02 -0.25966591409E+02  0.10611759863E+03  0.00000000000E+00 0. -1.
</event>
<event>
 7    1  0.6219721E-006  0.3869198E+03  0.7818608E-02  0.1142080E+00
          2   -1    0    0  502    0  0.00000000000E+00  0.00000000000E+00  0.35260073317E+03  0.35260073317E+03  0.00000000000E+00 0. -1.
          1   -1    0    0  501    0 -0.00000000000E+00 -0.00000000000E+00 -0.16679111724E+04  0.16679111724E+04  0.00000000000E+00 0. -1.
         25    2    1    2    0    0  0.38759901269E+03  0.12198073513E+03 -0.25578582293E+03  0.49614825357E+03  0.12499763169E+03 0.  0.
          2    1    1    2  501    0 -0.32079915491E+03 -0.21346365709E+03 -0.12470809830E+04  0.13052546912E+04  0.00000000000E+00 0. -1.
          1    1    1    2  502    0 -0.66799857781E+02  0.91482921965E+02  0.18755636671E+03  0.21910896080E+03  0.00000000000E+00 0. -1.
         22    1    3    3    0    0  0.25663245359E+03  0.13966934079E+03 -0.16186583869E+03  0.33401839878E+03  0.00000000000E+00 0. -1.
         22    1    3    3    0    0  0.13096655910E+03 -0.17688605664E+02 -0.93919984237E+02  0.16212985479E+03  0.00000000000E+00 0. -1.
</event>
<event>
 7    1  0.1024656E-005  0.3832936E+02  0.7818608E-02  0.1614515E+00
          2   -1    0    0  502    0  0.00000000000E+00  0.00000000000E+00  0.15364026996E+04  0.15364026996E+04  0.00000000000E+00 0. -1.
          1   -1    0    0  501    0 -0.00000000000E+00 -0.00000000000E+00 -0.15181520533E+04  0.15181520533E+04  0.00000000000E+00 0. -1.
         25    2    1    2    0    0  0.20135521129E+02  0.12797320316E+02 -0.50989085655E+03  0.52553077509E+03  0.12499879741E+03 0.  0.
          2    1    1    2  501    0  0.18164495604E+02 -0.11101122811E+02 -0.10000875655E+04  0.10003141120E+04  0.00000000000E+00 0. -1.
          1    1    1    2  502    0 -0.38300016733E+02 -0.16961975058E+01  0.15282290684E+04  0.15287098658E+04  0.00000000000E+00 0. -1.
         22    1    3    3    0    0  0.46344149139E+02  0.58442673351E+02 -0.30481729430E+03  0.31381030756E+03  0.00000000000E+00 0.  1.
         22    1    3    3    0    0 -0.26208628010E+02 -0.45645353035E+02 -0.20507356226E+03  0.21172046753E+03  0.00000000000E+00 0.  1.
</event>
<event>
 7    1  0.6219721E-006  0.1656453E+03  0.7818608E-02  0.1250490E+00
          2   -1    0    0  502    0  0.00000000000E+00  0.00000000000E+00  0.36778812343E+03  0.36778812343E+03  0.00000000000E+00 0. -1.
          1   -1    0    0  501    0 -0.00000000000E+00 -0.00000000000E+00 -0.17592530015E+04  0.17592530015E+04  0.00000000000E+00 0. -1.
         25    2    1    2    0    0 -0.28466335353E+02  0.89207097011E+02 -0.17060573421E+03  0.23130259153E+03  0.12500533548E+03 0.  0.
          2    1    1    2  501    0 -0.11033600707E+02  0.79955038359E+02 -0.15348113212E+04  0.15369321196E+04  0.00000000000E+00 0. -1.
          1    1    1    2  502    0  0.39499936060E+02 -0.16916213537E+03  0.31395217731E+03  0.35880641386E+03  0.00000000000E+00 0. -1.
         22    1    3    3    0    0  0.19244549804E+02  0.85856240772E+02 -0.15956575431E+03  0.18221656545E+03  0.00000000000E+00 0.  1.
         22    1    3    3    0    0 -0.47710885157E+02  0.33508562387E+01 -0.11039979898E+02  0.49086026078E+02  0.00000000000E+00 0.  1.
</event>
<event>
 7    1  0.6219721E-006  0.1184855E+03  0.7818608E-02  0.1289310E+00
          2   -1    0    0  502    0  0.00000000000E+00  0.00000000000E+00  0.54642990627E+03  0.54642990627E+03  0.00000000000E+00 0. -1.
          1   -1    0    0  501    0 -0.00000000000E+00 -0.00000000000E+00 -0.21851361382E+04  0.21851361382E+04  0.00000000000E+00 0. -1.
         25    2    1    2    0    0  0.38493947119E+02  0.16881606813E+03 -0.16222337807E+03  0.26817049974E+03  0.12497337202E+03 0.  0.
          2    1    1    2  501    0  0.27857725142E+02 -0.72332762501E+02 -0.19622165379E+04  0.19637468836E+04  0.00000000000E+00 0. -1.
          1    1    1    2  502    0 -0.66351672261E+02 -0.96483305631E+02  0.48573368406E+03  0.49964866107E+03  0.00000000000E+00 0. -1.
         22    1    3    3    0    0  0.20883805388E+02  0.15256574473E+03 -0.18106271620E+03  0.23768918148E+03  0.00000000000E+00 0. -1.
         22    1    3    3    0    0  0.17610141731E+02  0.16250323398E+02  0.18839338125E+02  0.30481318267E+02  0.00000000000E+00 0. -1.
</event>
<event>
 7    1  0.6219721E-006  0.9765137E+02  0.7818608E-02  0.1372228E+00
          2   -1    0    0  502    0  0.00000000000E+00  0.00000000000E+00  0.34532729706E+02  0.34532729706E+02  0.00000000000E+00 0. -1.
          1   -1    0    0  501    0 -0.00000000000E+00 -0.00000000000E+00 -0.14900691405E+04  0.14900691405E+04  0.00000000000E+00 0. -1.
         25    2    1    2    0    0  0.49028343080E+02 -0.12193790614E+03 -0.53852244997E+03  0.56824706963E+03  0.12500268655E+03 0.  0.
          2    1    1    2  501    0 -0.31941521620E+02  0.32201831073E+02 -0.82654670945E+03  0.82779024011E+03  0.00000000000E+00 0. -1.
          1    1    1    2  502    0 -0.17086821460E+02  0.89736075070E+02 -0.90467251398E+02  0.12856456048E+03  0.00000000000E+00 0. -1.
         22    1    3    3    0    0 -0.56389285587E+01  0.21412602373E+02 -0.12987274100E+03  0.13174682505E+03  0.00000000000E+00 0. -1.
         22    1    3    3    0    0  0.54667271639E+02 -0.14335050852E+03 -0.40864970897E+03  0.43650024459E+03  0.00000000000E+00 0. -1.
</event>
<event>
 7    1  0.6219721E-006  0.5524115E+03  0.7818608E-02  0.1190846E+00
          2   -1    0    0  502    0  0.00000000000E+00  0.00000000000E+00  0.11599334267E+04  0.11599334267E+04  0.00000000000E+00 0. -1.
          1   -1    0    0  501    0 -0.00000000000E+00 -0.00000000000E+00 -0.32304917530E+03  0.32304917530E+03  0.00000000000E+00 0. -1.
         25    2    1    2    0    0 -0.57279223450E+03  0.58761112121E+02  0.47485111282E+03  0.75673820661E+03  0.12500128718E+03 0.  0.
          2    1    1    2  501    0  0.45014322636E+02 -0.46552000897E+01 -0.40144248340E+02  0.60493973295E+02  0.00000000000E+00 0. -1.
          1    1    1    2  502    0  0.52777791187E+03 -0.54105912032E+02  0.40217738692E+03  0.66575042210E+03  0.00000000000E+00 0. -1.
         22    1    3    3    0    0 -0.16717474179E+03  0.73248339867E+02  0.16597605981E+03  0.24669974871E+03  0.00000000000E+00 0.  1.
         22    1    3    3    0    0 -0.40561749272E+03 -0.14487227746E+02  0.30887505301E+03  0.51003845790E+03  0.00000000000E+00 0.  1.
</event>
<event>
 7    1  0.6219721E-006  0.1075230E+03  0.7818608E-02  0.1418546E+00
          2   -1    0    0  502    0  0.00000000000E+00  0.00000000000E+00  0.15028645210E+04  0.15028645210E+04  0.00000000000E+00 0. -1.
          1   -1    0    0  501    0 -0.00000000000E+00 -0.00000000000E+00 -0.10036030684E+03  0.10036030684E+03  0.00000000000E+00 0. -1.
         25    2    1    2    0    0 -0.20814495272E+02  0.80199966017E+02  0.10288132078E+03  0.18185680835E+03  0.12498821871E+03 0.  0.
          2    1    1    2  501    0 -0.19043888854E+02  0.21165339369E+02 -0.55233757460E+02  0.62140238626E+02  0.00000000000E+00 0. -1.
          1    1    1    2  502    0  0.39858384126E+02 -0.10136530539E+03  0.13548566509E+04  0.13592277809E+04  0.00000000000E+00 0. -1.
         22    1    3    3    0    0 -0.69260045272E+02  0.71686879457E+02  0.78942375578E+02  0.12715290488E+03  0.00000000000E+00 0.  1.
         22    1    3    3    0    0  0.48445550000E+02  0.85130865604E+01  0.23938945201E+02  0.54703903471E+02  0.00000000000E+00 0.  1.
</event>
<event>
 7    1  0.6219721E-006  0.5179489E+02  0.7818608E-02  0.1440765E+00
          2   -1    0    0  502    0  0.00000000000E+00  0.00000000000E+00  0.24955459959E+04  0.24955459959E+04  0.00000000000E+00 0. -1.
          1   -1    0    0  501    0 -0.00000000000E+00 -0.00000000000E+00 -0.20192557518E+04  0.20192557518E+04  0.00000000000E+00 0. -1.
         25    2    1    2    0    0 -0.26063146571E+02 -0.42098204731E+02  0.68570385016E+03  0.69876187448E+03  0.12500736242E+03 0.  0.
          2    1    1    2  501    0  0.51802866940E+02 -0.69653293737E+00 -0.20120474953E+04  0.20127143725E+04  0.00000000000E+00 0. -1.
          1    1    1    2  502    0 -0.25739720368E+02  0.42794737668E+02  0.18026338893E+04  0.18033255007E+04  0.00000000000E+00 0. -1.
         22    1    3    3    0    0 -0.28132791632E+02 -0.59672649518E+02  0.67471291115E+03  0.67793052118E+03  0.00000000000E+00 0.  1.
         22    1    3    3    0    0  0.20696450610E+01  0.17574444788E+02  0.10990939001E+02  0.20831353302E+02  0.00000000000E+00 0.  1.
</event>
<event>
 7    1  0.1177744E-005  0.1063278E+03  0.7818608E-02  0.1440237E+00
          2   -1    0    0  502    0  0.00000000000E+00  0.00000000000E+00  0.19641205323E+04  0.19641205323E+04  0.00000000000E+00 0. -1.
          1   -1    0    0  501    0 -0.00000000000E+00 -0.00000000000E+00 -0.10152295544E+04  0.10152295544E+04  0.00000000000E+00 0. -1.
         25    2    1    2    0    0 -0.83735972769E+02 -0.24353780118E+02 -0.50580458461E+03  0.52826854573E+03  0.12499823540E+03 0.  0.
          2    1    1    2  501    0 -0.21806652894E+02  0.10997317445E+02 -0.49644374259E+03  0.49704412345E+03  0.00000000000E+00 0. -1.
          1    1    1    2  502    0  0.10554262566E+03  0.13356462672E+02  0.19511393051E+04  0.19540374175E+04  0.00000000000E+00 0. -1.
         22    1    3    3    0    0  0.67447669379E+00 -0.16933261325E+02 -0.35408170536E+03  0.35448701574E+03  0.00000000000E+00 0. -1.
         22    1    3    3    0    0 -0.84410449463E+02 -0.74205187930E+01 -0.15172287925E+03  0.17378152999E+03  0.00000000000E+00 0. -1.
</event>
<event>
 7    1  0.6219721E-006  0.1772305E+03  0.7818608E-02  0.1254484E+00
          2   -1    0    0  502    0  0.00000000000E+00  0.00000000000E+00  0.52349233213E+03  0.52349233213E+03  0.00000000000E+00 0. -1.
          1   -1    0    0  501    0 -0.00000000000E+00 -0.00000000000E+00 -0.14323298192E+04  0.14323298192E+04  0.00000000000E+00 0. -1.
         25    2    1    2    0    0 -0.90185122788E+02 -0.58519459697E+02 -0.43689568942E+03  0.46696846278E+03  0.12499527295E+03 0.  0.
          2    1    1    2  501    0 -0.65122566688E+02 -0.31859161110E+02 -0.96311681322E+03  0.96584157642E+03  0.00000000000E+00 0. -1.
          1    1    1    2  502    0  0.15530768948E+03  0.90378620807E+02  0.49117501557E+03  0.52301211212E+03  0.00000000000E+00 0. -1.
         22    1    3    3    0    0  0.36590386765E+01 -0.31146128018E+02 -0.16656441242E+02  0.35509250758E+02  0.00000000000E+00 0. -1.
         22    1    3    3    0    0 -0.93844161465E+02 -0.27373331679E+02 -0.42023924818E+03  0.43145921202E+03  0.00000000000E+00 0. -1.
</event>
<event>
 7    1  0.6219721E-006  0.5920069E+02  0.7818608E-02  0.1422407E+00
          2   -1    0    0  502    0  0.00000000000E+00  0.00000000000E+00  0.23095393555E+03  0.23095393555E+03  0.00000000000E+00 0. -1.
          1   -1    0    0  501    0 -0.00000000000E+00 -0.00000000000E+00 -0.41828939247E+03  0.41828939247E+03  0.00000000000E+00 0. -1.
         25    2    1    2    0    0 -0.34292612934E+02  0.53535293776E+02  0.14894190373E+03  0.20457035469E+03  0.12499331322E+03 0.  0.
          2    1    1    2  501    0  0.49336521456E+02  0.92706025317E+01 -0.36891303182E+03  0.37231285429E+03  0.00000000000E+00 0. -1.
          1    1    1    2  502    0 -0.15043908523E+02 -0.62805896308E+02  0.32635671173E+02  0.72360119041E+02  0.00000000000E+00 0. -1.
         22    1    3    3    0    0  0.45363177368E+02  0.21897390768E+02  0.80170717319E+02  0.94681875239E+02  0.00000000000E+00 0.  1.
         22    1    3    3    0    0 -0.79655790301E+02  0.31637903008E+02  0.68771186412E+02  0.10988847945E+03  0.00000000000E+00 0.  1.
</event>
<event>
 7    1  0.6219721E-006  0.7581660E+02  0.7818608E-02  0.1420453E+00
          2   -1    0    0  502    0  0.00000000000E+00  0.00000000000E+00  0.54903089934E+02  0.54903089934E+02  0.00000000000E+00 0. -1.
          1   -1    0    0  501    0 -0.00000000000E+00 -0.00000000000E+00 -0.75424275133E+03  0.75424275133E+03  0.00000000000E+00 0. -1.
         25    2    1    2    0    0  0.80934689301E+02  0.29579938551E+02 -0.10988510288E+03  0.18741345563E+03  0.12499468316E+03 0.  0.
          2    1    1    2  501    0 -0.31487479430E+02  0.24327321975E+02 -0.51782544120E+03  0.51935196881E+03  0.00000000000E+00 0. -1.
          1    1    1    2  502    0 -0.49447209871E+02 -0.53907260526E+02 -0.71629117318E+02  0.10238041682E+03  0.00000000000E+00 0. -1.
         22    1    3    3    0    0  0.28902412927E+02  0.10486967327E+02  0.26250399127E+02  0.40427829661E+02  0.00000000000E+00 0.  1.
         22    1    3    3    0    0  0.52032276374E+02  0.19092971224E+02 -0.13613550200E+03  0.14698562597E+03  0.00000000000E+00 0.  1.
</event>
<event>
 7    1  0.6219721E-006  0.1268724E+03  0.7818608E-02  0.1345382E+00
          2   -1    0    0  502    0  0.00000000000E+00  0.00000000000E+00  0.14447255313E+04  0.14447255313E+04  0.00000000000E+00 0. -1.
          1   -1    0    0  501    0 -0.00000000000E+00 -0.00000000000E+00 -0.16775072737E+04  0.16775072737E+04  0.00000000000E+00 0. -1.
         25    2    1    2    0    0  0.41304281129E+02 -0.89076712931E+02  0.34235575863E+03  0.37745711003E+03  0.12500280005E+03 0.  0.
          2    1    1    2  501    0 -0.84697154428E+02  0.94760317809E+02 -0.16570808198E+04  0.16619476433E+04  0.00000000000E+00 0. -1.
          1    1    1    2  502    0  0.43392873299E+02 -0.56836048780E+01  0.10819433187E+04  0.10828280518E+04  0.00000000000E+00 0. -1.
         22    1    3    3    0    0 -0.58925672543E+01  0.23943608122E+02  0.12994985949E+03  0.13226860815E+03  0.00000000000E+00 0.  1.
         22    1    3    3    0    0  0.47196848383E+02 -0.11302032105E+03  0.21240589913E+03  0.24518850188E+03  0.00000000000E+00 0.  1.
</event>
<event>
 7    1  0.6219721E-006  0.1485066E+03  0.7818608E-02  0.1343187E+00
          2   -1    0    0  502    0  0.00000000000E+00  0.00000000000E+00  0.89448190426E+03  0.89448190426E+03  0.00000000000E+00 0. -1.
          1   -1    0    0  501    0 -0.00000000000E+00 -0.00000000000E+00 -0.13864833348E+04  0.13864833348E+04  0.00000000000E+00 0. -1.
         25    2    1    2    0    0  0.53029128290E+02  0.11121161326E+03 -0.15424752532E+03  0.23366151401E+03  0.12500117075E+03 0.  0.
          2    1    1    2  501    0 -0.39131521462E+02 -0.14668763249E+03 -0.11872682251E+04  0.11969354101E+04  0.00000000000E+00 0. -1.
          1    1    1    2  502    0 -0.13897606829E+02  0.35476019225E+02  0.84951431990E+03  0.85036831498E+03  0.00000000000E+00 0. -1.
         22    1    3    3    0    0  0.89910113241E+02  0.84396381859E+02 -0.81531162920E+02  0.14783067429E+03  0.00000000000E+00 0.  1.
         22    1    3    3    0    0 -0.36880984951E+02  0.26815231406E+02 -0.72716362400E+02  0.85830839720E+02  0.00000000000E+00 0.  1.
</event>
<event>
 7    1  0.6219721E-006  0.6697993E+02  0.7818608E-02  0.1409055E+00
          2   -1    0    0  502    0  0.00000000000E+00  0.00000000000E+00  0.39834719215E+03  0.39834719215E+03  0.00000000000E+00 0. -1.
          1   -1    0    0  501    0 -0.00000000000E+00 -0.00000000000E+00 -0.56986493995E+03  0.56986493995E+03  0.00000000000E+00 0. -1.
         25    2    1    2    0    0 -0.10343738860E+03 -0.52172408871E+02 -0.42792998765E+03  0.46062011923E+03  0.12500226518E+03 0.  0.
          2    1    1    2  501    0  0.44168253961E+02  0.21673532237E+02 -0.11770997612E+03  0.12757827063E+03  0.00000000000E+00 0. -1.
          1    1    1    2  502    0  0.59269134643E+02  0.30498876633E+02  0.37412221598E+03  0.38001374224E+03  0.00000000000E+00 0. -1.
         22    1    3    3    0    0 -0.24580186752E+02 -0.46876904119E+02 -0.33261365320E+03  0.33679885988E+03  0.00000000000E+00 0.  1.
         22    1    3    3    0    0 -0.78857201851E+02 -0.52955047519E+01 -0.95316334448E+02  0.12382125935E+03  0.00000000000E+00 0.  1.
</event>
<event>
 7    1  0.6219721E-006  0.4570243E+02  0.7818608E-02  0.1571448E+00
          2   -1    0    0  502    0  0.00000000000E+00  0.00000000000E+00  0.19051113240E+02  0.19051113240E+02  0.00000000000E+00 0. -1.
          1   -1    0    0  501    0 -0.00000000000E+00 -0.00000000000E+00 -0.39120719582E+04  0.39120719582E+04  0.00000000000E+00 0. -1.
         25    2    1    2    0    0 -0.25842916599E+02 -0.28097634196E+02 -0.28442137123E+04  0.28472152196E+04  0.12500212724E+03 0.  0.
          2    1    1    2  501    0  0.46601613687E+02  0.17760643735E+02 -0.10578442497E+04  0.10590191724E+04  0.00000000000E+00 0. -1.
          1    1    1    2  502    0 -0.20758697088E+02  0.10336990460E+02  0.90371171329E+01  0.24888679408E+02  0.00000000000E+00 0. -1.
         22    1    3    3    0    0 -0.55286394578E+02  0.70756279254E+01 -0.23984683978E+04  0.23991159425E+04  0.00000000000E+00 0. -1.
         22    1    3    3    0    0  0.29443477979E+02 -0.35173262121E+02 -0.44574531447E+03  0.44809927709E+03  0.00000000000E+00 0. -1.
</event>
<event>
 7    1  0.6219721E-006  0.1564173E+03  0.7818608E-02  0.1195492E+00
          2   -1    0    0  502    0  0.00000000000E+00  0.00000000000E+00  0.22919333203E+04  0.22919333203E+04  0.00000000000E+00 0. -1.
          1   -1    0    0  501    0 -0.00000000000E+00 -0.00000000000E+00 -0.84429591602E+03  0.84429591602E+03  0.00000000000E+00 0. -1.
         25    2    1    2    0    0 -0.14121469578E+03 -0.12012989130E+03 -0.36022513683E+03  0.42398138484E+03  0.12500113760E+03 0.  0.
          2    1    1    2  501    0 -0.12346880514E+02  0.15136732255E+03 -0.43663174758E+03  0.46228973035E+03  0.00000000000E+00 0. -1.
          1    1    1    2  502    0  0.15356157630E+03 -0.31237431253E+02  0.22444942887E+04  0.22499581211E+04  0.00000000000E+00 0. -1.
         22    1    3    3    0    0 -0.12630217552E+03 -0.79560553935E+02 -0.34861055492E+03  0.37922478860E+03  0.00000000000E+00 0.  1.
         22    1    3    3    0    0 -0.14912520265E+02 -0.40569337363E+02 -0.11614581908E+02  0.44756596247E+02  0.00000000000E+00 0.  1.
</event>
<event>
 7    1  0.6219721E-006  0.1308191E+03  0.7818608E-02  0.1226536E+00
          2   -1    0    0  502    0  0.00000000000E+00  0.00000000000E+00  0.38543607095E+04  0.38543607095E+04  0.00000000000E+00 0. -1.
          1   -1    0    0  501    0 -0.00000000000E+00 -0.00000000000E+00 -0.22902046426E+04  0.22902046426E+04  0.00000000000E+00 0. -1.
         25    2    1    2    0    0  0.13873208386E+03  0.28116698603E+02  0.50983715568E+02  0.19560032783E+03  0.12499203639E+03 0.  0.
          2    1    1    2  501    0 -0.91669097743E+02  0.93943589573E+02 -0.22148060354E+04  0.22186920462E+04  0.00000000000E+00 0. -1.
          1    1    1    2  502    0 -0.47062986122E+02 -0.12206028818E+03  0.37279783867E+04  0.37302729780E+04  0.00000000000E+00 0. -1.
         22    1    3    3    0    0 -0.23139917187E+01  0.10168340750E+02  0.52382024948E+02  0.53409982672E+02  0.00000000000E+00 0.  1.
         22    1    3    3    0    0  0.14104607558E+03  0.17948357853E+02 -0.13983093802E+01  0.14219034516E+03  0.00000000000E+00 0.  1.
</event>
<event>
 7    1  0.6219721E-006  0.1377133E+03  0.7818608E-02  0.1229440E+00
          2   -1    0    0  502    0  0.00000000000E+00  0.00000000000E+00  0.76134943670E+02  0.76134943670E+02  0.00000000000E+00 0. -1.
          1   -1    0    0  501    0 -0.00000000000E+00 -0.00000000000E+00 -0.97986750757E+03  0.97986750757E+03  0.00000000000E+00 0. -1.
         25    2    1    2    0    0  0.97326383941E+01 -0.15352803275E+02 -0.37568530959E+03  0.39635163819E+03  0.12499894576E+03 0.  0.
          2    1    1    2  501    0  0.13760136165E+03  0.55514406282E+01 -0.48742437131E+03  0.50650515394E+03  0.00000000000E+00 0. -1.
          1    1    1    2  502    0 -0.14733400004E+03  0.98013626465E+01 -0.40622883001E+02  0.15314565910E+03  0.00000000000E+00 0. -1.
         22    1    3    3    0    0  0.62603611687E+01 -0.41982954198E+02 -0.36498158063E+03  0.36744158007E+03  0.00000000000E+00 0. -1.
         22    1    3    3    0    0  0.34722772254E+01  0.26630150924E+02 -0.10703728960E+02  0.28910058129E+02  0.00000000000E+00 0. -1.
</event>
<event>
 7    1  0.6219721E-006  0.9008093E+02  0.7818608E-02  0.1375724E+00
          2   -1    0    0  502    0  0.00000000000E+00  0.00000000000E+00  0.64674617574E+02  0.64674617574E+02  0.00000000000E+00 0. -1.
          1   -1    0    0  501    0 -0.00000000000E+00 -0.00000000000E+00 -0.21840749881E+04  0.21840749881E+04  0.00000000000E+00 0. -1.
         25    2    1    2    0    0  0.12433982471E+03  0.42084179530E+02 -0.27436516958E+03  0.32883723262E+03  0.12500483632E+03 0.  0.
          2    1    1    2  501    0 -0.46161081836E+02 -0.12308617365E+02 -0.18350383795E+04  0.18356601542E+04  0.00000000000E+00 0. -1.
          1    1    1    2  502    0 -0.78178742872E+02 -0.29775562165E+02 -0.99968214438E+01  0.84252218833E+02  0.00000000000E+00 0. -1.
         22    1    3    3    0    0  0.89831712297E+02  0.73151277105E+02 -0.11654237383E+03  0.16432580678E+03  0.00000000000E+00 0. -1.
         22    1    3    3    0    0  0.34508112412E+02 -0.31067097575E+02 -0.15782279575E+03  0.16451142584E+03  0.00000000000E+00 0. -1.
</event>
<event>
 7    1  0.6219721E-006  0.7319048E+02  0.7818608E-02  0.1393788E+00
          2   -1    0    0  502    0  0.00000000000E+00  0.00000000000E+00  0.74102976835E+03  0.74102976835E+03  0.00000000000E+00 0. -1.
          1   -1    0    0  501    0 -0.00000000000E+00 -0.00000000000E+00 -0.69165198134E+03  0.69165198134E+03  0.00000000000E+00 0. -1.
         25    2    1    2    0    0 -0.94845495152E+02 -0.14551361968E+02 -0.38346430750E+02  0.16218314834E+03  0.12500205906E+03 0.  0.
          2    1    1    2  501    0  0.55714037196E+02  0.46940504680E+02 -0.58818687475E+03  0.59268141910E+03  0.00000000000E+00 0. -1.
          1    1    1    2  502    0  0.39131457955E+02 -0.32389142712E+02  0.67591109251E+03  0.67781718224E+03  0.00000000000E+00 0. -1.
         22    1    3    3    0    0 -0.10268376181E+03  0.21751593512E+02 -0.58254430972E+02  0.12004443130E+03  0.00000000000E+00 0.  1.
         22    1    3    3    0    0  0.78382666557E+01 -0.36302955479E+02  0.19908000221E+02  0.42138717037E+02  0.00000000000E+00 0.  1.
</event>
<event>
 7    1  0.6219721E-006  0.7638537E+02  0.7818608E-02  0.1476134E+00
          2   -1    0    0  502    0  0.00000000000E+00  0.00000000000E+00  0.58933409726E+03  0.58933409726E+03  0.00000000000E+00 0. -1.
          1   -1    0    0  501    0 -0.00000000000E+00 -0.00000000000E+00 -0.30994603255E+04  0.30994603255E+04  0.00000000000E+00 0. -1.
         25    2    1    2    0    0 -0.12078120006E+01 -0.54074490448E+02  0.12211697318E+03  0.18292907577E+03  0.12499992919E+03 0.  0.
          2    1    1    2  501    0  0.17731422550E+02  0.74374313692E+02 -0.30681854743E+04  0.30691379973E+04  0.00000000000E+00 0. -1.
          1    1    1    2  502    0 -0.16523610549E+02 -0.20299823244E+02  0.43594227296E+03  0.43672734960E+03  0.00000000000E+00 0. -1.
         22    1    3    3    0    0 -0.59374101666E+02 -0.12673823972E+02  0.78598169514E+02  0.99315567831E+02  0.00000000000E+00 0.  1.
         22    1    3    3    0    0  0.58166289666E+02 -0.41400666476E+02  0.43518803662E+02  0.83613507942E+02  0.00000000000E+00 0.  1.
</event>
<event>
 7    1  0.6219721E-006  0.1214227E+03  0.7818608E-02  0.1302050E+00
          2   -1    0    0  502    0  0.00000000000E+00  0.00000000000E+00  0.26900059866E+04  0.26900059866E+04  0.00000000000E+00 0. -1.
          1   -1    0    0  501    0 -0.00000000000E+00 -0.00000000000E+00 -0.15860380574E+03  0.15860380574E+03  0.00000000000E+00 0. -1.
         25    2    1    2    0    0 -0.16171248325E+03  0.81777727834E+02  0.18256737744E+04  0.18388986954E+04  0.12500062982E+03 0.  0.
          2    1    1    2  501    0  0.11629044513E+03 -0.32250773464E+02 -0.12646686086E+03  0.17480688463E+03  0.00000000000E+00 0. -1.
          1    1    1    2  502    0  0.45422038117E+02 -0.49526954371E+02  0.83219526732E+03  0.83490421229E+03  0.00000000000E+00 0. -1.
         22    1    3    3    0    0  0.81461078321E+01 -0.28828997393E+01  0.95257741072E+01  0.12861203523E+02  0.00000000000E+00 0. -1.
         22    1    3    3    0    0 -0.16985859108E+03  0.84660627574E+02  0.18161480003E+04  0.18260374919E+04  0.00000000000E+00 0. -1.
</event>
