<event>
 7    1  0.4915160E-006  0.1631689E+03  0.7818608E-02  0.1218251E+00
          2   -1    0    0  502    0  0.00000000000E+00  0.00000000000E+00  0.83762320731E+03  0.83762320731E+03  0.00000000000E+00 0. -1.
          1   -1    0    0  501    0 -0.00000000000E+00 -0.00000000000E+00 -0.14326127514E+04  0.14326127514E+04  0.00000000000E+00 0. -1.
         25    2    1    2    0    0  0.11810164128E+03  0.70099110010E+02  0.18237492057E+03  0.26028375689E+03  0.12500055821E+03 0.  0.
          2    1    1    2  501    0 -0.16062544834E+03  0.35704249873E+02 -0.13834662711E+04  0.13932172305E+04  0.00000000000E+00 0. -1.
          1    1    1    2  502    0  0.42523807063E+02 -0.10580335988E+03  0.60610180641E+03  0.61673497133E+03  0.00000000000E+00 0. -1.
         22    1    3    3    0    0  0.92236963499E+02 -0.15596949792E+02  0.71252614993E+02  0.11759191053E+03  0.00000000000E+00 0.  1.
         22    1    3    3    0    0  0.25864677780E+02  0.85696059802E+02  0.11112230558E+03  0.14269184637E+03  0.00000000000E+00 0.  1.
</event>
<event>
 7    1  0.4915160E-006  0.8197023E+02  0.7818608E-02  0.1357181E+00
          2   -1    0    0  502    0  0.00000000000E+00  0.00000000000E+00  0.10230063973E+04  0.10230063973E+04  0.00000000000E+00 0. -1.
          1   -1    0    0  501    0 -0.00000000000E+00 -0.00000000000E+00 -0.60160743202E+02  0.60160743202E+02  0.00000000000E+00 0. -1.
         25    2    1    2    0    0 -0.33775219329E+02 -0.74321663120E+01  0.77326249469E+02  0.15099825520E+03  0.12500048672E+03 0.  0.
          2    1    1    2  501    0  0.75126441617E+02 -0.63343499360E+02  0.92596606014E+02  0.13502041544E+03  0.00000000000E+00 0. -1.
          1    1    1    2  502    0 -0.41351222288E+02  0.70775665672E+02  0.79292279866E+03  0.79714846990E+03  0.00000000000E+00 0. -1.
         22    1    3    3    0    0 -0.45282356963E+02  0.10198570981E+02  0.10583027156E+03  0.11556188420E+03  0.00000000000E+00 0.  1.
         22    1    3    3    0    0  0.11507137634E+02 -0.17630737293E+02 -0.28504022091E+02  0.35436370996E+02  0.00000000000E+00 0.  1.
</event>
<event>
 7    1  0.4915160E-006  0.1164495E+03  0.7818608E-02  0.1376561E+00
          2   -1    0    0  502    0  0.00000000000E+00  0.00000000000E+00  0.27640052992E+04  0.27640052992E+04  0.00000000000E+00 0. -1.
          1   -1    0    0  501    0 -0.00000000000E+00 -0.00000000000E+00 -0.25746944661E+03  0.25746944661E+03  0.00000000000E+00 0. -1.
         25    2    1    2    0    0 -0.10282794110E+02 -0.13635415649E+03 -0.69282902563E+02  0.19779622445E+03  0.12500013590E+03 0.  0.
          2    1    1    2  501    0 -0.26032638292E+02  0.25873470463E+02 -0.11993089017E+03  0.12542150193E+03  0.00000000000E+00 0. -1.
          1    1    1    2  502    0  0.36315432402E+02  0.11048068602E+03  0.26957496453E+04  0.26982570194E+04  0.00000000000E+00 0. -1.
         22    1    3    3    0    0 -0.34722110253E+02 -0.13977849432E+03 -0.23702362672E+02  0.14596388050E+03  0.00000000000E+00 0.  1.
         22    1    3    3    0    0  0.24439316143E+02  0.34243378309E+01 -0.45580539891E+02  0.51832343955E+02  0.00000000000E+00 0.  1.
</event>
<event>
 7    1  0.4915160E-006  0.5962923E+02  0.7818608E-02  0.1435685E+00
          2   -1    0    0  502    0  0.00000000000E+00  0.00000000000E+00  0.32027193684E+03  0.32027193684E+03  0.00000000000E+00 0. -1.
          1   -1    0    0  501    0 -0.00000000000E+00 -0.00000000000E+00 -0.17885965674E+04  0.17885965674E+04  0.00000000000E+00 0. -1.
         25    2    1    2    0    0  0.44687609014E+02  0.24078781150E+02 -0.48531356325E+02  0.14337806940E+03  0.12500083254E+03 0.  0.
          2    1    1    2  501    0  0.12682972115E+02 -0.43238821062E+02 -0.16889855434E+04  0.16895865232E+04  0.00000000000E+00 0. -1.
          1    1    1    2  502    0 -0.57370581129E+02  0.19160039912E+02  0.26919226916E+03  0.27590391169E+03  0.00000000000E+00 0. -1.
         22    1    3    3    0    0  0.78560926825E+02 -0.27940044830E+01 -0.31105223663E+00  0.78611210639E+02  0.00000000000E+00 0.  1.
         22    1    3    3    0    0 -0.33873317811E+02  0.26872785633E+02 -0.48220304088E+02  0.64766858760E+02  0.00000000000E+00 0.  1.
</event>
<event>
 7    1  0.4915160E-006  0.1274061E+03  0.7818608E-02  0.1324420E+00
          2   -1    0    0  502    0  0.00000000000E+00  0.00000000000E+00  0.13324753307E+03  0.13324753307E+03  0.00000000000E+00 0. -1.
          1   -1    0    0  501    0 -0.00000000000E+00 -0.00000000000E+00 -0.64163584206E+03  0.64163584206E+03  0.00000000000E+00 0. -1.
         25    2    1    2    0    0 -0.12665544087E+03  0.61384882137E+02 -0.75335346621E+02  0.20275629414E+03  0.12499998364E+03 0.  0.
          2    1    1    2  501    0  0.12650148213E+03 -0.90525044400E+01 -0.48324817057E+03  0.49961321758E+03  0.00000000000E+00 0. -1.
          1    1    1    2  502    0  0.15395873043E+00 -0.52332377697E+02  0.50195208205E+02  0.72513863402E+02  0.00000000000E+00 0. -1.
         22    1    3    3    0    0 -0.49572182733E+02  0.55557988746E+02 -0.97180230627E+02  0.12242584955E+03  0.00000000000E+00 0. -1.
         22    1    3    3    0    0 -0.77083258132E+02  0.58268933914E+01  0.21844884006E+02  0.80330444591E+02  0.00000000000E+00 0. -1.
</event>
<event>
 7    1  0.4915160E-006  0.8797891E+02  0.7818608E-02  0.1344510E+00
          2   -1    0    0  502    0  0.00000000000E+00  0.00000000000E+00  0.24094547369E+04  0.24094547369E+04  0.00000000000E+00 0. -1.
          1   -1    0    0  501    0 -0.00000000000E+00 -0.00000000000E+00 -0.47769308370E+03  0.47769308370E+03  0.00000000000E+00 0. -1.
         25    2    1    2    0    0 -0.31540021309E+02 -0.19330805941E+01  0.13103339991E+03  0.18382121699E+03  0.12498791213E+03 0.  0.
          2    1    1    2  501    0 -0.50880978162E+02  0.38133478108E+02 -0.44815453548E+03  0.45264282140E+03  0.00000000000E+00 0. -1.
          1    1    1    2  502    0  0.82420999471E+02 -0.36200397514E+02  0.22488827888E+04  0.22506837822E+04  0.00000000000E+00 0. -1.
         22    1    3    3    0    0 -0.58046110163E+02 -0.41664012321E+02  0.42253696797E+02  0.83009732687E+02  0.00000000000E+00 0.  1.
         22    1    3    3    0    0  0.26506088854E+02  0.39730931727E+02  0.88779703118E+02  0.10081148431E+03  0.00000000000E+00 0.  1.
</event>
<event>
 7    1  0.4915160E-006  0.3945301E+02  0.7818608E-02  0.1524925E+00
          2   -1    0    0  502    0  0.00000000000E+00  0.00000000000E+00  0.10705583584E+04  0.10705583584E+04  0.00000000000E+00 0. -1.
          1   -1    0    0  501    0 -0.00000000000E+00 -0.00000000000E+00 -0.14082229991E+02  0.14082229991E+02  0.00000000000E+00 0. -1.
         25    2    1    2    0    0 -0.74521044736E+01  0.52010656061E+01  0.58006935770E+03  0.59345435270E+03  0.12500009620E+03 0.  0.
          2    1    1    2  501    0  0.43330305204E+02 -0.39679228290E-01  0.64592897908E+02  0.77780199175E+02  0.00000000000E+00 0. -1.
          1    1    1    2  502    0 -0.35878200730E+02 -0.51613863778E+01  0.41181387278E+03  0.41340603650E+03  0.00000000000E+00 0. -1.
         22    1    3    3    0    0  0.13603541632E+02  0.32945053389E+02  0.53646355545E+03  0.53764633284E+03  0.00000000000E+00 0. -1.
         22    1    3    3    0    0 -0.21055646106E+02 -0.27743987783E+02  0.43605802253E+02  0.55808019864E+02  0.00000000000E+00 0. -1.
</event>
<event>
 7    1  0.4915160E-006  0.9444709E+02  0.7818608E-02  0.1451681E+00
          2   -1    0    0  502    0  0.00000000000E+00  0.00000000000E+00  0.10875904133E+03  0.10875904133E+03  0.00000000000E+00 0. -1.
          1   -1    0    0  501    0 -0.00000000000E+00 -0.00000000000E+00 -0.90209532908E+03  0.90209532908E+03  0.00000000000E+00 0. -1.
         25    2    1    2    0    0 -0.37681482763E+02 -0.62466504004E+02 -0.20350801361E+03  0.24973384113E+03  0.12501808485E+03 0.  0.
          2    1    1    2  501    0  0.55116018022E+02  0.80744448446E+02 -0.66998396427E+03  0.67707898637E+03  0.00000000000E+00 0. -1.
          1    1    1    2  502    0 -0.17434535258E+02 -0.18277944441E+02  0.80155690135E+02  0.84041542904E+02  0.00000000000E+00 0. -1.
         22    1    3    3    0    0 -0.66216355754E+02 -0.61670362805E+02 -0.73349292490E+02  0.11648157849E+03  0.00000000000E+00 0.  1.
         22    1    3    3    0    0  0.28534872991E+02 -0.79614119930E+00 -0.13015872112E+03  0.13325226265E+03  0.00000000000E+00 0.  1.
</event>
<event>
 7    1  0.4915160E-006  0.1525527E+03  0.7818608E-02  0.1265542E+00
          2   -1    0    0  502    0  0.00000000000E+00  0.00000000000E+00  0.37654492848E+03  0.37654492848E+03  0.00000000000E+00 0. -1.
          1   -1    0    0  501    0 -0.00000000000E+00 -0.00000000000E+00 -0.28231527101E+03  0.28231527101E+03  0.00000000000E+00 0. -1.
         25    2    1    2    0    0  0.48297892279E+02 -0.14038892513E+03 -0.19970281827E+02  0.19510490650E+03  0.12500150274E+03 0.  0.
          2    1    1    2  501    0  0.67110238583E+02  0.34703931547E+02 -0.14355116594E+03  0.16221924741E+03  0.00000000000E+00 0. -1.
          1    1    1    2  502    0 -0.11540813086E+03  0.10568499358E+03  0.25775110523E+03  0.30153604558E+03  0.00000000000E+00 0. -1.
         22    1    3    3    0    0  0.95686650882E+01  0.18010458539E+02  0.18530883439E+02  0.27555936010E+02  0.00000000000E+00 0. -1.
         22    1    3    3    0    0  0.38729227191E+02 -0.15839938367E+03 -0.38501165266E+02  0.16754897049E+03  0.00000000000E+00 0. -1.
</event>
<event>
 7    1  0.4915160E-006  0.6988089E+02  0.7818608E-02  0.1522234E+00
          2   -1    0    0  502    0  0.00000000000E+00  0.00000000000E+00  0.13975515742E+04  0.13975515742E+04  0.00000000000E+00 0. -1.
          1   -1    0    0  501    0 -0.00000000000E+00 -0.00000000000E+00 -0.30451160139E+02  0.30451160139E+02  0.00000000000E+00 0. -1.
         25    2    1    2    0    0  0.70146391501E+02 -0.23400928409E+02  0.53541409746E+03  0.55476419101E+03  0.12500772849E+03 0.  0.
          2    1    1    2  501    0 -0.53238728158E+00  0.20827356483E+02 -0.13733620785E+02  0.24953447741E+02  0.00000000000E+00 0. -1.
          1    1    1    2  502    0 -0.69614004219E+02  0.25735719253E+01  0.84541993734E+03  0.84828509553E+03  0.00000000000E+00 0. -1.
         22    1    3    3    0    0 -0.30491115646E+02  0.15020925133E+02  0.18746392345E+03  0.19052049475E+03  0.00000000000E+00 0. -1.
         22    1    3    3    0    0  0.10063750715E+03 -0.38421853542E+02  0.34795017401E+03  0.36424369626E+03  0.00000000000E+00 0. -1.
</event>
<event>
 7    1  0.4915160E-006  0.3069251E+02  0.7818608E-02  0.1630631E+00
          2   -1    0    0  502    0  0.00000000000E+00  0.00000000000E+00  0.11010875835E+04  0.11010875835E+04  0.00000000000E+00 0. -1.
          1   -1    0    0  501    0 -0.00000000000E+00 -0.00000000000E+00 -0.13085251045E+04  0.13085251045E+04  0.00000000000E+00 0. -1.
         25    2    1    2    0    0 -0.27592398214E+02  0.24259171233E+01  0.30378005345E+03  0.32965798826E+03  0.12499937134E+03 0.  0.
          2    1    1    2  501    0  0.22234412096E+02  0.21168305951E+02 -0.12952176250E+04  0.12955813993E+04  0.00000000000E+00 0. -1.
          1    1    1    2  502    0  0.53579861180E+01 -0.23594223074E+02  0.78400005041E+03  0.78437330043E+03  0.00000000000E+00 0. -1.
         22    1    3    3    0    0 -0.57344231795E+02 -0.27941373279E+02  0.26343650470E+03  0.27104957714E+03  0.00000000000E+00 0. -1.
         22    1    3    3    0    0  0.29751833581E+02  0.30367290402E+02  0.40343548748E+02  0.58608411114E+02  0.00000000000E+00 0. -1.
</event>
<event>
 7    1  0.4915160E-006  0.1612920E+03  0.7818608E-02  0.1294013E+00
          2   -1    0    0  502    0  0.00000000000E+00  0.00000000000E+00  0.35135059500E+04  0.35135059500E+04  0.00000000000E+00 0. -1.
          1   -1    0    0  501    0 -0.00000000000E+00 -0.00000000000E+00 -0.23848713968E+03  0.23848713968E+03  0.00000000000E+00 0. -1.
         25    2    1    2    0    0  0.89720918433E+02 -0.92821808149E+02  0.22387402503E+03  0.28707330713E+03  0.12500309320E+03 0.  0.
          2    1    1    2  501    0  0.53013179689E+02  0.12615644350E+02 -0.20120384707E+03  0.20845272792E+03  0.00000000000E+00 0. -1.
          1    1    1    2  502    0 -0.14273409812E+03  0.80206163799E+02  0.32523486323E+04  0.32564670546E+04  0.00000000000E+00 0. -1.
         22    1    3    3    0    0  0.40170295100E+02 -0.10889937602E+03  0.19650998272E+03  0.22822992795E+03  0.00000000000E+00 0.  1.
         22    1    3    3    0    0  0.49550623333E+02  0.16077567869E+02  0.27364042313E+02  0.58843379177E+02  0.00000000000E+00 0.  1.
</event>
<event>
 7    1  0.4915160E-006  0.1560741E+03  0.7818608E-02  0.1226623E+00
          2   -1    0    0  502    0  0.00000000000E+00  0.00000000000E+00  0.14684690187E+04  0.14684690187E+04  0.00000000000E+00 0. -1.
          1   -1    0    0  501    0 -0.00000000000E+00 -0.00000000000E+00 -0.12519196679E+04  0.12519196679E+04  0.00000000000E+00 0. -1.
         25    2    1    2    0    0 -0.10953184758E+03  0.23976516943E+03  0.44810135063E+03  0.53470036603E+03  0.12500039553E+03 0.  0.
          2    1    1    2  501    0  0.72340212787E+02 -0.13707041054E+03 -0.12005707536E+04  0.12105335758E+04  0.00000000000E+00 0. -1.
          1    1    1    2  502    0  0.37191634791E+02 -0.10269475889E+03  0.96901875371E+03  0.97515474477E+03  0.00000000000E+00 0. -1.
         22    1    3    3    0    0 -0.13679116917E+03  0.21384431223E+03  0.39764169303E+03  0.47176278983E+03  0.00000000000E+00 0. -1.
         22    1    3    3    0    0  0.27259321590E+02  0.25920857203E+02  0.50459657606E+02  0.62937576196E+02  0.00000000000E+00 0. -1.
</event>
<event>
 7    1  0.4915160E-006  0.5038716E+02  0.7818608E-02  0.1532138E+00
          2   -1    0    0  502    0  0.00000000000E+00  0.00000000000E+00  0.31420986918E+03  0.31420986918E+03  0.00000000000E+00 0. -1.
          1   -1    0    0  501    0 -0.00000000000E+00 -0.00000000000E+00 -0.16403912450E+03  0.16403912450E+03  0.00000000000E+00 0. -1.
         25    2    1    2    0    0  0.22481349156E+02  0.18201410062E+02  0.70195501061E+02  0.14625086222E+03  0.12500081577E+03 0.  0.
          2    1    1    2  501    0 -0.24846523163E+02 -0.45158169122E+02 -0.11979020250E+03  0.13040821511E+03  0.00000000000E+00 0. -1.
          1    1    1    2  502    0  0.23651740069E+01  0.26956759059E+02  0.19976544613E+03  0.20158991635E+03  0.00000000000E+00 0. -1.
         22    1    3    3    0    0  0.83984885054E+01  0.70622100338E+02  0.24261866055E+02  0.75144220069E+02  0.00000000000E+00 0.  1.
         22    1    3    3    0    0  0.14082860651E+02 -0.52420690276E+02  0.45933635005E+02  0.71106642150E+02  0.00000000000E+00 0.  1.
</event>
<event>
 7    1  0.4915160E-006  0.8045382E+02  0.7818608E-02  0.1461837E+00
          2   -1    0    0  502    0  0.00000000000E+00  0.00000000000E+00  0.24743279246E+03  0.24743279246E+03  0.00000000000E+00 0. -1.
          1   -1    0    0  501    0 -0.00000000000E+00 -0.00000000000E+00 -0.13334516456E+04  0.13334516456E+04  0.00000000000E+00 0. -1.
         25    2    1    2    0    0 -0.40567032372E+02 -0.41828549688E+02  0.28575366988E+01  0.13794481647E+03  0.12500118076E+03 0.  0.
          2    1    1    2  501    0  0.68034498197E+02  0.43753110774E+02 -0.12635361997E+04  0.12661227254E+04  0.00000000000E+00 0. -1.
          1    1    1    2  502    0 -0.27467465825E+02 -0.19245610861E+01  0.17465980987E+03  0.17681689625E+03  0.00000000000E+00 0. -1.
         22    1    3    3    0    0 -0.81327465300E+01 -0.83833939759E+02  0.81016911166E+01  0.84616242061E+02  0.00000000000E+00 0. -1.
         22    1    3    3    0    0 -0.32434285842E+02  0.42005390071E+02 -0.52441544178E+01  0.53328574410E+02  0.00000000000E+00 0. -1.
</event>
<event>
 7    1  0.4915160E-006  0.1468401E+03  0.7818608E-02  0.1341044E+00
          2   -1    0    0  502    0  0.00000000000E+00  0.00000000000E+00  0.27981898412E+04  0.27981898412E+04  0.00000000000E+00 0. -1.
          1   -1    0    0  501    0 -0.00000000000E+00 -0.00000000000E+00 -0.40483313994E+02  0.40483313994E+02  0.00000000000E+00 0. -1.
         25    2    1    2    0    0  0.11476297306E+03  0.12216949778E+03  0.81177164315E+03  0.83826874089E+03  0.12500142061E+03 0.  0.
          2    1    1    2  501    0 -0.11609384208E+03 -0.82939126621E+02  0.16133665754E+03  0.21537454808E+03  0.00000000000E+00 0. -1.
          1    1    1    2  502    0  0.13308690188E+01 -0.39230371158E+02  0.17845982265E+04  0.17850298662E+04  0.00000000000E+00 0. -1.
         22    1    3    3    0    0  0.28848699063E+02  0.79831650794E+02  0.59833975672E+03  0.60433087326E+03  0.00000000000E+00 0. -1.
         22    1    3    3    0    0  0.85914274001E+02  0.42337846985E+02  0.21343188643E+03  0.23393786762E+03  0.00000000000E+00 0. -1.
</event>
<event>
 7    1  0.4915160E-006  0.1397757E+03  0.7818608E-02  0.1331746E+00
          2   -1    0    0  502    0  0.00000000000E+00  0.00000000000E+00  0.10719007899E+04  0.10719007899E+04  0.00000000000E+00 0. -1.
          1   -1    0    0  501    0 -0.00000000000E+00 -0.00000000000E+00 -0.83823805047E+02  0.83823805047E+02  0.00000000000E+00 0. -1.
         25    2    1    2    0    0  0.13979389768E+03  0.63192789313E+02  0.19873570304E+03  0.28045955286E+03  0.12500407466E+03 0.  0.
          2    1    1    2  501    0 -0.10276301155E+03 -0.88257081486E+02  0.66251438149E+02  0.15079390582E+03  0.00000000000E+00 0. -1.
          1    1    1    2  502    0 -0.37030886130E+02  0.25064292173E+02  0.72308984369E+03  0.72447113629E+03  0.00000000000E+00 0. -1.
         22    1    3    3    0    0  0.12122665701E+02  0.65607802873E+02  0.44377752490E+02  0.80129443637E+02  0.00000000000E+00 0.  1.
         22    1    3    3    0    0  0.12767123198E+03 -0.24150135601E+01  0.15435795055E+03  0.20033010923E+03  0.00000000000E+00 0.  1.
</event>
<event>
 7    1  0.4915160E-006  0.8234105E+02  0.7818608E-02  0.1440748E+00
          2   -1    0    0  502    0  0.00000000000E+00  0.00000000000E+00  0.19393270214E+04  0.19393270214E+04  0.00000000000E+00 0. -1.
          1   -1    0    0  501    0 -0.00000000000E+00 -0.00000000000E+00 -0.26624702212E+03  0.26624702212E+03  0.00000000000E+00 0. -1.
         25    2    1    2    0    0  0.53380762625E+02  0.17074174595E+02  0.46332165576E+03  0.48314873668E+03  0.12499884723E+03 0.  0.
          2    1    1    2  501    0  0.31244273946E+02 -0.32910773513E+01 -0.25411170595E+03  0.25604647028E+03  0.00000000000E+00 0. -1.
          1    1    1    2  502    0 -0.84625036571E+02 -0.13783097244E+02  0.14638700495E+04  0.14663788366E+04  0.00000000000E+00 0. -1.
         22    1    3    3    0    0 -0.21082726306E+02 -0.34178920881E+02  0.21875031261E+03  0.22240588852E+03  0.00000000000E+00 0. -1.
         22    1    3    3    0    0  0.74463488931E+02  0.51253095476E+02  0.24457134314E+03  0.26074284816E+03  0.00000000000E+00 0. -1.
</event>
<event>
 7    1  0.4915160E-006  0.8122351E+02  0.7818608E-02  0.1360966E+00
          2   -1    0    0  502    0  0.00000000000E+00  0.00000000000E+00  0.22792858882E+02  0.22792858882E+02  0.00000000000E+00 0. -1.
          1   -1    0    0  501    0 -0.00000000000E+00 -0.00000000000E+00 -0.13729732615E+04  0.13729732615E+04  0.00000000000E+00 0. -1.
         25    2    1    2    0    0 -0.32333366358E+02  0.69991004851E+02 -0.58113097038E+03  0.59940152285E+03  0.12499917410E+03 0.  0.
          2    1    1    2  501    0  0.80300109007E+02 -0.34135829204E+02 -0.69804583681E+03  0.70347803990E+03  0.00000000000E+00 0. -1.
          1    1    1    2  502    0 -0.47966742650E+02 -0.35855175647E+02 -0.71003595384E+02  0.92886557577E+02  0.00000000000E+00 0. -1.
         22    1    3    3    0    0 -0.37983912539E+00 -0.31102272175E+02 -0.24446154145E+03  0.24643242656E+03  0.00000000000E+00 0. -1.
         22    1    3    3    0    0 -0.31953527232E+02  0.10109327703E+03 -0.33666942893E+03  0.35296909629E+03  0.00000000000E+00 0. -1.
</event>
<event>
 7    1  0.4915160E-006  0.8960211E+02  0.7818608E-02  0.1478990E+00
          2   -1    0    0  502    0  0.00000000000E+00  0.00000000000E+00  0.11480087881E+04  0.11480087881E+04  0.00000000000E+00 0. -1.
          1   -1    0    0  501    0 -0.00000000000E+00 -0.00000000000E+00 -0.16832903462E+03  0.16832903462E+03  0.00000000000E+00 0. -1.
         25    2    1    2    0    0 -0.46481141411E+02  0.56668599810E+02  0.46288989896E+03  0.48503934879E+03  0.12499713839E+03 0.  0.
          2    1    1    2  501    0 -0.87498186606E+01  0.20039708866E+02 -0.15316013959E+03  0.15471321087E+03  0.00000000000E+00 0. -1.
          1    1    1    2  502    0  0.55230960072E+02 -0.76708308676E+02  0.66994999414E+03  0.67658526308E+03  0.00000000000E+00 0. -1.
         22    1    3    3    0    0  0.41851524774E+02  0.23405332998E+02  0.11558663629E+03  0.12513844424E+03  0.00000000000E+00 0. -1.
         22    1    3    3    0    0 -0.88332666185E+02  0.33263266812E+02  0.34730326267E+03  0.35990090455E+03  0.00000000000E+00 0. -1.
</event>
<event>
 7    1  0.4915160E-006  0.1569076E+03  0.7818608E-02  0.1370266E+00
          2   -1    0    0  502    0  0.00000000000E+00  0.00000000000E+00  0.19399486730E+04  0.19399486730E+04  0.00000000000E+00 0. -1.
          1   -1    0    0  501    0 -0.00000000000E+00 -0.00000000000E+00 -0.21327405038E+02  0.21327405038E+02  0.00000000000E+00 0. -1.
         25    2    1    2    0    0 -0.87380172910E+02 -0.11104646936E+03  0.61144056070E+03  0.63988338452E+03  0.12499829420E+03 0.  0.
          2    1    1    2  501    0 -0.28335670933E+02 -0.44882308610E+01  0.15038447874E+03  0.15309652481E+03  0.00000000000E+00 0. -1.
          1    1    1    2  502    0  0.11571584384E+03  0.11553470022E+03  0.11567962285E+04  0.11682961687E+04  0.00000000000E+00 0. -1.
         22    1    3    3    0    0 -0.11526337049E+03 -0.10253155925E+03  0.44682313853E+03  0.47270422290E+03  0.00000000000E+00 0.  1.
         22    1    3    3    0    0  0.27883197583E+02 -0.85149101062E+01  0.16461742216E+03  0.16717916163E+03  0.00000000000E+00 0.  1.
</event>
<event>
 7    1  0.4915160E-006  0.6991621E+02  0.7818608E-02  0.1439122E+00
          2   -1    0    0  502    0  0.00000000000E+00  0.00000000000E+00  0.12382622541E+04  0.12382622541E+04  0.00000000000E+00 0. -1.
          1   -1    0    0  501    0 -0.00000000000E+00 -0.00000000000E+00 -0.73900071096E+02  0.73900071096E+02  0.00000000000E+00 0. -1.
         25    2    1    2    0    0  0.32672211662E+02  0.57546920146E+02  0.35522185382E+03  0.38234391230E+03  0.12500072165E+03 0.  0.
          2    1    1    2  501    0  0.24274880434E+01 -0.70612427647E+02 -0.39100053454E+02  0.80751605659E+02  0.00000000000E+00 0. -1.
          1    1    1    2  502    0 -0.35099699705E+02  0.13065507500E+02  0.84824038260E+03  0.84906680720E+03  0.00000000000E+00 0. -1.
         22    1    3    3    0    0  0.46603635383E+02  0.57143485095E+01  0.37415494194E+02  0.60037253565E+02  0.00000000000E+00 0. -1.
         22    1    3    3    0    0 -0.13931423722E+02  0.51832571637E+02  0.31780635962E+03  0.32230665874E+03  0.00000000000E+00 0. -1.
</event>
<event>
 7    1  0.4915160E-006  0.7154465E+02  0.7818608E-02  0.1429077E+00
          2   -1    0    0  502    0  0.00000000000E+00  0.00000000000E+00  0.14748276999E+04  0.14748276999E+04  0.00000000000E+00 0. -1.
          1   -1    0    0  501    0 -0.00000000000E+00 -0.00000000000E+00 -0.93471889252E+03  0.93471889252E+03  0.00000000000E+00 0. -1.
         25    2    1    2    0    0 -0.60655323911E+02 -0.18681601414E+02  0.16849078541E+03  0.21918870519E+03  0.12500589253E+03 0.  0.
          2    1    1    2  501    0  0.68850461439E+02 -0.19936858689E+02 -0.90765247575E+03  0.91047838037E+03  0.00000000000E+00 0. -1.
          1    1    1    2  502    0 -0.81951375283E+01  0.38618460103E+02  0.12792704977E+04  0.12798795069E+04  0.00000000000E+00 0. -1.
         22    1    3    3    0    0 -0.26162354772E+01  0.37107878541E+02  0.57732341482E+01  0.37645312729E+02  0.00000000000E+00 0. -1.
         22    1    3    3    0    0 -0.58039088434E+02 -0.55789479955E+02  0.16271755126E+03  0.18154339247E+03  0.00000000000E+00 0. -1.
</event>
<event>
 7    1  0.4915160E-006  0.2374787E+03  0.7818608E-02  0.1203730E+00
          2   -1    0    0  502    0  0.00000000000E+00  0.00000000000E+00  0.81708257547E+03  0.81708257547E+03  0.00000000000E+00 0. -1.
          1   -1    0    0  501    0 -0.00000000000E+00 -0.00000000000E+00 -0.54194997971E+03  0.54194997971E+03  0.00000000000E+00 0. -1.
         25    2    1    2    0    0  0.14046297110E+03  0.19373323693E+03  0.21235832805E+03  0.34348148374E+03  0.12498422636E+03 0.  0.
          2    1    1    2  501    0 -0.57393069001E+02 -0.23201032332E+03 -0.44204105339E+03  0.50251671353E+03  0.00000000000E+00 0. -1.
          1    1    1    2  502    0 -0.83069902101E+02  0.38277086392E+02  0.50481532110E+03  0.51303435791E+03  0.00000000000E+00 0. -1.
         22    1    3    3    0    0  0.41231272826E+02  0.90501096356E+02  0.16419964463E+02  0.10079722979E+03  0.00000000000E+00 0.  1.
         22    1    3    3    0    0  0.99231698276E+02  0.10323214057E+03  0.19593836359E+03  0.24268425395E+03  0.00000000000E+00 0.  1.
</event>
<event>
 7    1  0.4915160E-006  0.9669802E+02  0.7818608E-02  0.1413351E+00
          2   -1    0    0  502    0  0.00000000000E+00  0.00000000000E+00  0.26811013913E+04  0.26811013913E+04  0.00000000000E+00 0. -1.
          1   -1    0    0  501    0 -0.00000000000E+00 -0.00000000000E+00 -0.34849624762E+03  0.34849624762E+03  0.00000000000E+00 0. -1.
         25    2    1    2    0    0 -0.63481869150E+02  0.63058194148E+02  0.50307708727E+03  0.52603757915E+03  0.12499078117E+03 0.  0.
          2    1    1    2  501    0 -0.25062557065E+02 -0.21402364325E+02 -0.33510228752E+03  0.33671907589E+03  0.00000000000E+00 0. -1.
          1    1    1    2  502    0  0.88544426215E+02 -0.41655829823E+02  0.21646303439E+04  0.21668409838E+04  0.00000000000E+00 0. -1.
         22    1    3    3    0    0 -0.49495492983E+02  0.65016439144E+02  0.50519168909E+03  0.51175734866E+03  0.00000000000E+00 0.  1.
         22    1    3    3    0    0 -0.13986376167E+02 -0.19582449961E+01 -0.21146018218E+01  0.14280230482E+02  0.00000000000E+00 0.  1.
</event>
<event>
 7    1  0.4915160E-006  0.4581787E+02  0.7818608E-02  0.1491903E+00
          2   -1    0    0  502    0  0.00000000000E+00  0.00000000000E+00  0.29425029088E+03  0.29425029088E+03  0.00000000000E+00 0. -1.
          1   -1    0    0  501    0 -0.00000000000E+00 -0.00000000000E+00 -0.19860791706E+04  0.19860791706E+04  0.00000000000E+00 0. -1.
         25    2    1    2    0    0 -0.15463662676E+02  0.13693301146E+02 -0.54987486931E+02  0.13812422493E+03  0.12501218514E+03 0.  0.
          2    1    1    2  501    0 -0.29597715619E+02 -0.25490619084E+02 -0.18871728150E+04  0.18875770263E+04  0.00000000000E+00 0. -1.
          1    1    1    2  502    0  0.45061378294E+02  0.11797317938E+02  0.25033142221E+03  0.25462821028E+03  0.00000000000E+00 0. -1.
         22    1    3    3    0    0 -0.68618429482E+02  0.63565862174E+01 -0.13321194750E+02  0.70187956819E+02  0.00000000000E+00 0. -1.
         22    1    3    3    0    0  0.53154766806E+02  0.73367149286E+01 -0.41666292181E+02  0.67936268106E+02  0.00000000000E+00 0. -1.
</event>
<event>
 7    1  0.5465443E-006  0.7739421E+02  0.7818608E-02  0.1446846E+00
          2   -1    0    0  502    0  0.00000000000E+00  0.00000000000E+00  0.39224948973E+03  0.39224948973E+03  0.00000000000E+00 0. -1.
          1   -1    0    0  501    0 -0.00000000000E+00 -0.00000000000E+00 -0.23093017588E+04  0.23093017588E+04  0.00000000000E+00 0. -1.
         25    2    1    2    0    0 -0.28812222116E+02  0.76723851551E+02 -0.98471763466E+03  0.99599400038E+03  0.12497413830E+03 0.  0.
          2    1    1    2  501    0  0.31938316217E+02  0.61453043632E+00 -0.13148759634E+04  0.13152639404E+04  0.00000000000E+00 0. -1.
          1    1    1    2  502    0 -0.31260941009E+01 -0.77338381988E+02  0.38254132894E+03  0.39029330783E+03  0.00000000000E+00 0. -1.
         22    1    3    3    0    0 -0.10006215226E+02  0.20051396196E+02 -0.82774138285E+03  0.82804467253E+03  0.00000000000E+00 0. -1.
         22    1    3    3    0    0 -0.18806006890E+02  0.56672455355E+02 -0.15697625181E+03  0.16794932785E+03  0.00000000000E+00 0. -1.
</event>
<event>
 7    1  0.4915160E-006  0.6946506E+02  0.7818608E-02  0.1426520E+00
          2   -1    0    0  502    0  0.00000000000E+00  0.00000000000E+00  0.25095407824E+03  0.25095407824E+03  0.00000000000E+00 0. -1.
          1   -1    0    0  501    0 -0.00000000000E+00 -0.00000000000E+00 -0.45349293169E+03  0.45349293169E+03  0.00000000000E+00 0. -1.
         25    2    1    2    0    0  0.23292925323E+01 -0.54483430435E+02 -0.12256404886E+03  0.18336070649E+03  0.12500133126E+03 0.  0.
          2    1    1    2  501    0 -0.43598681783E+02  0.58440213023E+02 -0.29409041867E+03  0.30299385787E+03  0.00000000000E+00 0. -1.
          1    1    1    2  502    0  0.41269389250E+02 -0.39567825881E+01  0.21411561409E+03  0.21809244557E+03  0.00000000000E+00 0. -1.
         22    1    3    3    0    0 -0.51118939589E+02 -0.81585527108E+01 -0.93537728022E+02  0.10690656916E+03  0.00000000000E+00 0. -1.
         22    1    3    3    0    0  0.53448232121E+02 -0.46324877724E+02 -0.29026320840E+02  0.76454137328E+02  0.00000000000E+00 0. -1.
</event>
<event>
 7    1  0.4915160E-006  0.1328028E+03  0.7818608E-02  0.1313084E+00
          2   -1    0    0  502    0  0.00000000000E+00  0.00000000000E+00  0.18597101667E+04  0.18597101667E+04  0.00000000000E+00 0. -1.
          1   -1    0    0  501    0 -0.00000000000E+00 -0.00000000000E+00 -0.16741571177E+04  0.16741571177E+04  0.00000000000E+00 0. -1.
         25    2    1    2    0    0  0.17148736640E+03  0.19525629006E+01  0.28683185724E+03  0.35680489805E+03  0.12500196640E+03 0.  0.
          2    1    1    2  501    0 -0.12833914012E+03  0.33062044901E+02 -0.16359881481E+04  0.16413473900E+04  0.00000000000E+00 0. -1.
          1    1    1    2  502    0 -0.43148226280E+02 -0.35014607801E+02  0.15347093399E+04  0.15357149964E+04  0.00000000000E+00 0. -1.
         22    1    3    3    0    0  0.35392747336E+02  0.45795906070E+02  0.36231051136E+02  0.68283238376E+02  0.00000000000E+00 0.  1.
         22    1    3    3    0    0  0.13609461906E+03 -0.43843343169E+02  0.25060080610E+03  0.28852165967E+03  0.00000000000E+00 0.  1.
</event>
<event>
 7    1  0.4915160E-006  0.1348100E+03  0.7818608E-02  0.1249795E+00
          2   -1    0    0  502    0  0.00000000000E+00  0.00000000000E+00  0.29545987434E+03  0.29545987434E+03  0.00000000000E+00 0. -1.
          1   -1    0    0  501    0 -0.00000000000E+00 -0.00000000000E+00 -0.11010225784E+04  0.11010225784E+04  0.00000000000E+00 0. -1.
         25    2    1    2    0    0  0.12643601312E+03  0.16171001250E+03 -0.40602491360E+03  0.47182474348E+03  0.12500465809E+03 0.  0.
          2    1    1    2  501    0 -0.10635974747E+03 -0.63883881595E+02 -0.64648460308E+03  0.65828252918E+03  0.00000000000E+00 0. -1.
          1    1    1    2  502    0 -0.20076265648E+02 -0.97826130902E+02  0.24694681259E+03  0.26637518010E+03  0.00000000000E+00 0. -1.
         22    1    3    3    0    0  0.10136805073E+03  0.12913394703E+03 -0.18640197194E+03  0.24838831117E+03  0.00000000000E+00 0. -1.
         22    1    3    3    0    0  0.25067962388E+02  0.32576065467E+02 -0.21962294166E+03  0.22343643231E+03  0.00000000000E+00 0. -1.
</event>
<event>
 7    1  0.4915160E-006  0.1032759E+03  0.7818608E-02  0.1342218E+00
          2   -1    0    0  502    0  0.00000000000E+00  0.00000000000E+00  0.14204344305E+04  0.14204344305E+04  0.00000000000E+00 0. -1.
          1   -1    0    0  501    0 -0.00000000000E+00 -0.00000000000E+00 -0.58180092544E+03  0.58180092544E+03  0.00000000000E+00 0. -1.
         25    2    1    2    0    0  0.34652829042E+02 -0.14348229512E+03  0.43752794458E+03  0.47837611609E+03  0.12500007436E+03 0.  0.
          2    1    1    2  501    0  0.27638743023E+01  0.10283383501E+03 -0.55586069835E+03  0.56529952467E+03  0.00000000000E+00 0. -1.
          1    1    1    2  502    0 -0.37416703344E+02  0.40648460114E+02  0.95696625882E+03  0.95855971516E+03  0.00000000000E+00 0. -1.
         22    1    3    3    0    0  0.50602276886E+01 -0.12946078625E+03  0.42328017524E+03  0.44266444158E+03  0.00000000000E+00 0.  1.
         22    1    3    3    0    0  0.29592601353E+02 -0.14021508873E+02  0.14247769333E+02  0.35711674518E+02  0.00000000000E+00 0.  1.
</event>
<event>
 7    1  0.4915160E-006  0.3488915E+02  0.7818608E-02  0.1589808E+00
          2   -1    0    0  502    0  0.00000000000E+00  0.00000000000E+00  0.18459054983E+03  0.18459054983E+03  0.00000000000E+00 0. -1.
          1   -1    0    0  501    0 -0.00000000000E+00 -0.00000000000E+00 -0.28158465731E+03  0.28158465731E+03  0.00000000000E+00 0. -1.
         25    2    1    2    0    0  0.13259013786E+01  0.15418932440E+02  0.88044096152E+02  0.15367591390E+03  0.12500008861E+03 0.  0.
          2    1    1    2  501    0 -0.19370231186E+02  0.18987378875E+02 -0.24201890537E+03  0.24353413923E+03  0.00000000000E+00 0. -1.
          1    1    1    2  502    0  0.18044329808E+02 -0.34406311315E+02  0.56980701740E+02  0.68965154007E+02  0.00000000000E+00 0. -1.
         22    1    3    3    0    0  0.29713607690E+01  0.21182240889E+02 -0.29245766550E+02  0.36233012226E+02  0.00000000000E+00 0. -1.
         22    1    3    3    0    0 -0.16454593903E+01 -0.57633084494E+01  0.11728986270E+03  0.11744290167E+03  0.00000000000E+00 0. -1.
</event>
<event>
 7    1  0.4915160E-006  0.7410492E+02  0.7818608E-02  0.1362877E+00
          2   -1    0    0  502    0  0.00000000000E+00  0.00000000000E+00  0.36830971793E+03  0.36830971793E+03  0.00000000000E+00 0. -1.
          1   -1    0    0  501    0 -0.00000000000E+00 -0.00000000000E+00 -0.19925742130E+04  0.19925742130E+04  0.00000000000E+00 0. -1.
         25    2    1    2    0    0 -0.63357716612E+02 -0.22248798258E+02 -0.52452026836E+03  0.54337506293E+03  0.12500295126E+03 0.  0.
          2    1    1    2  501    0  0.42092706113E+02 -0.48999920248E+02 -0.14540504994E+04  0.14554846763E+04  0.00000000000E+00 0. -1.
          1    1    1    2  502    0  0.21265010499E+02  0.71248718506E+02  0.35430627266E+03  0.36202419174E+03  0.00000000000E+00 0. -1.
         22    1    3    3    0    0 -0.10101780722E+03 -0.19615215824E+02 -0.34977319977E+03  0.36459655147E+03  0.00000000000E+00 0.  1.
         22    1    3    3    0    0  0.37660090609E+02 -0.26335824343E+01 -0.17474706859E+03  0.17877851147E+03  0.00000000000E+00 0.  1.
</event>
<event>
 7    1  0.4915160E-006  0.8878767E+02  0.7818608E-02  0.1342805E+00
          2   -1    0    0  502    0  0.00000000000E+00  0.00000000000E+00  0.78467390009E+02  0.78467390009E+02  0.00000000000E+00 0. -1.
          1   -1    0    0  501    0 -0.00000000000E+00 -0.00000000000E+00 -0.87821153633E+03  0.87821153633E+03  0.00000000000E+00 0. -1.
         25    2    1    2    0    0 -0.26524110544E+02  0.89803643204E+01 -0.59696425825E+03  0.61055318677E+03  0.12499877145E+03 0.  0.
          2    1    1    2  501    0 -0.60458868774E+02  0.20804343053E+02 -0.23892695048E+03  0.24733415286E+03  0.00000000000E+00 0. -1.
          1    1    1    2  502    0  0.86982979318E+02 -0.29784707374E+02  0.36147062409E+02  0.98791586712E+02  0.00000000000E+00 0. -1.
         22    1    3    3    0    0  0.44413049123E+01 -0.55791714289E+02 -0.28361803234E+03  0.28908757988E+03  0.00000000000E+00 0. -1.
         22    1    3    3    0    0 -0.30965415456E+02  0.64772078609E+02 -0.31334622591E+03  0.32146560689E+03  0.00000000000E+00 0. -1.
</event>
<event>
 7    1  0.4915160E-006  0.2424245E+03  0.7818608E-02  0.1169500E+00
          2   -1    0    0  502    0  0.00000000000E+00  0.00000000000E+00  0.13980231662E+04  0.13980231662E+04  0.00000000000E+00 0. -1.
          1   -1    0    0  501    0 -0.00000000000E+00 -0.00000000000E+00 -0.43740779425E+03  0.43740779425E+03  0.00000000000E+00 0. -1.
         25    2    1    2    0    0 -0.11513125082E+03 -0.10948696908E+03 -0.26285040835E+01  0.20217039910E+03  0.12499343952E+03 0.  0.
          2    1    1    2  501    0 -0.12719410485E+03  0.31656859573E+02 -0.30908256746E+03  0.33572686901E+03  0.00000000000E+00 0. -1.
          1    1    1    2  502    0  0.24232535567E+03  0.77830109506E+02  0.12723264435E+04  0.12975336924E+04  0.00000000000E+00 0. -1.
         22    1    3    3    0    0 -0.13181378824E+03 -0.10629866855E+03 -0.28004568213E+02  0.17163489606E+03  0.00000000000E+00 0. -1.
         22    1    3    3    0    0  0.16682537419E+02 -0.31883005313E+01  0.25376064130E+02  0.30535503037E+02  0.00000000000E+00 0. -1.
</event>
<event>
 7    1  0.4915160E-006  0.6508548E+02  0.7818608E-02  0.1463895E+00
          2   -1    0    0  502    0  0.00000000000E+00  0.00000000000E+00  0.32589569353E+03  0.32589569353E+03  0.00000000000E+00 0. -1.
          1   -1    0    0  501    0 -0.00000000000E+00 -0.00000000000E+00 -0.42689270588E+03  0.42689270588E+03  0.00000000000E+00 0. -1.
         25    2    1    2    0    0 -0.68660010607E+02 -0.25919683863E+01 -0.68195765033E+02  0.15809832192E+03  0.12499400653E+03 0.  0.
          2    1    1    2  501    0  0.10367824513E+02  0.31890369670E+02 -0.30903883184E+03  0.31085283825E+03  0.00000000000E+00 0. -1.
          1    1    1    2  502    0  0.58292186094E+02 -0.29298401283E+02  0.27623758452E+03  0.28383723924E+03  0.00000000000E+00 0. -1.
         22    1    3    3    0    0 -0.38447330297E+02  0.61008349439E+02 -0.31405511570E+02  0.78654447206E+02  0.00000000000E+00 0. -1.
         22    1    3    3    0    0 -0.30212680310E+02 -0.63600317825E+02 -0.36790253463E+02  0.79443874709E+02  0.00000000000E+00 0. -1.
</event>
<event>
 7    1  0.4915160E-006  0.6004023E+02  0.7818608E-02  0.1442869E+00
          2   -1    0    0  502    0  0.00000000000E+00  0.00000000000E+00  0.25175640349E+03  0.25175640349E+03  0.00000000000E+00 0. -1.
          1   -1    0    0  501    0 -0.00000000000E+00 -0.00000000000E+00 -0.18035212414E+04  0.18035212414E+04  0.00000000000E+00 0. -1.
         25    2    1    2    0    0 -0.18025417317E+02 -0.15118132233E+02 -0.23133877675E+03  0.26399973742E+03  0.12499903255E+03 0.  0.
          2    1    1    2  501    0  0.60322424531E+02  0.12016156597E+02 -0.15533283835E+04  0.15545456731E+04  0.00000000000E+00 0. -1.
          1    1    1    2  502    0 -0.42297007214E+02  0.31019756358E+01  0.23290232228E+03  0.23673223438E+03  0.00000000000E+00 0. -1.
         22    1    3    3    0    0 -0.69158928385E+02 -0.27637527529E+02 -0.13110502426E+03  0.15078235205E+03  0.00000000000E+00 0. -1.
         22    1    3    3    0    0  0.51133511068E+02  0.12519395296E+02 -0.10023375249E+03  0.11321738537E+03  0.00000000000E+00 0. -1.
</event>
<event>
 7    1  0.4915160E-006  0.4624628E+02  0.7818608E-02  0.1543690E+00
          2   -1    0    0  502    0  0.00000000000E+00  0.00000000000E+00  0.38766642193E+04  0.38766642193E+04  0.00000000000E+00 0. -1.
          1   -1    0    0  501    0 -0.00000000000E+00 -0.00000000000E+00 -0.81693922360E+01  0.81693922360E+01  0.00000000000E+00 0. -1.
         25    2    1    2    0    0  0.45503366310E+01  0.63270232656E+02  0.18357800808E+04  0.18411241813E+04  0.12500367225E+03 0.  0.
          2    1    1    2  501    0  0.15105679311E+02 -0.22790279622E+02  0.30391458297E+02  0.40880547087E+02  0.00000000000E+00 0. -1.
          1    1    1    2  502    0 -0.19656015942E+02 -0.40479953034E+02  0.20023232880E+04  0.20028288831E+04  0.00000000000E+00 0. -1.
         22    1    3    3    0    0  0.32727241743E+02  0.87437157256E+02  0.95253951843E+03  0.95710389352E+03  0.00000000000E+00 0.  1.
         22    1    3    3    0    0 -0.28176905112E+02 -0.24166924600E+02  0.88324056235E+03  0.88402028778E+03  0.00000000000E+00 0.  1.
</event>
<event>
 7    1  0.5938761E-006  0.5838684E+02  0.7818608E-02  0.1430965E+00
          2   -1    0    0  502    0  0.00000000000E+00  0.00000000000E+00  0.24654105911E+04  0.24654105911E+04  0.00000000000E+00 0. -1.
          1   -1    0    0  501    0 -0.00000000000E+00 -0.00000000000E+00 -0.50056567924E+03  0.50056567924E+03  0.00000000000E+00 0. -1.
         25    2    1    2    0    0 -0.33223725491E+02  0.37219732481E+02 -0.18973602720E+03  0.23262393526E+03  0.12500004327E+03 0.  0.
          2    1    1    2  501    0  0.62110700552E+02  0.72302498931E+00 -0.28581692155E+03  0.29248858873E+03  0.00000000000E+00 0. -1.
          1    1    1    2  502    0 -0.28886975061E+02 -0.37942757470E+02  0.24403978606E+04  0.24408637463E+04  0.00000000000E+00 0. -1.
         22    1    3    3    0    0 -0.63411688839E+02  0.19823506985E+02 -0.37167804041E+02  0.76127914511E+02  0.00000000000E+00 0. -1.
         22    1    3    3    0    0  0.30187963348E+02  0.17396225496E+02 -0.15256822316E+03  0.15649602075E+03  0.00000000000E+00 0. -1.
</event>
<event>
 7    1  0.4915160E-006  0.1914722E+03  0.7818608E-02  0.1170689E+00
          2   -1    0    0  502    0  0.00000000000E+00  0.00000000000E+00  0.34876311329E+04  0.34876311329E+04  0.00000000000E+00 0. -1.
          1   -1    0    0  501    0 -0.00000000000E+00 -0.00000000000E+00 -0.34644374733E+03  0.34644374733E+03  0.00000000000E+00 0. -1.
         25    2    1    2    0    0  0.28523973583E+02  0.13506849936E+03 -0.48067187761E+02  0.19229543774E+03  0.12493984251E+03 0.  0.
          2    1    1    2  501    0  0.16251257218E+03 -0.14797686500E+03 -0.16950929046E+03  0.27756240423E+03  0.00000000000E+00 0. -1.
          1    1    1    2  502    0 -0.19103654576E+03  0.12908365638E+02  0.33587638638E+04  0.33642170382E+04  0.00000000000E+00 0. -1.
         22    1    3    3    0    0  0.18039947713E+02  0.13611129433E+03  0.57839349655E+01  0.13742335341E+03  0.00000000000E+00 0.  1.
         22    1    3    3    0    0  0.10484025871E+02 -0.10427949704E+01 -0.53851122726E+02  0.54872084330E+02  0.00000000000E+00 0.  1.
</event>
<event>
 7    1  0.4915160E-006  0.3900626E+02  0.7818608E-02  0.1546472E+00
          2   -1    0    0  502    0  0.00000000000E+00  0.00000000000E+00  0.58224049341E+03  0.58224049341E+03  0.00000000000E+00 0. -1.
          1   -1    0    0  501    0 -0.00000000000E+00 -0.00000000000E+00 -0.61560734210E+03  0.61560734210E+03  0.00000000000E+00 0. -1.
         25    2    1    2    0    0 -0.78036998575E+01 -0.12846651234E+02 -0.38329328477E+03  0.40344207126E+03  0.12500331409E+03 0.  0.
          2    1    1    2  501    0 -0.30905779331E+02  0.76522118080E+01 -0.22042803755E+03  0.22271561077E+03  0.00000000000E+00 0. -1.
          1    1    1    2  502    0  0.38709479189E+02  0.51944394259E+01  0.57035447364E+03  0.57169015348E+03  0.00000000000E+00 0. -1.
         22    1    3    3    0    0 -0.43175510277E+02  0.37399541948E+02 -0.25324883958E+03  0.25961091113E+03  0.00000000000E+00 0. -1.
         22    1    3    3    0    0  0.35371810420E+02 -0.50246193182E+02 -0.13004444519E+03  0.14383116014E+03  0.00000000000E+00 0. -1.
</event>
<event>
 7    1  0.4915160E-006  0.8681997E+02  0.7818608E-02  0.1442912E+00
          2   -1    0    0  502    0  0.00000000000E+00  0.00000000000E+00  0.37382509793E+02  0.37382509793E+02  0.00000000000E+00 0. -1.
          1   -1    0    0  501    0 -0.00000000000E+00 -0.00000000000E+00 -0.73709087127E+03  0.73709087127E+03  0.00000000000E+00 0. -1.
         25    2    1    2    0    0  0.16552453730E+02  0.74243265571E+02 -0.14891230181E+03  0.20877184385E+03  0.12499905178E+03 0.  0.
          2    1    1    2  501    0  0.84955408399E+01 -0.89482830483E+02 -0.29940039892E+03  0.31260190344E+03  0.00000000000E+00 0. -1.
          1    1    1    2  502    0 -0.25047994570E+02  0.15239564913E+02 -0.25139566075E+03  0.25309963377E+03  0.00000000000E+00 0. -1.
         22    1    3    3    0    0  0.34893899023E+02  0.19570952458E+02  0.86988293368E+01  0.40942349725E+02  0.00000000000E+00 0. -1.
         22    1    3    3    0    0 -0.18341445293E+02  0.54672313113E+02 -0.15761113115E+03  0.16782949412E+03  0.00000000000E+00 0. -1.
</event>
<event>
 7    1  0.4915160E-006  0.4472443E+02  0.7818608E-02  0.1530555E+00
          2   -1    0    0  502    0  0.00000000000E+00  0.00000000000E+00  0.14245776625E+04  0.14245776625E+04  0.00000000000E+00 0. -1.
          1   -1    0    0  501    0 -0.00000000000E+00 -0.00000000000E+00 -0.35903220550E+04  0.35903220550E+04  0.00000000000E+00 0. -1.
         25    2    1    2    0    0  0.32888926169E+02 -0.31195163459E+02 -0.34678411759E+03  0.37140218931E+03  0.12500216930E+03 0.  0.
          2    1    1    2  501    0 -0.51304658285E+01  0.44554604447E+02 -0.32309052571E+04  0.32312165224E+04  0.00000000000E+00 0. -1.
          1    1    1    2  502    0 -0.27758460340E+02 -0.13359440988E+02  0.14119449821E+04  0.14122810058E+04  0.00000000000E+00 0. -1.
         22    1    3    3    0    0  0.38364762834E+01 -0.41920051881E+02 -0.33597402103E+03  0.33860087435E+03  0.00000000000E+00 0. -1.
         22    1    3    3    0    0  0.29052449885E+02  0.10724888422E+02 -0.10810096555E+02  0.32801314966E+02  0.00000000000E+00 0. -1.
</event>
<event>
 7    1  0.4915160E-006  0.1058945E+03  0.7818608E-02  0.1433869E+00
          2   -1    0    0  502    0  0.00000000000E+00  0.00000000000E+00  0.99701885427E+02  0.99701885427E+02  0.00000000000E+00 0. -1.
          1   -1    0    0  501    0 -0.00000000000E+00 -0.00000000000E+00 -0.21731087862E+04  0.21731087862E+04  0.00000000000E+00 0. -1.
         25    2    1    2    0    0  0.10343867725E+02 -0.90344095361E+02 -0.17799530587E+03  0.23574675332E+03  0.12500060649E+03 0.  0.
          2    1    1    2  501    0  0.98451029159E+01  0.10628391711E+03 -0.19624030164E+04  0.19653037414E+04  0.00000000000E+00 0. -1.
          1    1    1    2  502    0 -0.20188970641E+02 -0.15939821751E+02  0.66991421448E+02  0.71760176983E+02  0.00000000000E+00 0. -1.
         22    1    3    3    0    0  0.56626486376E+02 -0.75267365084E+02 -0.70205448494E+02  0.11747570048E+03  0.00000000000E+00 0.  1.
         22    1    3    3    0    0 -0.46282618651E+02 -0.15076730277E+02 -0.10778985738E+03  0.11827105283E+03  0.00000000000E+00 0.  1.
</event>
<event>
 7    1  0.4915160E-006  0.4059848E+02  0.7818608E-02  0.1556972E+00
          2   -1    0    0  502    0  0.00000000000E+00  0.00000000000E+00  0.11884110250E+03  0.11884110250E+03  0.00000000000E+00 0. -1.
          1   -1    0    0  501    0 -0.00000000000E+00 -0.00000000000E+00 -0.20723936262E+04  0.20723936262E+04  0.00000000000E+00 0. -1.
         25    2    1    2    0    0  0.67324396995E+02  0.14868997381E+02 -0.15228497369E+04  0.15295260974E+04  0.12500039977E+03 0.  0.
          2    1    1    2  501    0 -0.28357840167E+02 -0.37113901095E+01 -0.54226129637E+03  0.54301496761E+03  0.00000000000E+00 0. -1.
          1    1    1    2  502    0 -0.38966556829E+02 -0.11157607272E+02  0.11155850955E+03  0.11869366371E+03  0.00000000000E+00 0. -1.
         22    1    3    3    0    0  0.72121769365E+02 -0.41063821412E+02 -0.10691792214E+04  0.10723954469E+04  0.00000000000E+00 0.  1.
         22    1    3    3    0    0 -0.47973723698E+01  0.55932818793E+02 -0.45367051554E+03  0.45713065055E+03  0.00000000000E+00 0.  1.
</event>
<event>
 7    1  0.4915160E-006  0.7079007E+02  0.7818608E-02  0.1443819E+00
          2   -1    0    0  502    0  0.00000000000E+00  0.00000000000E+00  0.81611073165E+02  0.81611073165E+02  0.00000000000E+00 0. -1.
          1   -1    0    0  501    0 -0.00000000000E+00 -0.00000000000E+00 -0.29533816434E+03  0.29533816434E+03  0.00000000000E+00 0. -1.
         25    2    1    2    0    0  0.56210048568E+02 -0.30238777379E+01 -0.73629640502E+02  0.15561079895E+03  0.12499873356E+03 0.  0.
          2    1    1    2  501    0 -0.68219662487E+02 -0.30613738153E+02 -0.16270727392E+03  0.17906641310E+03  0.00000000000E+00 0. -1.
          1    1    1    2  502    0  0.12009613919E+02  0.33637615891E+02  0.22609823245E+02  0.42272025460E+02  0.00000000000E+00 0. -1.
         22    1    3    3    0    0  0.36901030404E+02  0.15092457175E+02 -0.10631640975E+03  0.11354579381E+03  0.00000000000E+00 0. -1.
         22    1    3    3    0    0  0.19309018164E+02 -0.18116334913E+02  0.32686769253E+02  0.42065005139E+02  0.00000000000E+00 0. -1.
</event>
<event>
 7    1  0.4915160E-006  0.1137285E+03  0.7818608E-02  0.1310449E+00
          2   -1    0    0  502    0  0.00000000000E+00  0.00000000000E+00  0.80532723652E+03  0.80532723652E+03  0.00000000000E+00 0. -1.
          1   -1    0    0  501    0 -0.00000000000E+00 -0.00000000000E+00 -0.97429703134E+03  0.97429703134E+03  0.00000000000E+00 0. -1.
         25    2    1    2    0    0  0.12959255366E+03  0.38950222204E+02 -0.73566697554E+02  0.19835972525E+03  0.12499268714E+03 0.  0.
          2    1    1    2  501    0 -0.78681769086E+02 -0.81660350294E+02 -0.83299846376E+03  0.84068167235E+03  0.00000000000E+00 0. -1.
          1    1    1    2  502    0 -0.50910784574E+02  0.42710128091E+02  0.73759536650E+03  0.74058287025E+03  0.00000000000E+00 0. -1.
         22    1    3    3    0    0  0.33864497586E+02  0.69884944032E+01  0.35642036555E+02  0.49658816141E+02  0.00000000000E+00 0.  1.
         22    1    3    3    0    0  0.95728056074E+02  0.31961727801E+02 -0.10920873411E+03  0.14870090911E+03  0.00000000000E+00 0.  1.
</event>
<event>
 7    1  0.4915160E-006  0.6385747E+02  0.7818608E-02  0.1510694E+00
          2   -1    0    0  502    0  0.00000000000E+00  0.00000000000E+00  0.87974797141E+03  0.87974797141E+03  0.00000000000E+00 0. -1.
          1   -1    0    0  501    0 -0.00000000000E+00 -0.00000000000E+00 -0.24227320681E+03  0.24227320681E+03  0.00000000000E+00 0. -1.
         25    2    1    2    0    0  0.71766222612E+02 -0.26205582322E+02  0.12689431611E+02  0.14704440461E+03  0.12499564792E+03 0.  0.
          2    1    1    2  501    0 -0.81496877835E+01  0.23250539626E+02 -0.17295370757E+03  0.17469971370E+03  0.00000000000E+00 0. -1.
          1    1    1    2  502    0 -0.63616534829E+02  0.29550426957E+01  0.79773904056E+03  0.80027705991E+03  0.00000000000E+00 0. -1.
         22    1    3    3    0    0  0.38150235877E+02 -0.76446628982E+02  0.82562724114E+00  0.85441261932E+02  0.00000000000E+00 0. -1.
         22    1    3    3    0    0  0.33615986735E+02  0.50241046660E+02  0.11863804370E+02  0.61603142678E+02  0.00000000000E+00 0. -1.
</event>
<event>
 7    1  0.4915160E-006  0.9295248E+02  0.7818608E-02  0.1392059E+00
          2   -1    0    0  502    0  0.00000000000E+00  0.00000000000E+00  0.13785777916E+04  0.13785777916E+04  0.00000000000E+00 0. -1.
          1   -1    0    0  501    0 -0.00000000000E+00 -0.00000000000E+00 -0.37868665505E+02  0.37868665505E+02  0.00000000000E+00 0. -1.
         25    2    1    2    0    0 -0.24035776816E+02  0.80253812299E+02  0.23267047707E+03  0.27708912356E+03  0.12499775414E+03 0.  0.
          2    1    1    2  501    0  0.64565652741E+02 -0.78837315500E+02  0.15524824998E+03  0.18570424053E+03  0.00000000000E+00 0. -1.
          1    1    1    2  502    0 -0.40529875925E+02 -0.14164967993E+01  0.95279039907E+03  0.95365309304E+03  0.00000000000E+00 0. -1.
         22    1    3    3    0    0  0.18477171223E+02  0.59824244747E+02  0.30793456569E+02  0.69775232593E+02  0.00000000000E+00 0. -1.
         22    1    3    3    0    0 -0.42512948039E+02  0.20429567553E+02  0.20187702050E+03  0.20731389096E+03  0.00000000000E+00 0. -1.
</event>
<event>
 7    1  0.4915160E-006  0.9489158E+02  0.7818608E-02  0.1366109E+00
          2   -1    0    0  502    0  0.00000000000E+00  0.00000000000E+00  0.38687832634E+03  0.38687832634E+03  0.00000000000E+00 0. -1.
          1   -1    0    0  501    0 -0.00000000000E+00 -0.00000000000E+00 -0.66641826465E+03  0.66641826465E+03  0.00000000000E+00 0. -1.
         25    2    1    2    0    0  0.89906944223E+02 -0.32801110659E+02 -0.97942559503E+02  0.18540677903E+03  0.12499502898E+03 0.  0.
          2    1    1    2  501    0 -0.28339076533E+02 -0.40101155221E+02 -0.51692379316E+03  0.51925081978E+03  0.00000000000E+00 0. -1.
          1    1    1    2  502    0 -0.61567867691E+02  0.72902265881E+02  0.33532641435E+03  0.34863899218E+03  0.00000000000E+00 0. -1.
         22    1    3    3    0    0  0.76800439369E+02 -0.71796879301E+02 -0.36155861340E+02  0.11117709150E+03  0.00000000000E+00 0.  1.
         22    1    3    3    0    0  0.13106504855E+02  0.38995768642E+02 -0.61786698163E+02  0.74229687534E+02  0.00000000000E+00 0.  1.
</event>
<event>
 7    1  0.7127882E-006  0.7181637E+02  0.7818608E-02  0.1424621E+00
          2   -1    0    0  502    0  0.00000000000E+00  0.00000000000E+00  0.64121499258E+03  0.64121499258E+03  0.00000000000E+00 0. -1.
          1   -1    0    0  501    0 -0.00000000000E+00 -0.00000000000E+00 -0.10692760574E+04  0.10692760574E+04  0.00000000000E+00 0. -1.
         25    2    1    2    0    0 -0.76697956373E+02 -0.31535827412E+02 -0.53590980871E+03  0.55651266555E+03  0.12501975413E+03 0.  0.
          2    1    1    2  501    0  0.32218875437E+02 -0.24846257546E+02 -0.52022434303E+03  0.52181295454E+03  0.00000000000E+00 0. -1.
          1    1    1    2  502    0  0.44479080936E+02  0.56382084958E+02  0.62807308695E+03  0.63216542985E+03  0.00000000000E+00 0. -1.
         22    1    3    3    0    0 -0.41946720949E+02 -0.60743584537E+02 -0.14243319096E+03  0.16042607128E+03  0.00000000000E+00 0. -1.
         22    1    3    3    0    0 -0.34751235423E+02  0.29207757125E+02 -0.39347661776E+03  0.39608659427E+03  0.00000000000E+00 0. -1.
</event>
<event>
 7    1  0.4915160E-006  0.1074384E+03  0.7818608E-02  0.1360227E+00
          2   -1    0    0  502    0  0.00000000000E+00  0.00000000000E+00  0.53709496348E+02  0.53709496348E+02  0.00000000000E+00 0. -1.
          1   -1    0    0  501    0 -0.00000000000E+00 -0.00000000000E+00 -0.13049753630E+04  0.13049753630E+04  0.00000000000E+00 0. -1.
         25    2    1    2    0    0 -0.51162930649E+02  0.40742587352E+02 -0.10921205126E+03  0.17841054736E+03  0.12500178948E+03 0.  0.
          2    1    1    2  501    0  0.90110768036E+02 -0.64374183085E+02 -0.11268045875E+04  0.11322334408E+04  0.00000000000E+00 0. -1.
          1    1    1    2  502    0 -0.38947837387E+02  0.23631595733E+02 -0.15249227854E+02  0.48040871185E+02  0.00000000000E+00 0. -1.
         22    1    3    3    0    0 -0.27162939269E+01  0.46280919376E+02 -0.11984763767E+03  0.12850197666E+03  0.00000000000E+00 0.  1.
         22    1    3    3    0    0 -0.48446636722E+02 -0.55383320244E+01  0.10635586411E+02  0.49908570702E+02  0.00000000000E+00 0.  1.
</event>
<event>
 7    1  0.4915160E-006  0.4541046E+02  0.7818608E-02  0.1492868E+00
          2   -1    0    0  502    0  0.00000000000E+00  0.00000000000E+00  0.16077144319E+04  0.16077144319E+04  0.00000000000E+00 0. -1.
          1   -1    0    0  501    0 -0.00000000000E+00 -0.00000000000E+00 -0.78122720386E+02  0.78122720386E+02  0.00000000000E+00 0. -1.
         25    2    1    2    0    0 -0.67722980666E+02  0.38661482987E+02  0.67159438325E+03  0.68756539006E+03  0.12500415039E+03 0.  0.
          2    1    1    2  501    0  0.28770139974E+02 -0.34749305240E+02 -0.62423348852E+02  0.77018891518E+02  0.00000000000E+00 0. -1.
          1    1    1    2  502    0  0.38952840692E+02 -0.39121777467E+01  0.92042067709E+03  0.92125287068E+03  0.00000000000E+00 0. -1.
         22    1    3    3    0    0 -0.37955700935E+02 -0.40636995400E+02  0.37547835645E+03  0.37957344057E+03  0.00000000000E+00 0.  1.
         22    1    3    3    0    0 -0.29767279731E+02  0.79298478387E+02  0.29611602681E+03  0.30799194949E+03  0.00000000000E+00 0.  1.
</event>
<event>
 7    1  0.4915160E-006  0.9936822E+02  0.7818608E-02  0.1387355E+00
          2   -1    0    0  502    0  0.00000000000E+00  0.00000000000E+00  0.34610473573E+03  0.34610473573E+03  0.00000000000E+00 0. -1.
          1   -1    0    0  501    0 -0.00000000000E+00 -0.00000000000E+00 -0.33285118865E+03  0.33285118865E+03  0.00000000000E+00 0. -1.
         25    2    1    2    0    0 -0.66423826535E+02 -0.77094464138E+02 -0.22476572890E+02  0.16274032111E+03  0.12499413848E+03 0.  0.
          2    1    1    2  501    0 -0.22728998814E+02  0.32180984643E+02 -0.22948119772E+03  0.23283866360E+03  0.00000000000E+00 0. -1.
          1    1    1    2  502    0  0.89152825349E+02  0.44913479495E+02  0.26521131768E+03  0.28337693967E+03  0.00000000000E+00 0. -1.
         22    1    3    3    0    0 -0.70159762226E+02  0.35653270578E+01 -0.38957520391E+02  0.80329273542E+02  0.00000000000E+00 0. -1.
         22    1    3    3    0    0  0.37359356916E+01 -0.80659791196E+02  0.16480947501E+02  0.82411047571E+02  0.00000000000E+00 0. -1.
</event>
<event>
 7    1  0.4915160E-006  0.1753483E+03  0.7818608E-02  0.1262780E+00
          2   -1    0    0  502    0  0.00000000000E+00  0.00000000000E+00  0.79757376772E+02  0.79757376772E+02  0.00000000000E+00 0. -1.
          1   -1    0    0  501    0 -0.00000000000E+00 -0.00000000000E+00 -0.10342297937E+04  0.10342297937E+04  0.00000000000E+00 0. -1.
         25    2    1    2    0    0 -0.42779395361E+02 -0.15751671137E+03 -0.47450478794E+03  0.51712815112E+03  0.12500055951E+03 0.  0.
          2    1    1    2  501    0 -0.16619349247E+02  0.18963698705E+03 -0.49265107578E+03  0.52815099365E+03  0.00000000000E+00 0. -1.
          1    1    1    2  502    0  0.59398744608E+02 -0.32120275677E+02  0.12683446807E+02  0.68708025685E+02  0.00000000000E+00 0. -1.
         22    1    3    3    0    0 -0.34140757533E+01 -0.11358908322E+03 -0.42558650670E+03  0.44049745791E+03  0.00000000000E+00 0. -1.
         22    1    3    3    0    0 -0.39365319607E+02 -0.43927628153E+02 -0.48918281239E+02  0.76630693213E+02  0.00000000000E+00 0. -1.
</event>
<event>
 7    1  0.4915160E-006  0.2314478E+02  0.7818608E-02  0.1690569E+00
          2   -1    0    0  502    0  0.00000000000E+00  0.00000000000E+00  0.14221142270E+04  0.14221142270E+04  0.00000000000E+00 0. -1.
          1   -1    0    0  501    0 -0.00000000000E+00 -0.00000000000E+00 -0.40941713540E+02  0.40941713540E+02  0.00000000000E+00 0. -1.
         25    2    1    2    0    0  0.39158504662E+02 -0.13760569851E+02  0.13834871918E+03  0.19101891997E+03  0.12500047167E+03 0.  0.
          2    1    1    2  501    0 -0.22828873094E+02 -0.25594391807E+01 -0.54013728919E+01  0.23598368689E+02  0.00000000000E+00 0. -1.
          1    1    1    2  502    0 -0.16329631567E+02  0.16320009032E+02  0.12482251672E+04  0.12484386519E+04  0.00000000000E+00 0. -1.
         22    1    3    3    0    0  0.35113667839E+01 -0.64979284134E+02  0.46513579233E+02  0.79988437391E+02  0.00000000000E+00 0. -1.
         22    1    3    3    0    0  0.35647137878E+02  0.51218714283E+02  0.91835139952E+02  0.11103048258E+03  0.00000000000E+00 0. -1.
</event>
<event>
 7    1  0.4915160E-006  0.3934255E+02  0.7818608E-02  0.1580583E+00
          2   -1    0    0  502    0  0.00000000000E+00  0.00000000000E+00  0.85451070782E+03  0.85451070782E+03  0.00000000000E+00 0. -1.
          1   -1    0    0  501    0 -0.00000000000E+00 -0.00000000000E+00 -0.57226239557E+03  0.57226239557E+03  0.00000000000E+00 0. -1.
         25    2    1    2    0    0  0.62291915907E+02 -0.80161592054E+01  0.98926620437E+02  0.17133427317E+03  0.12499766132E+03 0.  0.
          2    1    1    2  501    0 -0.37216247043E+02  0.12388677291E+02 -0.53511536182E+03  0.53655100301E+03  0.00000000000E+00 0. -1.
          1    1    1    2  502    0 -0.25075668865E+02 -0.43725180859E+01  0.71843705363E+03  0.71888782721E+03  0.00000000000E+00 0. -1.
         22    1    3    3    0    0 -0.71281444617E+01 -0.32889248714E+02 -0.14011716836E+02  0.36453276027E+02  0.00000000000E+00 0. -1.
         22    1    3    3    0    0  0.69420060369E+02  0.24873089508E+02  0.11293833727E+03  0.13488099714E+03  0.00000000000E+00 0. -1.
</event>
<event>
 7    1  0.4915160E-006  0.6422818E+02  0.7818608E-02  0.1418484E+00
          2   -1    0    0  502    0  0.00000000000E+00  0.00000000000E+00  0.48219155950E+02  0.48219155950E+02  0.00000000000E+00 0. -1.
          1   -1    0    0  501    0 -0.00000000000E+00 -0.00000000000E+00 -0.16000970899E+04  0.16000970899E+04  0.00000000000E+00 0. -1.
         25    2    1    2    0    0 -0.63642301999E+02  0.69937963449E+02 -0.13197832629E+04  0.13290576342E+04  0.12499869132E+03 0.  0.
          2    1    1    2  501    0  0.40834352811E+02 -0.28059223592E+02 -0.25954753484E+03  0.26423415230E+03  0.00000000000E+00 0. -1.
          1    1    1    2  502    0  0.22807949188E+02 -0.41878739857E+02  0.27452863738E+02  0.55024459340E+02  0.00000000000E+00 0. -1.
         22    1    3    3    0    0 -0.13432673340E+02  0.78882398577E+02 -0.11204454158E+04  0.11232990694E+04  0.00000000000E+00 0.  1.
         22    1    3    3    0    0 -0.50209628659E+02 -0.89444351276E+01 -0.19933784702E+03  0.20575856479E+03  0.00000000000E+00 0.  1.
</event>
<event>
 7    1  0.4915160E-006  0.1012787E+03  0.7818608E-02  0.1375261E+00
          2   -1    0    0  502    0  0.00000000000E+00  0.00000000000E+00  0.64173421429E+03  0.64173421429E+03  0.00000000000E+00 0. -1.
          1   -1    0    0  501    0 -0.00000000000E+00 -0.00000000000E+00 -0.83120579770E+02  0.83120579770E+02  0.00000000000E+00 0. -1.
         25    2    1    2    0    0  0.57596257054E+02 -0.86414615355E+02  0.13028550084E+03  0.20828894268E+03  0.12500062935E+03 0.  0.
          2    1    1    2  501    0  0.28532309476E+02  0.31705825892E+02 -0.26644543264E+02  0.50291985100E+02  0.00000000000E+00 0. -1.
          1    1    1    2  502    0 -0.86128566530E+02  0.54708789463E+02  0.45497267694E+03  0.46627386628E+03  0.00000000000E+00 0. -1.
         22    1    3    3    0    0  0.60504596786E+02  0.10871008519E+02  0.72675671713E+02  0.95187910563E+02  0.00000000000E+00 0.  1.
         22    1    3    3    0    0 -0.29083397326E+01 -0.97285623874E+02  0.57609829132E+02  0.11310103211E+03  0.00000000000E+00 0.  1.
</event>
<event>
 7    1  0.4915160E-006  0.4168908E+02  0.7818608E-02  0.1606773E+00
          2   -1    0    0  502    0  0.00000000000E+00  0.00000000000E+00  0.24446864343E+04  0.24446864343E+04  0.00000000000E+00 0. -1.
          1   -1    0    0  501    0 -0.00000000000E+00 -0.00000000000E+00 -0.14000528409E+02  0.14000528409E+02  0.00000000000E+00 0. -1.
         25    2    1    2    0    0  0.25838446208E+02  0.21423164620E+02  0.12006109797E+04  0.12075671837E+04  0.12500080496E+03 0.  0.
          2    1    1    2  501    0 -0.93491102641E+01  0.18235843196E+02  0.19857493305E+00  0.20493688585E+02  0.00000000000E+00 0. -1.
          1    1    1    2  502    0 -0.16489335944E+02 -0.39659007816E+02  0.12298763513E+04  0.12306260905E+04  0.00000000000E+00 0. -1.
         22    1    3    3    0    0 -0.65587940466E+01 -0.44142232223E+02  0.23562071057E+03  0.23980966139E+03  0.00000000000E+00 0. -1.
         22    1    3    3    0    0  0.32397240255E+02  0.65565396843E+02  0.96499026910E+03  0.96775752226E+03  0.00000000000E+00 0. -1.
</event>
<event>
 7    1  0.4915160E-006  0.7175830E+03  0.7818608E-02  0.1169557E+00
          2   -1    0    0  502    0  0.00000000000E+00  0.00000000000E+00  0.11725902917E+04  0.11725902917E+04  0.00000000000E+00 0. -1.
          1   -1    0    0  501    0 -0.00000000000E+00 -0.00000000000E+00 -0.16462013980E+04  0.16462013980E+04  0.00000000000E+00 0. -1.
         25    2    1    2    0    0  0.72622997750E+03  0.82511040345E+02 -0.40258666425E+03  0.84375267661E+03  0.12499802021E+03 0.  0.
          2    1    1    2  501    0 -0.70929475337E+03 -0.41626818758E+02 -0.89900294545E+03  0.11458787611E+04  0.00000000000E+00 0. -1.
          1    1    1    2  502    0 -0.16935224130E+02 -0.40884221587E+02  0.82797850344E+03  0.82916025203E+03  0.00000000000E+00 0. -1.
         22    1    3    3    0    0  0.74478946886E+02 -0.26889232125E+02 -0.60111763129E+02  0.99416137523E+02  0.00000000000E+00 0. -1.
         22    1    3    3    0    0  0.65175103061E+03  0.10940027247E+03 -0.34247490113E+03  0.74433653909E+03  0.00000000000E+00 0. -1.
</event>
<event>
 7    1  0.4915160E-006  0.1143390E+03  0.7818608E-02  0.1300674E+00
          2   -1    0    0  502    0  0.00000000000E+00  0.00000000000E+00  0.31113032173E+03  0.31113032173E+03  0.00000000000E+00 0. -1.
          1   -1    0    0  501    0 -0.00000000000E+00 -0.00000000000E+00 -0.28964377017E+03  0.28964377017E+03  0.00000000000E+00 0. -1.
         25    2    1    2    0    0 -0.43690308705E+02  0.11257528401E+03 -0.60860883364E+02  0.18414979894E+03  0.12500025473E+03 0.  0.
          2    1    1    2  501    0  0.98243820961E+02 -0.65167023921E+02 -0.13988285948E+03  0.18293661126E+03  0.00000000000E+00 0. -1.
          1    1    1    2  502    0 -0.54553512256E+02 -0.47408260084E+02  0.22223029440E+03  0.23368768169E+03  0.00000000000E+00 0. -1.
         22    1    3    3    0    0 -0.21290821427E+02 -0.24276359252E+02  0.99875838339E+00  0.32305389858E+02  0.00000000000E+00 0. -1.
         22    1    3    3    0    0 -0.22399487278E+02  0.13685164326E+03 -0.61859641747E+02  0.15184440908E+03  0.00000000000E+00 0. -1.
</event>
<event>
 7    1  0.4915160E-006  0.1293137E+03  0.7818608E-02  0.1373092E+00
          2   -1    0    0  502    0  0.00000000000E+00  0.00000000000E+00  0.28997115256E+04  0.28997115256E+04  0.00000000000E+00 0. -1.
          1   -1    0    0  501    0 -0.00000000000E+00 -0.00000000000E+00 -0.63602303372E+03  0.63602303372E+03  0.00000000000E+00 0. -1.
         25    2    1    2    0    0 -0.14598456661E+03 -0.60912165620E+02  0.13397195598E+04  0.13548045527E+04  0.12500036653E+03 0.  0.
          2    1    1    2  501    0  0.12446275588E+03  0.34580776173E+02 -0.62165376004E+03  0.63493322882E+03  0.00000000000E+00 0. -1.
          1    1    1    2  502    0  0.21521810725E+02  0.26331389448E+02  0.15456226921E+04  0.15459967777E+04  0.00000000000E+00 0. -1.
         22    1    3    3    0    0 -0.98474014502E+02 -0.27148989542E+02  0.11862469250E+04  0.11906367902E+04  0.00000000000E+00 0. -1.
         22    1    3    3    0    0 -0.47510552104E+02 -0.33763176079E+02  0.15347263482E+03  0.16416776254E+03  0.00000000000E+00 0. -1.
</event>
<event>
 7    1  0.4915160E-006  0.6628059E+02  0.7818608E-02  0.1422634E+00
          2   -1    0    0  502    0  0.00000000000E+00  0.00000000000E+00  0.95451496799E+03  0.95451496799E+03  0.00000000000E+00 0. -1.
          1   -1    0    0  501    0 -0.00000000000E+00 -0.00000000000E+00 -0.16805163833E+03  0.16805163833E+03  0.00000000000E+00 0. -1.
         25    2    1    2    0    0 -0.51372025463E+02 -0.83560135146E+02  0.53354684096E+03  0.55670076784E+03  0.12498852840E+03 0.  0.
          2    1    1    2  501    0  0.53315889245E+02  0.38842618209E+02 -0.14822206161E+03  0.16223782722E+03  0.00000000000E+00 0. -1.
          1    1    1    2  502    0 -0.19438637816E+01  0.44717516937E+02  0.40113855030E+03  0.40362801125E+03  0.00000000000E+00 0. -1.
         22    1    3    3    0    0 -0.89497654279E+02 -0.63881471886E+02  0.44389791835E+03  0.45731393428E+03  0.00000000000E+00 0.  1.
         22    1    3    3    0    0  0.38125628815E+02 -0.19678663260E+02  0.89648922616E+02  0.99386833567E+02  0.00000000000E+00 0.  1.
</event>
<event>
 7    1  0.4915160E-006  0.1994235E+03  0.7818608E-02  0.1211233E+00
          2   -1    0    0  502    0  0.00000000000E+00  0.00000000000E+00  0.13770419043E+04  0.13770419043E+04  0.00000000000E+00 0. -1.
          1   -1    0    0  501    0 -0.00000000000E+00 -0.00000000000E+00 -0.95844572361E+02  0.95844572361E+02  0.00000000000E+00 0. -1.
         25    2    1    2    0    0  0.11781608408E+03 -0.18242257703E+03  0.45763834139E+03  0.52174361732E+03  0.12499969773E+03 0.  0.
          2    1    1    2  501    0 -0.17343528047E+03  0.98718123899E+02  0.10482779980E+03  0.22541945814E+03  0.00000000000E+00 0. -1.
          1    1    1    2  502    0  0.55619196391E+02  0.83704453134E+02  0.71873119074E+03  0.72572340119E+03  0.00000000000E+00 0. -1.
         22    1    3    3    0    0  0.13142548805E+03 -0.11383178007E+03  0.37597792538E+03  0.41423391150E+03  0.00000000000E+00 0. -1.
         22    1    3    3    0    0 -0.13609403967E+02 -0.68590796964E+02  0.81660416003E+02  0.10750970582E+03  0.00000000000E+00 0. -1.
</event>
<event>
 7    1  0.4915160E-006  0.8238934E+02  0.7818608E-02  0.1396066E+00
          2   -1    0    0  502    0  0.00000000000E+00  0.00000000000E+00  0.21326240481E+03  0.21326240481E+03  0.00000000000E+00 0. -1.
          1   -1    0    0  501    0 -0.00000000000E+00 -0.00000000000E+00 -0.18444318844E+04  0.18444318844E+04  0.00000000000E+00 0. -1.
         25    2    1    2    0    0  0.73937515813E+01 -0.84560763778E+02 -0.13939441497E+03  0.20557338167E+03  0.12499768794E+03 0.  0.
          2    1    1    2  501    0 -0.43209471701E+02  0.98271138613E+01 -0.16621074683E+04  0.16626980685E+04  0.00000000000E+00 0. -1.
          1    1    1    2  502    0  0.35815720120E+02  0.74733649917E+02  0.17033240367E+03  0.18942283911E+03  0.00000000000E+00 0. -1.
         22    1    3    3    0    0  0.20953156781E+02 -0.93671295529E+02 -0.38588629585E+02  0.10345254332E+03  0.00000000000E+00 0. -1.
         22    1    3    3    0    0 -0.13559405200E+02  0.91105317512E+01 -0.10080578539E+03  0.10212083835E+03  0.00000000000E+00 0. -1.
</event>
<event>
 7    1  0.4915160E-006  0.1764537E+03  0.7818608E-02  0.1205684E+00
          2   -1    0    0  502    0  0.00000000000E+00  0.00000000000E+00  0.13107086988E+04  0.13107086988E+04  0.00000000000E+00 0. -1.
          1   -1    0    0  501    0 -0.00000000000E+00 -0.00000000000E+00 -0.97287134345E+03  0.97287134345E+03  0.00000000000E+00 0. -1.
         25    2    1    2    0    0 -0.12668046571E+03 -0.69802544628E+02 -0.47016310097E+02  0.19686387177E+03  0.12499805984E+03 0.  0.
          2    1    1    2  501    0  0.64878475945E+02  0.17328533886E+03 -0.83787414696E+03  0.85806183428E+03  0.00000000000E+00 0. -1.
          1    1    1    2  502    0  0.61801989763E+02 -0.10348279423E+03  0.12227278124E+04  0.12286543362E+04  0.00000000000E+00 0. -1.
         22    1    3    3    0    0 -0.73438015670E+02 -0.57712986467E+02 -0.88208161540E+02  0.12847027172E+03  0.00000000000E+00 0. -1.
         22    1    3    3    0    0 -0.53242450039E+02 -0.12089558162E+02  0.41191851443E+02  0.68393600052E+02  0.00000000000E+00 0. -1.
</event>
<event>
 7    1  0.4915160E-006  0.9232504E+02  0.7818608E-02  0.1297560E+00
          2   -1    0    0  502    0  0.00000000000E+00  0.00000000000E+00  0.95978712758E+03  0.95978712758E+03  0.00000000000E+00 0. -1.
          1   -1    0    0  501    0 -0.00000000000E+00 -0.00000000000E+00 -0.87337227654E+02  0.87337227654E+02  0.00000000000E+00 0. -1.
         25    2    1    2    0    0 -0.13559123574E+02 -0.25590596227E+02  0.11431228571E+03  0.17185308161E+03  0.12500981780E+03 0.  0.
          2    1    1    2  501    0  0.62054326499E+02  0.10415348850E+03  0.10210500116E+02  0.12166734532E+03  0.00000000000E+00 0. -1.
          1    1    1    2  502    0 -0.48495202925E+02 -0.78562892276E+02  0.74792711411E+03  0.75360392831E+03  0.00000000000E+00 0. -1.
         22    1    3    3    0    0 -0.48910713389E+02 -0.58402238750E+02  0.48678334440E+02  0.90402763337E+02  0.00000000000E+00 0. -1.
         22    1    3    3    0    0  0.35351589814E+02  0.32811642523E+02  0.65633951266E+02  0.81450318270E+02  0.00000000000E+00 0. -1.
</event>
<event>
 7    1  0.4915160E-006  0.9312576E+02  0.7818608E-02  0.1330530E+00
          2   -1    0    0  502    0  0.00000000000E+00  0.00000000000E+00  0.59649296090E+03  0.59649296090E+03  0.00000000000E+00 0. -1.
          1   -1    0    0  501    0 -0.00000000000E+00 -0.00000000000E+00 -0.58733849652E+03  0.58733849652E+03  0.00000000000E+00 0. -1.
         25    2    1    2    0    0 -0.15111270560E+03  0.36198904278E+02 -0.63547672607E+02  0.20930502316E+03  0.12499950224E+03 0.  0.
          2    1    1    2  501    0  0.83394146513E+02 -0.32208661836E+02 -0.44424331586E+03  0.45314909826E+03  0.00000000000E+00 0. -1.
          1    1    1    2  502    0  0.67718559084E+02 -0.39902424413E+01  0.51694545285E+03  0.52137733601E+03  0.00000000000E+00 0. -1.
         22    1    3    3    0    0  0.16307639640E+02  0.16950583760E+02  0.98387569212E+01  0.25496324013E+02  0.00000000000E+00 0.  1.
         22    1    3    3    0    0 -0.16742034524E+03  0.19248320518E+02 -0.73386429528E+02  0.18380869914E+03  0.00000000000E+00 0.  1.
</event>
<event>
 7    1  0.4915160E-006  0.3136397E+02  0.7818608E-02  0.1625559E+00
          2   -1    0    0  502    0  0.00000000000E+00  0.00000000000E+00  0.49484654090E+02  0.49484654090E+02  0.00000000000E+00 0. -1.
          1   -1    0    0  501    0 -0.00000000000E+00 -0.00000000000E+00 -0.15540356945E+04  0.15540356945E+04  0.00000000000E+00 0. -1.
         25    2    1    2    0    0 -0.11860555323E+02 -0.33800927280E+02 -0.47876674833E+03  0.49611185249E+03  0.12500478159E+03 0.  0.
          2    1    1    2  501    0 -0.15679820994E+02  0.18674489839E+02 -0.10603876631E+04  0.10606679920E+04  0.00000000000E+00 0. -1.
          1    1    1    2  502    0  0.27540376317E+02  0.15126437441E+02  0.34603370976E+02  0.46740504065E+02  0.00000000000E+00 0. -1.
         22    1    3    3    0    0  0.34977012531E+00  0.37656979367E+02 -0.58050491792E+02  0.69195592573E+02  0.00000000000E+00 0. -1.
         22    1    3    3    0    0 -0.12210325448E+02 -0.71457906647E+02 -0.42071625654E+03  0.42691625992E+03  0.00000000000E+00 0. -1.
</event>
<event>
 7    1  0.4915160E-006  0.1875569E+03  0.7818608E-02  0.1214347E+00
          2   -1    0    0  502    0  0.00000000000E+00  0.00000000000E+00  0.41887430345E+03  0.41887430345E+03  0.00000000000E+00 0. -1.
          1   -1    0    0  501    0 -0.00000000000E+00 -0.00000000000E+00 -0.47571363717E+03  0.47571363717E+03  0.00000000000E+00 0. -1.
         25    2    1    2    0    0 -0.10986783697E+03 -0.78529719348E+02 -0.10731575700E+03  0.21302287616E+03  0.12499686254E+03 0.  0.
          2    1    1    2  501    0  0.16015795672E+03  0.16885239460E+03 -0.26317507796E+03  0.35131584639E+03  0.00000000000E+00 0. -1.
          1    1    1    2  502    0 -0.50290119751E+02 -0.90322675256E+02  0.31365150124E+03  0.33024921808E+03  0.00000000000E+00 0. -1.
         22    1    3    3    0    0 -0.13631512081E+02  0.24167810418E+02  0.10309143067E+02  0.29600331296E+02  0.00000000000E+00 0.  1.
         22    1    3    3    0    0 -0.96236324887E+02 -0.10269752977E+03 -0.11762490006E+03  0.18342254486E+03  0.00000000000E+00 0.  1.
</event>
<event>
 7    1  0.4915160E-006  0.7498157E+02  0.7818608E-02  0.1394948E+00
          2   -1    0    0  502    0  0.00000000000E+00  0.00000000000E+00  0.20063417007E+04  0.20063417007E+04  0.00000000000E+00 0. -1.
          1   -1    0    0  501    0 -0.00000000000E+00 -0.00000000000E+00 -0.38522645019E+03  0.38522645019E+03  0.00000000000E+00 0. -1.
         25    2    1    2    0    0 -0.89631208364E+02 -0.67429212376E+02  0.95309228200E+02  0.19310857311E+03  0.12500647916E+03 0.  0.
          2    1    1    2  501    0  0.18401726358E+02  0.45550092588E+02 -0.33378267624E+03  0.33737858472E+03  0.00000000000E+00 0. -1.
          1    1    1    2  502    0  0.71229482006E+02  0.21879119788E+02  0.18595886985E+04  0.18610809930E+04  0.00000000000E+00 0. -1.
         22    1    3    3    0    0  0.35082294690E+01  0.10452387481E+02 -0.21795446314E+02  0.24425428514E+02  0.00000000000E+00 0. -1.
         22    1    3    3    0    0 -0.93139437833E+02 -0.77881599857E+02  0.11710467451E+03  0.16868314459E+03  0.00000000000E+00 0. -1.
</event>
<event>
 7    1  0.4915160E-006  0.8696015E+02  0.7818608E-02  0.1347706E+00
          2   -1    0    0  502    0  0.00000000000E+00  0.00000000000E+00  0.28617898584E+04  0.28617898584E+04  0.00000000000E+00 0. -1.
          1   -1    0    0  501    0 -0.00000000000E+00 -0.00000000000E+00 -0.61267758286E+02  0.61267758286E+02  0.00000000000E+00 0. -1.
         25    2    1    2    0    0 -0.84284643777E+02 -0.47145238972E+02  0.15474715477E+04  0.15555128174E+04  0.12500143741E+03 0.  0.
          2    1    1    2  501    0  0.85843242279E+02 -0.15424757026E+02 -0.22808818340E+02  0.90151137366E+02  0.00000000000E+00 0. -1.
          1    1    1    2  502    0 -0.15585985022E+01  0.62569995999E+02  0.12758593707E+04  0.12773936619E+04  0.00000000000E+00 0. -1.
         22    1    3    3    0    0 -0.10153660588E+03 -0.28126508887E+02  0.72250383616E+03  0.73014558556E+03  0.00000000000E+00 0. -1.
         22    1    3    3    0    0  0.17251962100E+02 -0.19018730085E+02  0.82496771158E+03  0.82536723187E+03  0.00000000000E+00 0. -1.
</event>
<event>
 7    1  0.4915160E-006  0.8485595E+02  0.7818608E-02  0.1399282E+00
          2   -1    0    0  502    0  0.00000000000E+00  0.00000000000E+00  0.65643909611E+03  0.65643909611E+03  0.00000000000E+00 0. -1.
          1   -1    0    0  501    0 -0.00000000000E+00 -0.00000000000E+00 -0.55220020144E+03  0.55220020144E+03  0.00000000000E+00 0. -1.
         25    2    1    2    0    0 -0.84288777734E+02  0.18322125470E+02  0.15213859659E+03  0.21496803287E+03  0.12499921701E+03 0.  0.
          2    1    1    2  501    0  0.81698710012E+02  0.23537332828E+02 -0.51637236818E+03  0.52332504992E+03  0.00000000000E+00 0. -1.
          1    1    1    2  502    0  0.25900677225E+01 -0.41859458297E+02  0.46847266626E+03  0.47034621476E+03  0.00000000000E+00 0. -1.
         22    1    3    3    0    0 -0.35454892118E+01 -0.40325001551E+02  0.10706165526E+02  0.41872404088E+02  0.00000000000E+00 0.  1.
         22    1    3    3    0    0 -0.80743288522E+02  0.58647127021E+02  0.14143243106E+03  0.17309562879E+03  0.00000000000E+00 0.  1.
</event>
<event>
 7    1  0.4915160E-006  0.5513400E+02  0.7818608E-02  0.1478025E+00
          2   -1    0    0  502    0  0.00000000000E+00  0.00000000000E+00  0.19085943450E+03  0.19085943450E+03  0.00000000000E+00 0. -1.
          1   -1    0    0  501    0 -0.00000000000E+00 -0.00000000000E+00 -0.28412520660E+03  0.28412520660E+03  0.00000000000E+00 0. -1.
         25    2    1    2    0    0 -0.71602319767E+01  0.33534904217E+02 -0.23242728998E+03  0.26612671323E+03  0.12500049458E+03 0.  0.
          2    1    1    2  501    0 -0.47965804762E+02 -0.32597738762E+02 -0.12522206509E+01  0.58007749960E+02  0.00000000000E+00 0. -1.
          1    1    1    2  502    0  0.55126036739E+02 -0.93716545521E+00  0.14041373853E+03  0.15085017790E+03  0.00000000000E+00 0. -1.
         22    1    3    3    0    0  0.23363060937E+02 -0.38182706287E+02 -0.46606961970E+02  0.64621672679E+02  0.00000000000E+00 0. -1.
         22    1    3    3    0    0 -0.30523292914E+02  0.71717610504E+02 -0.18582032801E+03  0.20150504055E+03  0.00000000000E+00 0. -1.
</event>
<event>
 7    1  0.4915160E-006  0.7175305E+02  0.7818608E-02  0.1497554E+00
          2   -1    0    0  502    0  0.00000000000E+00  0.00000000000E+00  0.10113190410E+04  0.10113190410E+04  0.00000000000E+00 0. -1.
          1   -1    0    0  501    0 -0.00000000000E+00 -0.00000000000E+00 -0.40860706456E+03  0.40860706456E+03  0.00000000000E+00 0. -1.
         25    2    1    2    0    0 -0.51466575575E+02  0.30339465544E+02 -0.75239000781E+02  0.15764428122E+03  0.12498608159E+03 0.  0.
          2    1    1    2  501    0  0.49409978991E+02 -0.54237103239E+02 -0.28740797237E+03  0.29662493485E+03  0.00000000000E+00 0. -1.
          1    1    1    2  502    0  0.20565965845E+01  0.23897637695E+02  0.96535894964E+03  0.96565688954E+03  0.00000000000E+00 0. -1.
         22    1    3    3    0    0 -0.56577091875E+02  0.96947008680E+01  0.19441358982E+02  0.60604628445E+02  0.00000000000E+00 0.  1.
         22    1    3    3    0    0  0.51105162995E+01  0.20644764676E+02 -0.94680359763E+02  0.97039652773E+02  0.00000000000E+00 0.  1.
</event>
<event>
 7    1  0.4915160E-006  0.7732936E+02  0.7818608E-02  0.1367277E+00
          2   -1    0    0  502    0  0.00000000000E+00  0.00000000000E+00  0.60850239299E+03  0.60850239299E+03  0.00000000000E+00 0. -1.
          1   -1    0    0  501    0 -0.00000000000E+00 -0.00000000000E+00 -0.11100298756E+04  0.11100298756E+04  0.00000000000E+00 0. -1.
         25    2    1    2    0    0  0.43840781764E+02  0.76171527171E+02  0.16631564666E+03  0.22586437357E+03  0.12501881948E+03 0.  0.
          2    1    1    2  501    0 -0.73473415880E+02 -0.24375871404E+02 -0.10767000281E+04  0.10794792617E+04  0.00000000000E+00 0. -1.
          1    1    1    2  502    0  0.29632634116E+02 -0.51795655767E+02  0.40885689883E+03  0.41318863330E+03  0.00000000000E+00 0. -1.
         22    1    3    3    0    0  0.34407206737E+02  0.82949071682E+02  0.38808050107E+02  0.97828774507E+02  0.00000000000E+00 0. -1.
         22    1    3    3    0    0  0.94335750266E+01 -0.67775445107E+01  0.12750759656E+03  0.12803559906E+03  0.00000000000E+00 0. -1.
</event>
<event>
 7    1  0.4915160E-006  0.3270440E+02  0.7818608E-02  0.1583579E+00
          2   -1    0    0  502    0  0.00000000000E+00  0.00000000000E+00  0.29069729642E+03  0.29069729642E+03  0.00000000000E+00 0. -1.
          1   -1    0    0  501    0 -0.00000000000E+00 -0.00000000000E+00 -0.48544344551E+02  0.48544344551E+02  0.00000000000E+00 0. -1.
         25    2    1    2    0    0  0.82888004856E+01  0.60395637341E+01  0.15111027239E+03  0.19637894136E+03  0.12500077458E+03 0.  0.
          2    1    1    2  501    0  0.16508148115E+02 -0.28232229090E+02 -0.11801548792E+02  0.34768581614E+02  0.00000000000E+00 0. -1.
          1    1    1    2  502    0 -0.24796948601E+02  0.22192665356E+02  0.10284422827E+03  0.10809411799E+03  0.00000000000E+00 0. -1.
         22    1    3    3    0    0  0.30802738940E+02  0.32877626999E+02  0.15473566132E+03  0.16116101255E+03  0.00000000000E+00 0. -1.
         22    1    3    3    0    0 -0.22513938454E+02 -0.26838063265E+02 -0.36253889341E+01  0.35217928807E+02  0.00000000000E+00 0. -1.
</event>
<event>
 7    1  0.4915160E-006  0.3676431E+02  0.7818608E-02  0.1571568E+00
          2   -1    0    0  502    0  0.00000000000E+00  0.00000000000E+00  0.25739658473E+02  0.25739658473E+02  0.00000000000E+00 0. -1.
          1   -1    0    0  501    0 -0.00000000000E+00 -0.00000000000E+00 -0.11940494934E+04  0.11940494934E+04  0.00000000000E+00 0. -1.
         25    2    1    2    0    0 -0.25937551282E+02  0.41812251657E+02 -0.45190172323E+03  0.47144594272E+03  0.12500035399E+03 0.  0.
          2    1    1    2  501    0 -0.78307092780E+01 -0.27721779421E+02 -0.71073189539E+03  0.71131543228E+03  0.00000000000E+00 0. -1.
          1    1    1    2  502    0  0.33768260560E+02 -0.14090472236E+02 -0.56762163079E+01  0.37027776880E+02  0.00000000000E+00 0. -1.
         22    1    3    3    0    0 -0.21289532030E+02 -0.16695126923E+02 -0.15632596442E+02  0.31246591951E+02  0.00000000000E+00 0. -1.
         22    1    3    3    0    0 -0.46480192518E+01  0.58507378580E+02 -0.43626912679E+03  0.44019935077E+03  0.00000000000E+00 0. -1.
</event>
<event>
 7    1  0.4915160E-006  0.1138985E+03  0.7818608E-02  0.1399435E+00
          2   -1    0    0  502    0  0.00000000000E+00  0.00000000000E+00  0.94900202687E+02  0.94900202687E+02  0.00000000000E+00 0. -1.
          1   -1    0    0  501    0 -0.00000000000E+00 -0.00000000000E+00 -0.57322896910E+03  0.57322896910E+03  0.00000000000E+00 0. -1.
         25    2    1    2    0    0 -0.13356254464E+03  0.19730846263E+02 -0.19477323039E+03  0.26793237057E+03  0.12499153691E+03 0.  0.
          2    1    1    2  501    0  0.28838870768E+02  0.11926398279E+02 -0.28897829521E+03  0.29065851879E+03  0.00000000000E+00 0. -1.
          1    1    1    2  502    0  0.10472367387E+03 -0.31657244542E+02  0.54227591755E+01  0.10953828243E+03  0.00000000000E+00 0. -1.
         22    1    3    3    0    0 -0.11337071970E+03  0.67625655464E+02 -0.13925616269E+03  0.19188128676E+03  0.00000000000E+00 0. -1.
         22    1    3    3    0    0 -0.20191824946E+02 -0.47894809201E+02 -0.55517067699E+02  0.76051083812E+02  0.00000000000E+00 0. -1.
</event>
<event>
 7    1  0.4915160E-006  0.1974058E+03  0.7818608E-02  0.1267495E+00
          2   -1    0    0  502    0  0.00000000000E+00  0.00000000000E+00  0.44060739481E+03  0.44060739481E+03  0.00000000000E+00 0. -1.
          1   -1    0    0  501    0 -0.00000000000E+00 -0.00000000000E+00 -0.81370238982E+03  0.81370238982E+03  0.00000000000E+00 0. -1.
         25    2    1    2    0    0 -0.10682506906E+03  0.12467310630E+03  0.30713356106E+03  0.37001497612E+03  0.12500031764E+03 0.  0.
          2    1    1    2  501    0  0.87457220733E+02 -0.17858743811E+03 -0.76028089584E+03  0.78585576227E+03  0.00000000000E+00 0. -1.
          1    1    1    2  502    0  0.19367848323E+02  0.53914331810E+02  0.80052339769E+02  0.98439046245E+02  0.00000000000E+00 0. -1.
         22    1    3    3    0    0 -0.28368232196E+02  0.11091410553E+03  0.11615581154E+03  0.16309159377E+03  0.00000000000E+00 0. -1.
         22    1    3    3    0    0 -0.78456836860E+02  0.13759000773E+02  0.19097774952E+03  0.20692338235E+03  0.00000000000E+00 0. -1.
</event>
<event>
 7    1  0.4915160E-006  0.4317081E+02  0.7818608E-02  0.1580696E+00
          2   -1    0    0  502    0  0.00000000000E+00  0.00000000000E+00  0.64741797794E+03  0.64741797794E+03  0.00000000000E+00 0. -1.
          1   -1    0    0  501    0 -0.00000000000E+00 -0.00000000000E+00 -0.56584381376E+02  0.56584381376E+02  0.00000000000E+00 0. -1.
         25    2    1    2    0    0  0.61225609681E+02 -0.21590469645E+02  0.16134534869E+03  0.21417638913E+03  0.12499792181E+03 0.  0.
          2    1    1    2  501    0 -0.20035325618E+02  0.11658749623E+02 -0.24579292066E+02  0.33785830076E+02  0.00000000000E+00 0. -1.
          1    1    1    2  502    0 -0.41190284063E+02  0.99317200212E+01  0.45406753994E+03  0.45604014011E+03  0.00000000000E+00 0. -1.
         22    1    3    3    0    0  0.20992141674E+02 -0.28890662948E+02 -0.10746097456E+02  0.37293686170E+02  0.00000000000E+00 0.  1.
         22    1    3    3    0    0  0.40233468007E+02  0.73001933035E+01  0.17209144614E+03  0.17688270296E+03  0.00000000000E+00 0.  1.
</event>
<event>
 7    1  0.1339378E-005  0.7979438E+02  0.7818608E-02  0.1354766E+00
          2   -1    0    0  502    0  0.00000000000E+00  0.00000000000E+00  0.16113095049E+04  0.16113095049E+04  0.00000000000E+00 0. -1.
          1   -1    0    0  501    0 -0.00000000000E+00 -0.00000000000E+00 -0.11349366069E+04  0.11349366069E+04  0.00000000000E+00 0. -1.
         25    2    1    2    0    0  0.14039354226E+03  0.12770240773E+02 -0.22614084624E+03  0.29433527805E+03  0.12498058972E+03 0.  0.
          2    1    1    2  501    0 -0.76568976726E+02 -0.55624386306E+01 -0.87235814768E+03  0.87572968817E+03  0.00000000000E+00 0. -1.
          1    1    1    2  502    0 -0.63824565537E+02 -0.72078021425E+01  0.15748718920E+04  0.15761811456E+04  0.00000000000E+00 0. -1.
         22    1    3    3    0    0  0.62191640240E+02  0.26246781379E+02 -0.15524425963E+02  0.69265441960E+02  0.00000000000E+00 0. -1.
         22    1    3    3    0    0  0.78201902023E+02 -0.13476540606E+02 -0.21061642027E+03  0.22506983609E+03  0.00000000000E+00 0. -1.
</event>
<event>
 7    1  0.4915160E-006  0.4253604E+02  0.7818608E-02  0.1543665E+00
          2   -1    0    0  502    0  0.00000000000E+00  0.00000000000E+00  0.77124852906E+03  0.77124852906E+03  0.00000000000E+00 0. -1.
          1   -1    0    0  501    0 -0.00000000000E+00 -0.00000000000E+00 -0.15808228984E+03  0.15808228984E+03  0.00000000000E+00 0. -1.
         25    2    1    2    0    0 -0.28643878380E+02  0.45584343926E+02  0.14556450243E+03  0.19927640457E+03  0.12499462737E+03 0.  0.
          2    1    1    2  501    0  0.29565793300E+02 -0.31341374364E+01 -0.12877776053E+03  0.13216531526E+03  0.00000000000E+00 0. -1.
          1    1    1    2  502    0 -0.92191491915E+00 -0.42450206489E+02  0.59637949733E+03  0.59788909908E+03  0.00000000000E+00 0. -1.
         22    1    3    3    0    0 -0.82329529026E+01  0.29649921066E+01  0.15140891643E+03  0.15166157281E+03  0.00000000000E+00 0.  1.
         22    1    3    3    0    0 -0.20410925478E+02  0.42619351819E+02 -0.58444140047E+01  0.47614831759E+02  0.00000000000E+00 0.  1.
</event>
<event>
 7    1  0.4915160E-006  0.4917948E+03  0.7818608E-02  0.1228672E+00
          2   -1    0    0  502    0  0.00000000000E+00  0.00000000000E+00  0.28404577159E+04  0.28404577159E+04  0.00000000000E+00 0. -1.
          1   -1    0    0  501    0 -0.00000000000E+00 -0.00000000000E+00 -0.13367705713E+04  0.13367705713E+04  0.00000000000E+00 0. -1.
         25    2    1    2    0    0 -0.16709365907E+03  0.42846279332E+03 -0.42448313009E+03  0.63820956979E+03  0.12499948429E+03 0.  0.
          2    1    1    2  501    0 -0.54741804007E+01  0.33489319219E+02 -0.78281376424E+03  0.78354890762E+03  0.00000000000E+00 0. -1.
          1    1    1    2  502    0  0.17256783947E+03 -0.46195211254E+03  0.27109840389E+04  0.27554698098E+04  0.00000000000E+00 0. -1.
         22    1    3    3    0    0 -0.11730555638E+03  0.29190667122E+03 -0.20686371884E+03  0.37651387283E+03  0.00000000000E+00 0. -1.
         22    1    3    3    0    0 -0.49788102690E+02  0.13655612210E+03 -0.21761941125E+03  0.26169569695E+03  0.00000000000E+00 0. -1.
</event>
<event>
 7    1  0.4915160E-006  0.3804115E+02  0.7818608E-02  0.1544219E+00
          2   -1    0    0  502    0  0.00000000000E+00  0.00000000000E+00  0.40089421381E+02  0.40089421381E+02  0.00000000000E+00 0. -1.
          1   -1    0    0  501    0 -0.00000000000E+00 -0.00000000000E+00 -0.60293934470E+03  0.60293934470E+03  0.00000000000E+00 0. -1.
         25    2    1    2    0    0  0.71703643064E+01  0.45295762666E+02 -0.18963087055E+03  0.23170717843E+03  0.12500091692E+03 0.  0.
          2    1    1    2  501    0  0.22645148234E+02 -0.30862065285E+02 -0.37612599116E+03  0.37806881786E+03  0.00000000000E+00 0. -1.
          1    1    1    2  502    0 -0.29815512540E+02 -0.14433697382E+02  0.29069383876E+01  0.33252769793E+02  0.00000000000E+00 0. -1.
         22    1    3    3    0    0  0.31357703797E+02  0.14601340317E+02  0.34028072874E+01  0.34757500254E+02  0.00000000000E+00 0.  1.
         22    1    3    3    0    0 -0.24187339490E+02  0.30694422350E+02 -0.19303367783E+03  0.19694967817E+03  0.00000000000E+00 0.  1.
</event>
<event>
 7    1  0.4915160E-006  0.7359721E+02  0.7818608E-02  0.1482303E+00
          2   -1    0    0  502    0  0.00000000000E+00  0.00000000000E+00  0.57252044455E+03  0.57252044455E+03  0.00000000000E+00 0. -1.
          1   -1    0    0  501    0 -0.00000000000E+00 -0.00000000000E+00 -0.31370880374E+03  0.31370880374E+03  0.00000000000E+00 0. -1.
         25    2    1    2    0    0 -0.23575537118E+02  0.41783441524E+02 -0.25038331990E+03  0.28393288380E+03  0.12499765471E+03 0.  0.
          2    1    1    2  501    0 -0.96770398952E+01  0.24139251046E+02 -0.40245504841E+02  0.47917107615E+02  0.00000000000E+00 0. -1.
          1    1    1    2  502    0  0.33252577013E+02 -0.65922692570E+02  0.54944046555E+03  0.55437925688E+03  0.00000000000E+00 0. -1.
         22    1    3    3    0    0  0.36144058571E+02  0.41695061493E+02 -0.19438600847E+03  0.20206630449E+03  0.00000000000E+00 0. -1.
         22    1    3    3    0    0 -0.59719595688E+02  0.88380030893E-01 -0.55997311429E+02  0.81866579308E+02  0.00000000000E+00 0. -1.
</event>
<event>
 7    1  0.4915160E-006  0.1087879E+03  0.7818608E-02  0.1312709E+00
          2   -1    0    0  502    0  0.00000000000E+00  0.00000000000E+00  0.15894864129E+03  0.15894864129E+03  0.00000000000E+00 0. -1.
          1   -1    0    0  501    0 -0.00000000000E+00 -0.00000000000E+00 -0.81017364132E+03  0.81017364132E+03  0.00000000000E+00 0. -1.
         25    2    1    2    0    0 -0.16612745394E+03 -0.23830255103E+02 -0.25781552266E+03  0.33205451499E+03  0.12500058075E+03 0.  0.
          2    1    1    2  501    0  0.61809508832E+02  0.28501889392E+02 -0.49007038423E+03  0.49477444819E+03  0.00000000000E+00 0. -1.
          1    1    1    2  502    0  0.10431794511E+03 -0.46716342894E+01  0.96660906867E+02  0.14229331943E+03  0.00000000000E+00 0. -1.
         22    1    3    3    0    0 -0.17870132386E+03 -0.32826910534E+02 -0.19156755016E+03  0.26402631588E+03  0.00000000000E+00 0. -1.
         22    1    3    3    0    0  0.12573869914E+02  0.89966554316E+01 -0.66247972501E+02  0.68028199110E+02  0.00000000000E+00 0. -1.
</event>
<event>
 7    1  0.4915160E-006  0.3716032E+02  0.7818608E-02  0.1572238E+00
          2   -1    0    0  502    0  0.00000000000E+00  0.00000000000E+00  0.24850090940E+04  0.24850090940E+04  0.00000000000E+00 0. -1.
          1   -1    0    0  501    0 -0.00000000000E+00 -0.00000000000E+00 -0.96499001923E+03  0.96499001923E+03  0.00000000000E+00 0. -1.
         25    2    1    2    0    0 -0.27044562359E+02  0.34228744787E+02  0.43254248656E+03  0.45235063163E+03  0.12500030376E+03 0.  0.
          2    1    1    2  501    0 -0.11858126508E+01 -0.37144499715E+02 -0.95462579073E+03  0.95534889980E+03  0.00000000000E+00 0. -1.
          1    1    1    2  502    0  0.28230375009E+02  0.29157549277E+01  0.20421023789E+04  0.20422995817E+04  0.00000000000E+00 0. -1.
         22    1    3    3    0    0  0.24448221297E+02  0.66523979688E+02  0.20890000382E+03  0.22059548272E+03  0.00000000000E+00 0.  1.
         22    1    3    3    0    0 -0.51492783656E+02 -0.32295234901E+02  0.22364248274E+03  0.23175514892E+03  0.00000000000E+00 0.  1.
</event>
<event>
 7    1  0.4915160E-006  0.1638535E+03  0.7818608E-02  0.1276147E+00
          2   -1    0    0  502    0  0.00000000000E+00  0.00000000000E+00  0.14180763298E+04  0.14180763298E+04  0.00000000000E+00 0. -1.
          1   -1    0    0  501    0 -0.00000000000E+00 -0.00000000000E+00 -0.49066188680E+03  0.49066188680E+03  0.00000000000E+00 0. -1.
         25    2    1    2    0    0 -0.19666373739E+03  0.69954427766E+02  0.14899813438E+03  0.28529951827E+03  0.12500049403E+03 0.  0.
          2    1    1    2  501    0  0.13550113966E+03 -0.87005907002E+02 -0.40628696915E+03  0.43703511072E+03  0.00000000000E+00 0. -1.
          1    1    1    2  502    0  0.61162597735E+02  0.17051479236E+02  0.11847032778E+04  0.11864035877E+04  0.00000000000E+00 0. -1.
         22    1    3    3    0    0 -0.12584178961E+03 -0.96467172746E+01  0.38856430403E+02  0.13205694738E+03  0.00000000000E+00 0.  1.
         22    1    3    3    0    0 -0.70821947778E+02  0.79601145040E+02  0.11014170397E+03  0.15324257089E+03  0.00000000000E+00 0.  1.
</event>
<event>
 7    1  0.6716716E-006  0.1001191E+03  0.7818608E-02  0.1403433E+00
          2   -1    0    0  502    0  0.00000000000E+00  0.00000000000E+00  0.15147545385E+04  0.15147545385E+04  0.00000000000E+00 0. -1.
          1   -1    0    0  501    0 -0.00000000000E+00 -0.00000000000E+00 -0.50942428134E+03  0.50942428134E+03  0.00000000000E+00 0. -1.
         25    2    1    2    0    0 -0.30183767606E+02  0.10607964578E+03 -0.20366075780E+03  0.26318716094E+03  0.12500330532E+03 0.  0.
          2    1    1    2  501    0  0.33860267821E+02 -0.60629766023E+01 -0.27323434632E+03  0.27539114988E+03  0.00000000000E+00 0. -1.
          1    1    1    2  502    0 -0.36765002150E+01 -0.10001666918E+03  0.14822253612E+04  0.14856005090E+04  0.00000000000E+00 0. -1.
         22    1    3    3    0    0 -0.48976399383E+02  0.70120184380E+01 -0.12768048373E+03  0.13693123101E+03  0.00000000000E+00 0.  1.
         22    1    3    3    0    0  0.18792631776E+02  0.99067627346E+02 -0.75980274068E+02  0.12625592994E+03  0.00000000000E+00 0.  1.
</event>
<event>
 7    1  0.4915160E-006  0.4838290E+02  0.7818608E-02  0.1496473E+00
          2   -1    0    0  502    0  0.00000000000E+00  0.00000000000E+00  0.66274996084E+02  0.66274996084E+02  0.00000000000E+00 0. -1.
          1   -1    0    0  501    0 -0.00000000000E+00 -0.00000000000E+00 -0.15600813278E+04  0.15600813278E+04  0.00000000000E+00 0. -1.
         25    2    1    2    0    0  0.64358254646E+02  0.33930981253E+02 -0.48428731447E+03  0.50542384372E+03  0.12500304961E+03 0.  0.
          2    1    1    2  501    0 -0.16389079950E+02 -0.31871037267E+02 -0.10545188720E+04  0.10551276778E+04  0.00000000000E+00 0. -1.
          1    1    1    2  502    0 -0.47969174696E+02 -0.20599439861E+01  0.44999854764E+02  0.65804802402E+02  0.00000000000E+00 0. -1.
         22    1    3    3    0    0 -0.19262796866E+02  0.54613723741E+02 -0.21728579656E+03  0.22487069963E+03  0.00000000000E+00 0.  1.
         22    1    3    3    0    0  0.83621051512E+02 -0.20682742488E+02 -0.26700151791E+03  0.28055314409E+03  0.00000000000E+00 0.  1.
</event>
<event>
 7    1  0.4915160E-006  0.7369304E+02  0.7818608E-02  0.1400611E+00
          2   -1    0    0  502    0  0.00000000000E+00  0.00000000000E+00  0.17243645526E+04  0.17243645526E+04  0.00000000000E+00 0. -1.
          1   -1    0    0  501    0 -0.00000000000E+00 -0.00000000000E+00 -0.36555673413E+04  0.36555673413E+04  0.00000000000E+00 0. -1.
         25    2    1    2    0    0  0.10313671403E+03 -0.24815571530E+02  0.45513396992E+03  0.48375602880E+03  0.12497988018E+03 0.  0.
          2    1    1    2  501    0 -0.59267027328E+02  0.43763834745E+02 -0.36404285398E+04  0.36411739600E+04  0.00000000000E+00 0. -1.
          1    1    1    2  502    0 -0.43869686702E+02 -0.18948263215E+02  0.12540917812E+04  0.12550019051E+04  0.00000000000E+00 0. -1.
         22    1    3    3    0    0 -0.21386359349E+02 -0.18733010352E+02  0.32808086507E+02  0.43412815888E+02  0.00000000000E+00 0.  1.
         22    1    3    3    0    0  0.12452307338E+03 -0.60825611779E+01  0.42232588342E+03  0.44034321291E+03  0.00000000000E+00 0.  1.
</event>
<event>
 7    1  0.4915160E-006  0.6783422E+02  0.7818608E-02  0.1379593E+00
          2   -1    0    0  502    0  0.00000000000E+00  0.00000000000E+00  0.91375386445E+03  0.91375386445E+03  0.00000000000E+00 0. -1.
          1   -1    0    0  501    0 -0.00000000000E+00 -0.00000000000E+00 -0.15948929639E+03  0.15948929639E+03  0.00000000000E+00 0. -1.
         25    2    1    2    0    0 -0.59155902545E+01 -0.12653188513E+03  0.69729084134E+02  0.19113443935E+03  0.12499966627E+03 0.  0.
          2    1    1    2  501    0 -0.61379020630E+01  0.61157519279E+02 -0.87657526833E+02  0.10705960030E+03  0.00000000000E+00 0. -1.
          1    1    1    2  502    0  0.12053492318E+02  0.65374365849E+02  0.77219301076E+03  0.77504912119E+03  0.00000000000E+00 0. -1.
         22    1    3    3    0    0  0.64294840377E+00 -0.12093780448E+03  0.10170320479E+03  0.15801869446E+03  0.00000000000E+00 0.  1.
         22    1    3    3    0    0 -0.65585386583E+01 -0.55940806502E+01 -0.31974120656E+02  0.33115744886E+02  0.00000000000E+00 0.  1.
</event>
<event>
 7    1  0.4915160E-006  0.3398724E+02  0.7818608E-02  0.1566100E+00
          2   -1    0    0  502    0  0.00000000000E+00  0.00000000000E+00  0.24490410244E+04  0.24490410244E+04  0.00000000000E+00 0. -1.
          1   -1    0    0  501    0 -0.00000000000E+00 -0.00000000000E+00 -0.26245358236E+03  0.26245358236E+03  0.00000000000E+00 0. -1.
         25    2    1    2    0    0 -0.75818779214E+01 -0.34729598701E+02 -0.17608311571E+03  0.21884727687E+03  0.12500094822E+03 0.  0.
          2    1    1    2  501    0  0.32558528617E+02  0.11679672712E+02 -0.60258108231E+02  0.69480300431E+02  0.00000000000E+00 0. -1.
          1    1    1    2  502    0 -0.24976650696E+02  0.23049925989E+02  0.24229286660E+04  0.24231670295E+04  0.00000000000E+00 0. -1.
         22    1    3    3    0    0 -0.64363004225E+01 -0.18655358032E+01  0.19448058208E+02  0.20570200656E+02  0.00000000000E+00 0.  1.
         22    1    3    3    0    0 -0.11455774989E+01 -0.32864062898E+02 -0.19553117392E+03  0.19827707622E+03  0.00000000000E+00 0.  1.
</event>
<event>
 7    1  0.4915160E-006  0.2166137E+03  0.7818608E-02  0.1365405E+00
          2   -1    0    0  502    0  0.00000000000E+00  0.00000000000E+00  0.14464306270E+04  0.14464306270E+04  0.00000000000E+00 0. -1.
          1   -1    0    0  501    0 -0.00000000000E+00 -0.00000000000E+00 -0.26618454877E+03  0.26618454877E+03  0.00000000000E+00 0. -1.
         25    2    1    2    0    0  0.94651657544E+02  0.17437897641E+03  0.20103648675E+03  0.30888030236E+03  0.12499763394E+03 0.  0.
          2    1    1    2  501    0  0.10674903577E+02  0.18820729265E+02 -0.20151889885E+03  0.20267718177E+03  0.00000000000E+00 0. -1.
          1    1    1    2  502    0 -0.10532656112E+03 -0.19319970568E+03  0.11807284904E+04  0.12010576917E+04  0.00000000000E+00 0. -1.
         22    1    3    3    0    0  0.94329846880E+02  0.11730182820E+03  0.20185046428E+03  0.25179644327E+03  0.00000000000E+00 0. -1.
         22    1    3    3    0    0  0.32181066413E+00  0.57077148206E+02 -0.81397752701E+00  0.57083859092E+02  0.00000000000E+00 0. -1.
</event>
<event>
 7    1  0.4915160E-006  0.2042533E+03  0.7818608E-02  0.1242226E+00
          2   -1    0    0  502    0  0.00000000000E+00  0.00000000000E+00  0.81784470022E+03  0.81784470022E+03  0.00000000000E+00 0. -1.
          1   -1    0    0  501    0 -0.00000000000E+00 -0.00000000000E+00 -0.10188752750E+04  0.10188752750E+04  0.00000000000E+00 0. -1.
         25    2    1    2    0    0  0.52815054274E+02 -0.19177345596E+03 -0.32745386310E+03  0.40301050805E+03  0.12499979509E+03 0.  0.
          2    1    1    2  501    0  0.15997629382E+02  0.20975804299E+03 -0.63501675454E+03  0.66895488584E+03  0.00000000000E+00 0. -1.
          1    1    1    2  502    0 -0.68812683656E+02 -0.17984587032E+02  0.76144004285E+03  0.76475458133E+03  0.00000000000E+00 0. -1.
         22    1    3    3    0    0  0.15024440058E+02  0.15083501699E+02 -0.13731198581E+02  0.25333606870E+02  0.00000000000E+00 0.  1.
         22    1    3    3    0    0  0.37790614216E+02 -0.20685695766E+03 -0.31372266451E+03  0.37767690118E+03  0.00000000000E+00 0.  1.
</event>
<event>
 7    1  0.4915160E-006  0.9980297E+02  0.7818608E-02  0.1451586E+00
          2   -1    0    0  502    0  0.00000000000E+00  0.00000000000E+00  0.12253882658E+04  0.12253882658E+04  0.00000000000E+00 0. -1.
          1   -1    0    0  501    0 -0.00000000000E+00 -0.00000000000E+00 -0.33856641528E+03  0.33856641528E+03  0.00000000000E+00 0. -1.
         25    2    1    2    0    0 -0.53105480649E+02  0.97615447787E+02  0.84745577434E+03  0.86380268972E+03  0.12499931838E+03 0.  0.
          2    1    1    2  501    0  0.29294849096E+02 -0.95322661041E+02 -0.32246420429E+03  0.33753186655E+03  0.00000000000E+00 0. -1.
          1    1    1    2  502    0  0.23810631553E+02 -0.22927867464E+01  0.36183028050E+03  0.36262012483E+03  0.00000000000E+00 0. -1.
         22    1    3    3    0    0 -0.16925984386E+02  0.11006818018E+03  0.41580526484E+03  0.43045965143E+03  0.00000000000E+00 0. -1.
         22    1    3    3    0    0 -0.36179496263E+02 -0.12452732390E+02  0.43165050949E+03  0.43334303830E+03  0.00000000000E+00 0. -1.
</event>
<event>
 7    1  0.4915160E-006  0.8873636E+02  0.7818608E-02  0.1316397E+00
          2   -1    0    0  502    0  0.00000000000E+00  0.00000000000E+00  0.20412879251E+03  0.20412879251E+03  0.00000000000E+00 0. -1.
          1   -1    0    0  501    0 -0.00000000000E+00 -0.00000000000E+00 -0.18194402071E+03  0.18194402071E+03  0.00000000000E+00 0. -1.
         25    2    1    2    0    0 -0.75331040862E+01 -0.65870257007E+02 -0.52225590906E+02  0.15082897951E+03  0.12500492110E+03 0.  0.
          2    1    1    2  501    0 -0.28712904331E+02  0.13799263572E+03  0.60284111367E+02  0.15329896435E+03  0.00000000000E+00 0. -1.
          1    1    1    2  502    0  0.36246008418E+02 -0.72122378708E+02  0.14126251339E+02  0.81944869355E+02  0.00000000000E+00 0. -1.
         22    1    3    3    0    0  0.12889419553E+02  0.35572880063E+02 -0.17421950127E+02  0.41654426879E+02  0.00000000000E+00 0.  1.
         22    1    3    3    0    0 -0.20422523639E+02 -0.10144313707E+03 -0.34803640780E+02  0.10917455263E+03  0.00000000000E+00 0.  1.
</event>
<event>
 7    1  0.4915160E-006  0.1046276E+03  0.7818608E-02  0.1282618E+00
          2   -1    0    0  502    0  0.00000000000E+00  0.00000000000E+00  0.55451790771E+03  0.55451790771E+03  0.00000000000E+00 0. -1.
          1   -1    0    0  501    0 -0.00000000000E+00 -0.00000000000E+00 -0.92114390216E+02  0.92114390216E+02  0.00000000000E+00 0. -1.
         25    2    1    2    0    0 -0.34665054051E+02 -0.63522850080E+02  0.11446463133E+03  0.18429227823E+03  0.12499869414E+03 0.  0.
          2    1    1    2  501    0  0.10256269791E+03 -0.20683857710E+02  0.72357765683E+01  0.10487747821E+03  0.00000000000E+00 0. -1.
          1    1    1    2  502    0 -0.67897643859E+02  0.84206707790E+02  0.34070310959E+03  0.35746254148E+03  0.00000000000E+00 0. -1.
         22    1    3    3    0    0 -0.18586105077E+00 -0.95702121657E+02  0.63495301459E+02  0.11485026749E+03  0.00000000000E+00 0. -1.
         22    1    3    3    0    0 -0.34479193001E+02  0.32179271577E+02  0.50969329872E+02  0.69442010749E+02  0.00000000000E+00 0. -1.
</event>
<event>
 7    1  0.4915160E-006  0.5897724E+02  0.7818608E-02  0.1533953E+00
          2   -1    0    0  502    0  0.00000000000E+00  0.00000000000E+00  0.23154856587E+04  0.23154856587E+04  0.00000000000E+00 0. -1.
          1   -1    0    0  501    0 -0.00000000000E+00 -0.00000000000E+00 -0.38882737397E+02  0.38882737397E+02  0.00000000000E+00 0. -1.
         25    2    1    2    0    0 -0.44423349276E+02  0.65463829025E+02  0.59254971230E+03  0.61073652557E+03  0.12499998098E+03 0.  0.
          2    1    1    2  501    0  0.18187332031E+02 -0.13824074803E+02 -0.24845519873E+02  0.33751799187E+02  0.00000000000E+00 0. -1.
          1    1    1    2  502    0  0.26236017245E+02 -0.51639754222E+02  0.17088987289E+04  0.17098800713E+04  0.00000000000E+00 0. -1.
         22    1    3    3    0    0 -0.83724467896E+02  0.36272796045E+02  0.28317528641E+03  0.29751259652E+03  0.00000000000E+00 0.  1.
         22    1    3    3    0    0  0.39301118619E+02  0.29191032980E+02  0.30937442590E+03  0.31322392905E+03  0.00000000000E+00 0.  1.
</event>
<event>
 7    1  0.4915160E-006  0.5384112E+02  0.7818608E-02  0.1516604E+00
          2   -1    0    0  502    0  0.00000000000E+00  0.00000000000E+00  0.19419096603E+03  0.19419096603E+03  0.00000000000E+00 0. -1.
          1   -1    0    0  501    0 -0.00000000000E+00 -0.00000000000E+00 -0.11694683145E+03  0.11694683145E+03  0.00000000000E+00 0. -1.
         25    2    1    2    0    0 -0.67546099429E+02  0.29255939894E+02 -0.16158880491E+02  0.14596186310E+03  0.12500148197E+03 0.  0.
          2    1    1    2  501    0  0.48006491865E+02 -0.90906707448E+01 -0.16633478933E+02  0.51613333328E+02  0.00000000000E+00 0. -1.
          1    1    1    2  502    0  0.19539607564E+02 -0.20165269149E+02  0.11003649400E+03  0.11356260104E+03  0.00000000000E+00 0. -1.
         22    1    3    3    0    0 -0.67235251663E+01  0.67770785104E+02 -0.26802416465E+02  0.73187803852E+02  0.00000000000E+00 0.  1.
         22    1    3    3    0    0 -0.60822574263E+02 -0.38514845211E+02  0.10643535974E+02  0.72774059249E+02  0.00000000000E+00 0.  1.
</event>
<event>
 7    1  0.4915160E-006  0.6749387E+02  0.7818608E-02  0.1481235E+00
          2   -1    0    0  502    0  0.00000000000E+00  0.00000000000E+00  0.12060183728E+03  0.12060183728E+03  0.00000000000E+00 0. -1.
          1   -1    0    0  501    0 -0.00000000000E+00 -0.00000000000E+00 -0.98073493751E+03  0.98073493751E+03  0.00000000000E+00 0. -1.
         25    2    1    2    0    0  0.53514195132E+01  0.88693543636E+02 -0.38657087581E+03  0.41587888678E+03  0.12499209605E+03 0.  0.
          2    1    1    2  501    0  0.95636752779E+01 -0.64322812314E+02 -0.57571925534E+03  0.57938031468E+03  0.00000000000E+00 0. -1.
          1    1    1    2  502    0 -0.14915094791E+02 -0.24370731322E+02  0.10215703091E+03  0.10607757333E+03  0.00000000000E+00 0. -1.
         22    1    3    3    0    0  0.81248662097E+01  0.98201433078E+02 -0.39226679658E+03  0.40445367424E+03  0.00000000000E+00 0.  1.
         22    1    3    3    0    0 -0.27734466966E+01 -0.95078894416E+01  0.56959207691E+01  0.11425212542E+02  0.00000000000E+00 0.  1.
</event>
<event>
 7    1  0.4915160E-006  0.5434719E+02  0.7818608E-02  0.1468099E+00
          2   -1    0    0  502    0  0.00000000000E+00  0.00000000000E+00  0.12555298420E+03  0.12555298420E+03  0.00000000000E+00 0. -1.
          1   -1    0    0  501    0 -0.00000000000E+00 -0.00000000000E+00 -0.50816646999E+03  0.50816646999E+03  0.00000000000E+00 0. -1.
         25    2    1    2    0    0 -0.31826003720E+02  0.40697126912E+02 -0.43702351932E+01  0.13532541439E+03  0.12499887269E+03 0.  0.
          2    1    1    2  501    0 -0.45764553935E+01 -0.54584350239E+02 -0.43007642131E+03  0.43355060074E+03  0.00000000000E+00 0. -1.
          1    1    1    2  502    0  0.36402459114E+02  0.13887223327E+02  0.51833170717E+02  0.64843439050E+02  0.00000000000E+00 0. -1.
         22    1    3    3    0    0  0.37468147452E+02  0.35468761176E+02 -0.31811439115E+02  0.60612397671E+02  0.00000000000E+00 0.  1.
         22    1    3    3    0    0 -0.69294151172E+02  0.52283657360E+01  0.27441203922E+02  0.74713016721E+02  0.00000000000E+00 0.  1.
</event>
<event>
 7    1  0.4915160E-006  0.1104655E+03  0.7818608E-02  0.1285426E+00
          2   -1    0    0  502    0  0.00000000000E+00  0.00000000000E+00  0.27261432946E+03  0.27261432946E+03  0.00000000000E+00 0. -1.
          1   -1    0    0  501    0 -0.00000000000E+00 -0.00000000000E+00 -0.10206828369E+04  0.10206828369E+04  0.00000000000E+00 0. -1.
         25    2    1    2    0    0  0.10173263170E+02 -0.30652639112E+02  0.60568183658E+02  0.14260824511E+03  0.12500210852E+03 0.  0.
          2    1    1    2  501    0 -0.89647707020E+02 -0.64543854088E+02 -0.95356735740E+03  0.95994443879E+03  0.00000000000E+00 0. -1.
          1    1    1    2  502    0  0.79474443850E+02  0.95196493199E+02  0.14493066632E+03  0.19074448244E+03  0.00000000000E+00 0. -1.
         22    1    3    3    0    0  0.59332163857E+02  0.45074355597E+01  0.36946567413E+01  0.59617724979E+02  0.00000000000E+00 0. -1.
         22    1    3    3    0    0 -0.49158900686E+02 -0.35160074671E+02  0.56873526916E+02  0.82990520130E+02  0.00000000000E+00 0. -1.
</event>
<event>
 7    1  0.4915160E-006  0.8086872E+02  0.7818608E-02  0.1362505E+00
          2   -1    0    0  502    0  0.00000000000E+00  0.00000000000E+00  0.46855059602E+03  0.46855059602E+03  0.00000000000E+00 0. -1.
          1   -1    0    0  501    0 -0.00000000000E+00 -0.00000000000E+00 -0.64357674681E+03  0.64357674681E+03  0.00000000000E+00 0. -1.
         25    2    1    2    0    0  0.10073791920E+03  0.14090335084E+02  0.31221587757E+03  0.35135667806E+03  0.12500438033E+03 0.  0.
          2    1    1    2  501    0 -0.71564364009E+02  0.37627469244E+02 -0.61478710963E+03  0.62008102278E+03  0.00000000000E+00 0. -1.
          1    1    1    2  502    0 -0.29173555193E+02 -0.51717804328E+02  0.12754508127E+03  0.14068964199E+03  0.00000000000E+00 0. -1.
         22    1    3    3    0    0  0.59522647806E+01 -0.27937908888E+00  0.21408858033E+03  0.21417149142E+03  0.00000000000E+00 0. -1.
         22    1    3    3    0    0  0.94785654421E+02  0.14369714173E+02  0.98127297239E+02  0.13718518664E+03  0.00000000000E+00 0. -1.
</event>
<event>
 7    1  0.4915160E-006  0.5091565E+02  0.7818608E-02  0.1539564E+00
          2   -1    0    0  502    0  0.00000000000E+00  0.00000000000E+00  0.36658061190E+02  0.36658061190E+02  0.00000000000E+00 0. -1.
          1   -1    0    0  501    0 -0.00000000000E+00 -0.00000000000E+00 -0.10463583682E+04  0.10463583682E+04  0.00000000000E+00 0. -1.
         25    2    1    2    0    0  0.24230633648E+02 -0.21555942660E+02 -0.54068362997E+03  0.55589223380E+03  0.12500242240E+03 0.  0.
          2    1    1    2  501    0 -0.49679224618E+02  0.23307654855E+02 -0.49063055636E+03  0.49368979630E+03  0.00000000000E+00 0. -1.
          1    1    1    2  502    0  0.25448590970E+02 -0.17517121959E+01  0.21613879312E+02  0.33434399305E+02  0.00000000000E+00 0. -1.
         22    1    3    3    0    0  0.17991861400E+01  0.46411407118E+02 -0.33295560693E+03  0.33617955317E+03  0.00000000000E+00 0. -1.
         22    1    3    3    0    0  0.22431447509E+02 -0.67967349778E+02 -0.20772802304E+03  0.21971268063E+03  0.00000000000E+00 0. -1.
</event>
<event>
 7    1  0.4915160E-006  0.7212268E+02  0.7818608E-02  0.1369577E+00
          2   -1    0    0  502    0  0.00000000000E+00  0.00000000000E+00  0.11741997404E+03  0.11741997404E+03  0.00000000000E+00 0. -1.
          1   -1    0    0  501    0 -0.00000000000E+00 -0.00000000000E+00 -0.96078146482E+03  0.96078146482E+03  0.00000000000E+00 0. -1.
         25    2    1    2    0    0 -0.18702336108E+02  0.10621260548E+03 -0.25769328411E+02  0.16709516104E+03  0.12500335842E+03 0.  0.
          2    1    1    2  501    0 -0.29125276240E+02 -0.65557733983E+02 -0.84104315408E+03  0.84409696435E+03  0.00000000000E+00 0. -1.
          1    1    1    2  502    0  0.47827612348E+02 -0.40654871501E+02  0.23450991713E+02  0.67009313472E+02  0.00000000000E+00 0. -1.
         22    1    3    3    0    0  0.85164440194E+01 -0.94394562904E+01  0.32402026990E+02  0.34806960609E+02  0.00000000000E+00 0.  1.
         22    1    3    3    0    0 -0.27218780127E+02  0.11565206177E+03 -0.58171355401E+02  0.13228820043E+03  0.00000000000E+00 0.  1.
</event>
<event>
 7    1  0.4915160E-006  0.4636852E+02  0.7818608E-02  0.1522248E+00
          2   -1    0    0  502    0  0.00000000000E+00  0.00000000000E+00  0.19330170152E+03  0.19330170152E+03  0.00000000000E+00 0. -1.
          1   -1    0    0  501    0 -0.00000000000E+00 -0.00000000000E+00 -0.95864891271E+03  0.95864891271E+03  0.00000000000E+00 0. -1.
         25    2    1    2    0    0  0.47351373437E+02 -0.26956931843E+02 -0.10045405118E+03  0.16936740509E+03  0.12500189106E+03 0.  0.
          2    1    1    2  501    0 -0.27568393444E+02 -0.15022414999E+02 -0.82004185558E+03  0.82064263487E+03  0.00000000000E+00 0. -1.
          1    1    1    2  502    0 -0.19782979993E+02  0.41979346841E+02  0.15514869557E+03  0.16194057427E+03  0.00000000000E+00 0. -1.
         22    1    3    3    0    0 -0.19454389724E+02  0.82903193896E+01  0.18739728211E+02  0.28255620477E+02  0.00000000000E+00 0.  1.
         22    1    3    3    0    0  0.66805763161E+02 -0.35247251232E+02 -0.11919377939E+03  0.14111178461E+03  0.00000000000E+00 0.  1.
</event>
<event>
 7    1  0.4915160E-006  0.5054673E+02  0.7818608E-02  0.1453377E+00
          2   -1    0    0  502    0  0.00000000000E+00  0.00000000000E+00  0.31435421511E+04  0.31435421511E+04  0.00000000000E+00 0. -1.
          1   -1    0    0  501    0 -0.00000000000E+00 -0.00000000000E+00 -0.14015938984E+03  0.14015938984E+03  0.00000000000E+00 0. -1.
         25    2    1    2    0    0  0.70724948267E+01  0.82684151994E+02  0.11028390095E+03  0.18621037859E+03  0.12500030845E+03 0.  0.
          2    1    1    2  501    0  0.21685693566E+02 -0.41262180133E+02 -0.96657098964E+02  0.10730997901E+03  0.00000000000E+00 0. -1.
          1    1    1    2  502    0 -0.28758188393E+02 -0.41421971861E+02  0.29897559593E+04  0.29901811834E+04  0.00000000000E+00 0. -1.
         22    1    3    3    0    0  0.42686538800E+02  0.99805706598E+02  0.66820647150E+02  0.12746889248E+03  0.00000000000E+00 0. -1.
         22    1    3    3    0    0 -0.35614043973E+02 -0.17121554604E+02  0.43463253797E+02  0.58741486114E+02  0.00000000000E+00 0. -1.
</event>
<event>
 7    1  0.4915160E-006  0.5077983E+02  0.7818608E-02  0.1474403E+00
          2   -1    0    0  502    0  0.00000000000E+00  0.00000000000E+00  0.95622541835E+03  0.95622541835E+03  0.00000000000E+00 0. -1.
          1   -1    0    0  501    0 -0.00000000000E+00 -0.00000000000E+00 -0.37913633995E+03  0.37913633995E+03  0.00000000000E+00 0. -1.
         25    2    1    2    0    0  0.10407811558E+02 -0.11302230307E+01 -0.25156675277E+03  0.28110660466E+03  0.12500196854E+03 0.  0.
          2    1    1    2  501    0 -0.25183977618E+02  0.49712693091E+02 -0.10518453569E+03  0.11903516762E+03  0.00000000000E+00 0. -1.
          1    1    1    2  502    0  0.14776166060E+02 -0.48582470060E+02  0.93384036686E+03  0.93521998603E+03  0.00000000000E+00 0. -1.
         22    1    3    3    0    0 -0.14601310977E+02 -0.41491940514E+02 -0.27080940507E+02  0.51654203591E+02  0.00000000000E+00 0.  1.
         22    1    3    3    0    0  0.25009122535E+02  0.40361717483E+02 -0.22448581227E+03  0.22945240107E+03  0.00000000000E+00 0.  1.
</event>
<event>
 7    1  0.4915160E-006  0.5221845E+02  0.7818608E-02  0.1499182E+00
          2   -1    0    0  502    0  0.00000000000E+00  0.00000000000E+00  0.15194964479E+04  0.15194964479E+04  0.00000000000E+00 0. -1.
          1   -1    0    0  501    0 -0.00000000000E+00 -0.00000000000E+00 -0.16086866377E+04  0.16086866377E+04  0.00000000000E+00 0. -1.
         25    2    1    2    0    0  0.41313344072E+02  0.44485531940E+02  0.57500196625E+03  0.59155278370E+03  0.12498671833E+03 0.  0.
          2    1    1    2  501    0 -0.50517834039E+02 -0.13220803168E+02 -0.15997014224E+04  0.16005534924E+04  0.00000000000E+00 0. -1.
          1    1    1    2  502    0  0.92044899672E+01 -0.31264728772E+02  0.93550926633E+03  0.93607680950E+03  0.00000000000E+00 0. -1.
         22    1    3    3    0    0 -0.11337738221E+02 -0.34445682230E+02  0.84407918969E+02  0.91868090853E+02  0.00000000000E+00 0. -1.
         22    1    3    3    0    0  0.52651082292E+02  0.78931214170E+02  0.49059404728E+03  0.49968469285E+03  0.00000000000E+00 0. -1.
</event>
<event>
 7    1  0.4915160E-006  0.6180619E+02  0.7818608E-02  0.1445718E+00
          2   -1    0    0  502    0  0.00000000000E+00  0.00000000000E+00  0.20306759594E+03  0.20306759594E+03  0.00000000000E+00 0. -1.
          1   -1    0    0  501    0 -0.00000000000E+00 -0.00000000000E+00 -0.19563608154E+03  0.19563608154E+03  0.00000000000E+00 0. -1.
         25    2    1    2    0    0  0.91451875518E+02  0.35817029623E+02 -0.86770626088E+02  0.18110854923E+03  0.12499943963E+03 0.  0.
          2    1    1    2  501    0 -0.32407266070E+02 -0.24016303949E+02 -0.48280110886E+02  0.62912501593E+02  0.00000000000E+00 0. -1.
          1    1    1    2  502    0 -0.59044609448E+02 -0.11800725673E+02  0.14248225137E+03  0.15468262665E+03  0.00000000000E+00 0. -1.
         22    1    3    3    0    0  0.44133465957E+02  0.31124032807E+02  0.25099463437E+02  0.59552088968E+02  0.00000000000E+00 0.  1.
         22    1    3    3    0    0  0.47318409560E+02  0.46929968154E+01 -0.11187008952E+03  0.12155646027E+03  0.00000000000E+00 0.  1.
</event>
<event>
 7    1  0.4915160E-006  0.4567228E+02  0.7818608E-02  0.1535598E+00
          2   -1    0    0  502    0  0.00000000000E+00  0.00000000000E+00  0.25970817043E+03  0.25970817043E+03  0.00000000000E+00 0. -1.
          1   -1    0    0  501    0 -0.00000000000E+00 -0.00000000000E+00 -0.13642826450E+03  0.13642826450E+03  0.00000000000E+00 0. -1.
         25    2    1    2    0    0  0.25854619970E+02 -0.31699204050E+02  0.11184806219E+02  0.13199658767E+03  0.12499879342E+03 0.  0.
          2    1    1    2  501    0  0.19388360257E+02  0.21812007013E+02 -0.70215768625E+02  0.76038978998E+02  0.00000000000E+00 0. -1.
          1    1    1    2  502    0 -0.45242980228E+02  0.98871970368E+01  0.18231086834E+03  0.18810086826E+03  0.00000000000E+00 0. -1.
         22    1    3    3    0    0 -0.24409252353E+02  0.36225568227E+02 -0.10148696082E+02  0.44845283207E+02  0.00000000000E+00 0.  1.
         22    1    3    3    0    0  0.50263872324E+02 -0.67924772277E+02  0.21333502301E+02  0.87151304467E+02  0.00000000000E+00 0.  1.
</event>
<event>
 7    1  0.4915160E-006  0.6369462E+02  0.7818608E-02  0.1496977E+00
          2   -1    0    0  502    0  0.00000000000E+00  0.00000000000E+00  0.41912614745E+03  0.41912614745E+03  0.00000000000E+00 0. -1.
          1   -1    0    0  501    0 -0.00000000000E+00 -0.00000000000E+00 -0.67812754303E+02  0.67812754303E+02  0.00000000000E+00 0. -1.
         25    2    1    2    0    0 -0.97421632555E+01  0.80389524762E+02  0.50796252333E+02  0.15735990318E+03  0.12499797775E+03 0.  0.
          2    1    1    2  501    0  0.71654144032E+00 -0.54806583676E+02  0.40500641698E+02  0.68151133694E+02  0.00000000000E+00 0. -1.
          1    1    1    2  502    0  0.90256218152E+01 -0.25582941086E+02  0.26001649912E+03  0.26142786488E+03  0.00000000000E+00 0. -1.
         22    1    3    3    0    0 -0.64743609118E+02  0.64462211521E+02  0.36157404795E+02  0.98257160336E+02  0.00000000000E+00 0. -1.
         22    1    3    3    0    0  0.55001445863E+02  0.15927313241E+02  0.14638847538E+02  0.59102742841E+02  0.00000000000E+00 0. -1.
</event>
<event>
 7    1  0.4915160E-006  0.6903516E+02  0.7818608E-02  0.1448251E+00
          2   -1    0    0  502    0  0.00000000000E+00  0.00000000000E+00  0.79513406715E+03  0.79513406715E+03  0.00000000000E+00 0. -1.
          1   -1    0    0  501    0 -0.00000000000E+00 -0.00000000000E+00 -0.16718912649E+04  0.16718912649E+04  0.00000000000E+00 0. -1.
         25    2    1    2    0    0 -0.76906271832E+02 -0.94477129742E+01  0.44845423738E+03  0.47195302443E+03  0.12499848126E+03 0.  0.
          2    1    1    2  501    0  0.20306768056E+02 -0.29047812251E+02 -0.16564530294E+04  0.16568321517E+04  0.00000000000E+00 0. -1.
          1    1    1    2  502    0  0.56599503777E+02  0.38495525226E+02  0.33124159429E+03  0.33824015592E+03  0.00000000000E+00 0. -1.
         22    1    3    3    0    0 -0.12042188900E+02 -0.10083140329E+02  0.36921482564E+03  0.36954874036E+03  0.00000000000E+00 0. -1.
         22    1    3    3    0    0 -0.64864082932E+02  0.63542735506E+00  0.79239411743E+02  0.10240428407E+03  0.00000000000E+00 0. -1.
</event>
<event>
 7    1  0.4915160E-006  0.1770650E+03  0.7818608E-02  0.1213051E+00
          2   -1    0    0  502    0  0.00000000000E+00  0.00000000000E+00  0.78286726912E+03  0.78286726912E+03  0.00000000000E+00 0. -1.
          1   -1    0    0  501    0 -0.00000000000E+00 -0.00000000000E+00 -0.11156172063E+04  0.11156172063E+04  0.00000000000E+00 0. -1.
         25    2    1    2    0    0  0.82503162135E+02 -0.19362288058E+03 -0.15120253179E+03  0.28771959935E+03  0.12499508224E+03 0.  0.
          2    1    1    2  501    0 -0.14428198831E+03  0.10137770901E+03 -0.88307387792E+03  0.90050774894E+03  0.00000000000E+00 0. -1.
          1    1    1    2  502    0  0.61778826173E+02  0.92245171578E+02  0.70152647251E+03  0.71025712715E+03  0.00000000000E+00 0. -1.
         22    1    3    3    0    0  0.10773626511E+03 -0.99618177050E+02 -0.10161211322E+03  0.17848222761E+03  0.00000000000E+00 0.  1.
         22    1    3    3    0    0 -0.25233102975E+02 -0.94004703534E+02 -0.49590418566E+02  0.10923737175E+03  0.00000000000E+00 0.  1.
</event>
<event>
 7    1  0.6380500E-006  0.7680299E+02  0.7818608E-02  0.1451115E+00
          2   -1    0    0  502    0  0.00000000000E+00  0.00000000000E+00  0.62450850988E+03  0.62450850988E+03  0.00000000000E+00 0. -1.
          1   -1    0    0  501    0 -0.00000000000E+00 -0.00000000000E+00 -0.15710684124E+04  0.15710684124E+04  0.00000000000E+00 0. -1.
         25    2    1    2    0    0  0.48940048033E+02 -0.16781061437E+02 -0.24273882390E+03  0.27789125579E+03  0.12499872438E+03 0.  0.
          2    1    1    2  501    0  0.13785121323E+02 -0.27980466757E+02 -0.13081207839E+04  0.13084926142E+04  0.00000000000E+00 0. -1.
          1    1    1    2  502    0 -0.62725169356E+02  0.44761528194E+02  0.60429970523E+03  0.60919305234E+03  0.00000000000E+00 0. -1.
         22    1    3    3    0    0 -0.38950180257E+02  0.95551941798E+01 -0.47488490602E+02  0.62157662581E+02  0.00000000000E+00 0.  1.
         22    1    3    3    0    0  0.87890228290E+02 -0.26336255617E+02 -0.19525033329E+03  0.21573359321E+03  0.00000000000E+00 0.  1.
</event>
<event>
 7    1  0.4915160E-006  0.9466866E+02  0.7818608E-02  0.1368453E+00
          2   -1    0    0  502    0  0.00000000000E+00  0.00000000000E+00  0.19483557463E+04  0.19483557463E+04  0.00000000000E+00 0. -1.
          1   -1    0    0  501    0 -0.00000000000E+00 -0.00000000000E+00 -0.19584130139E+04  0.19584130139E+04  0.00000000000E+00 0. -1.
         25    2    1    2    0    0  0.13070926481E+03  0.56999009157E+02  0.12595348598E+04  0.12737300947E+04  0.12500596897E+03 0.  0.
          2    1    1    2  501    0 -0.84899030200E+02 -0.41786541559E+02 -0.19493118313E+04  0.19516071777E+04  0.00000000000E+00 0. -1.
          1    1    1    2  502    0 -0.45810234613E+02 -0.15212467598E+02  0.67971970393E+03  0.68143148788E+03  0.00000000000E+00 0. -1.
         22    1    3    3    0    0  0.84519853090E+02 -0.29523048541E+02  0.69440141925E+03  0.70014894631E+03  0.00000000000E+00 0. -1.
         22    1    3    3    0    0  0.46189411723E+02  0.86522057698E+02  0.56513344051E+03  0.57358114841E+03  0.00000000000E+00 0. -1.
</event>
<event>
 7    1  0.4915160E-006  0.1060339E+03  0.7818608E-02  0.1271120E+00
          2   -1    0    0  502    0  0.00000000000E+00  0.00000000000E+00  0.79099812399E+03  0.79099812399E+03  0.00000000000E+00 0. -1.
          1   -1    0    0  501    0 -0.00000000000E+00 -0.00000000000E+00 -0.30894183339E+03  0.30894183339E+03  0.00000000000E+00 0. -1.
         25    2    1    2    0    0 -0.25569227357E+02  0.12920409655E+02  0.26671904614E+01  0.12827112214E+03  0.12500257796E+03 0.  0.
          2    1    1    2  501    0  0.12620305953E+03  0.89165238212E+01 -0.22589238315E+03  0.25890941543E+03  0.00000000000E+00 0. -1.
          1    1    1    2  502    0 -0.10063383218E+03 -0.21836933477E+02  0.70528148329E+03  0.71275941981E+03  0.00000000000E+00 0. -1.
         22    1    3    3    0    0  0.28778766297E+02  0.38057790162E+02  0.35970175455E+02  0.59753379017E+02  0.00000000000E+00 0.  1.
         22    1    3    3    0    0 -0.54347993654E+02 -0.25137380507E+02 -0.33302984994E+02  0.68517743121E+02  0.00000000000E+00 0.  1.
</event>
<event>
 7    1  0.4915160E-006  0.8915713E+02  0.7818608E-02  0.1421773E+00
          2   -1    0    0  502    0  0.00000000000E+00  0.00000000000E+00  0.44499016595E+02  0.44499016595E+02  0.00000000000E+00 0. -1.
          1   -1    0    0  501    0 -0.00000000000E+00 -0.00000000000E+00 -0.17293666471E+04  0.17293666471E+04  0.00000000000E+00 0. -1.
         25    2    1    2    0    0 -0.10265981781E+03  0.52802144263E+02 -0.48395836677E+03  0.51299694160E+03  0.12499222651E+03 0.  0.
          2    1    1    2  501    0  0.82525819375E+02 -0.26033302410E+02 -0.12194956602E+04  0.12225620266E+04  0.00000000000E+00 0. -1.
          1    1    1    2  502    0  0.20133998439E+02 -0.26768841853E+02  0.18586396442E+02  0.38306695499E+02  0.00000000000E+00 0. -1.
         22    1    3    3    0    0 -0.97360096546E+02  0.69068481293E+02 -0.23621782334E+03  0.26466640054E+03  0.00000000000E+00 0.  1.
         22    1    3    3    0    0 -0.52997212687E+01 -0.16266337030E+02 -0.24774054343E+03  0.24833054106E+03  0.00000000000E+00 0.  1.
</event>
<event>
 7    1  0.4915160E-006  0.1104738E+03  0.7818608E-02  0.1454244E+00
          2   -1    0    0  502    0  0.00000000000E+00  0.00000000000E+00  0.15306738472E+04  0.15306738472E+04  0.00000000000E+00 0. -1.
          1   -1    0    0  501    0 -0.00000000000E+00 -0.00000000000E+00 -0.10236976804E+03  0.10236976804E+03  0.00000000000E+00 0. -1.
         25    2    1    2    0    0 -0.12105706273E+03  0.17716005378E+02  0.93941782877E+03  0.95556036634E+03  0.12498434875E+03 0.  0.
          2    1    1    2  501    0  0.11011379598E+03  0.43288424644E+00 -0.61879195604E+02  0.12631021456E+03  0.00000000000E+00 0. -1.
          1    1    1    2  502    0  0.10943266749E+02 -0.18148889625E+02  0.55076544603E+03  0.55117303438E+03  0.00000000000E+00 0. -1.
         22    1    3    3    0    0  0.57370399906E+01 -0.77053249563E+01  0.27284767672E+01  0.99865031920E+01  0.00000000000E+00 0. -1.
         22    1    3    3    0    0 -0.12679410272E+03  0.25421330334E+02  0.93668935200E+03  0.94557386315E+03  0.00000000000E+00 0. -1.
</event>
<event>
 7    1  0.4915160E-006  0.8787281E+02  0.7818608E-02  0.1411780E+00
          2   -1    0    0  502    0  0.00000000000E+00  0.00000000000E+00  0.43530355076E+03  0.43530355076E+03  0.00000000000E+00 0. -1.
          1   -1    0    0  501    0 -0.00000000000E+00 -0.00000000000E+00 -0.23247807933E+04  0.23247807933E+04  0.00000000000E+00 0. -1.
         25    2    1    2    0    0  0.88192227625E+01 -0.50590552745E+02  0.13074647071E+03  0.18803068761E+03  0.12499486855E+03 0.  0.
          2    1    1    2  501    0 -0.15239116693E+02  0.86737871536E+02 -0.22940688065E+04  0.22957585627E+04  0.00000000000E+00 0. -1.
          1    1    1    2  502    0  0.64198939309E+01 -0.36147318790E+02  0.27384509330E+03  0.27629509373E+03  0.00000000000E+00 0. -1.
         22    1    3    3    0    0  0.29811322384E+02 -0.29214549887E+02 -0.10990050618E+02  0.43162322458E+02  0.00000000000E+00 0.  1.
         22    1    3    3    0    0 -0.20992099622E+02 -0.21376002858E+02  0.14173652133E+03  0.14486836516E+03  0.00000000000E+00 0.  1.
</event>
<event>
 7    1  0.5477283E-006  0.6670711E+02  0.7818608E-02  0.1410158E+00
          2   -1    0    0  502    0  0.00000000000E+00  0.00000000000E+00  0.72930703610E+03  0.72930703610E+03  0.00000000000E+00 0. -1.
          1   -1    0    0  501    0 -0.00000000000E+00 -0.00000000000E+00 -0.70566034622E+03  0.70566034622E+03  0.00000000000E+00 0. -1.
         25    2    1    2    0    0 -0.87997007723E+02  0.67627631173E+02 -0.23211957607E+03  0.28604446968E+03  0.12499988469E+03 0.  0.
          2    1    1    2  501    0  0.27238309247E+02 -0.40703923716E+02 -0.44365564926E+03  0.44635083737E+03  0.00000000000E+00 0. -1.
          1    1    1    2  502    0  0.60758698476E+02 -0.26923707457E+02  0.69942191522E+03  0.70257207527E+03  0.00000000000E+00 0. -1.
         22    1    3    3    0    0 -0.46055395424E+02  0.98307854754E+02 -0.19132695599E+03  0.21998076698E+03  0.00000000000E+00 0.  1.
         22    1    3    3    0    0 -0.41941612299E+02 -0.30680223581E+02 -0.40792620085E+02  0.66063702701E+02  0.00000000000E+00 0.  1.
</event>
<event>
 7    1  0.4915160E-006  0.7015064E+02  0.7818608E-02  0.1401395E+00
          2   -1    0    0  502    0  0.00000000000E+00  0.00000000000E+00  0.12575522448E+04  0.12575522448E+04  0.00000000000E+00 0. -1.
          1   -1    0    0  501    0 -0.00000000000E+00 -0.00000000000E+00 -0.31649476880E+02  0.31649476880E+02  0.00000000000E+00 0. -1.
         25    2    1    2    0    0  0.30081779650E+02  0.24945720144E+02  0.18565735792E+03  0.22720431949E+03  0.12500378324E+03 0.  0.
          2    1    1    2  501    0  0.17465001413E+02  0.46732932952E+02  0.86835514288E+03  0.86978712767E+03  0.00000000000E+00 0. -1.
          1    1    1    2  502    0 -0.47546781063E+02 -0.71678653096E+02  0.17189026709E+03  0.19221027449E+03  0.00000000000E+00 0. -1.
         22    1    3    3    0    0  0.76585890184E+02  0.27583299930E+02  0.14021181709E+03  0.16212831543E+03  0.00000000000E+00 0.  1.
         22    1    3    3    0    0 -0.46504110534E+02 -0.26375797861E+01  0.45445540823E+02  0.65076004060E+02  0.00000000000E+00 0.  1.
</event>
<event>
 7    1  0.4915160E-006  0.6946665E+02  0.7818608E-02  0.1417077E+00
          2   -1    0    0  502    0  0.00000000000E+00  0.00000000000E+00  0.36827528509E+04  0.36827528509E+04  0.00000000000E+00 0. -1.
          1   -1    0    0  501    0 -0.00000000000E+00 -0.00000000000E+00 -0.59632995402E+02  0.59632995402E+02  0.00000000000E+00 0. -1.
         25    2    1    2    0    0 -0.49394838590E+02 -0.85688833894E+02  0.90424799040E+03  0.91818958916E+03  0.12500106865E+03 0.  0.
          2    1    1    2  501    0  0.83025890114E+01  0.68423121317E+02 -0.29851375922E+02  0.75111657947E+02  0.00000000000E+00 0. -1.
          1    1    1    2  502    0  0.41092249578E+02  0.17265712577E+02  0.27487232410E+04  0.27490845992E+04  0.00000000000E+00 0. -1.
         22    1    3    3    0    0  0.13148738431E+02  0.25008852608E+02  0.98520391342E+02  0.10249194867E+03  0.00000000000E+00 0.  1.
         22    1    3    3    0    0 -0.62543577020E+02 -0.11069768650E+03  0.80572759906E+03  0.81569764050E+03  0.00000000000E+00 0.  1.
</event>
<event>
 7    1  0.4915160E-006  0.4187001E+02  0.7818608E-02  0.1503627E+00
          2   -1    0    0  502    0  0.00000000000E+00  0.00000000000E+00  0.13898985127E+04  0.13898985127E+04  0.00000000000E+00 0. -1.
          1   -1    0    0  501    0 -0.00000000000E+00 -0.00000000000E+00 -0.17644298334E+04  0.17644298334E+04  0.00000000000E+00 0. -1.
         25    2    1    2    0    0  0.72239668755E+02  0.23828071226E+02  0.29412843958E+03  0.32851405027E+03  0.12499438202E+03 0.  0.
          2    1    1    2  501    0 -0.32867812446E+02 -0.25899961496E+02 -0.17466260421E+04  0.17471272512E+04  0.00000000000E+00 0. -1.
          1    1    1    2  502    0 -0.39371856309E+02  0.20718902703E+01  0.10779662817E+04  0.10786870446E+04  0.00000000000E+00 0. -1.
         22    1    3    3    0    0 -0.11252263073E+02  0.10853021323E+02  0.20538732326E+03  0.20598144104E+03  0.00000000000E+00 0. -1.
         22    1    3    3    0    0  0.83491931828E+02  0.12975049903E+02  0.88741116321E+02  0.12253260924E+03  0.00000000000E+00 0. -1.
</event>
<event>
 7    1  0.4915160E-006  0.8084383E+02  0.7818608E-02  0.1396734E+00
          2   -1    0    0  502    0  0.00000000000E+00  0.00000000000E+00  0.47574636411E+03  0.47574636411E+03  0.00000000000E+00 0. -1.
          1   -1    0    0  501    0 -0.00000000000E+00 -0.00000000000E+00 -0.30261875799E+04  0.30261875799E+04  0.00000000000E+00 0. -1.
         25    2    1    2    0    0  0.55383089849E+02  0.85090322615E+02 -0.26281781731E+03  0.30823052258E+03  0.12500080124E+03 0.  0.
          2    1    1    2  501    0  0.13400718332E+02 -0.42875316026E+02 -0.27368834080E+04  0.27372520273E+04  0.00000000000E+00 0. -1.
          1    1    1    2  502    0 -0.68783808181E+02 -0.42215006589E+02  0.44926000952E+03  0.45645139413E+03  0.00000000000E+00 0. -1.
         22    1    3    3    0    0  0.29498475491E+02  0.10801002611E+03 -0.13283435804E+03  0.17372763877E+03  0.00000000000E+00 0.  1.
         22    1    3    3    0    0  0.25884614359E+02 -0.22919703498E+02 -0.12998345927E+03  0.13450288381E+03  0.00000000000E+00 0.  1.
</event>
<event>
 7    1  0.4915160E-006  0.9314331E+02  0.7818608E-02  0.1369653E+00
          2   -1    0    0  502    0  0.00000000000E+00  0.00000000000E+00  0.28195681150E+03  0.28195681150E+03  0.00000000000E+00 0. -1.
          1   -1    0    0  501    0 -0.00000000000E+00 -0.00000000000E+00 -0.50653269206E+03  0.50653269206E+03  0.00000000000E+00 0. -1.
         25    2    1    2    0    0  0.72863888630E+02  0.47011726401E+02 -0.13558047679E+03  0.20377688630E+03  0.12499481997E+03 0.  0.
          2    1    1    2  501    0 -0.96392014961E+02 -0.45156875357E+01 -0.32744389553E+03  0.34136683597E+03  0.00000000000E+00 0. -1.
          1    1    1    2  502    0  0.23528126331E+02 -0.42496038865E+02  0.23844849176E+03  0.24334578129E+03  0.00000000000E+00 0. -1.
         22    1    3    3    0    0  0.11836626236E+02  0.43294438530E+02  0.99076886936E+01  0.45963859972E+02  0.00000000000E+00 0. -1.
         22    1    3    3    0    0  0.61027262394E+02  0.37172878710E+01 -0.14548816548E+03  0.15781302633E+03  0.00000000000E+00 0. -1.
</event>
<event>
 7    1  0.4915160E-006  0.1162974E+03  0.7818608E-02  0.1305048E+00
          2   -1    0    0  502    0  0.00000000000E+00  0.00000000000E+00  0.18340956810E+04  0.18340956810E+04  0.00000000000E+00 0. -1.
          1   -1    0    0  501    0 -0.00000000000E+00 -0.00000000000E+00 -0.21229233877E+03  0.21229233877E+03  0.00000000000E+00 0. -1.
         25    2    1    2    0    0 -0.38457551825E+02 -0.44581547764E+02 -0.59696194256E+02  0.15050718012E+03  0.12498911139E+03 0.  0.
          2    1    1    2  501    0 -0.68089273185E+02 -0.48450634451E+01 -0.94182595391E+02  0.11631846387E+03  0.00000000000E+00 0. -1.
          1    1    1    2  502    0  0.10654682501E+03  0.49426611209E+02  0.17756821318E+04  0.17795623757E+04  0.00000000000E+00 0. -1.
         22    1    3    3    0    0 -0.18914050142E+02 -0.77831353545E+02 -0.74314520407E+02  0.10926165307E+03  0.00000000000E+00 0. -1.
         22    1    3    3    0    0 -0.19543501683E+02  0.33249805781E+02  0.14618326152E+02  0.41245527054E+02  0.00000000000E+00 0. -1.
</event>
<event>
 7    1  0.4915160E-006  0.1358274E+03  0.7818608E-02  0.1330318E+00
          2   -1    0    0  502    0  0.00000000000E+00  0.00000000000E+00  0.30519926070E+04  0.30519926070E+04  0.00000000000E+00 0. -1.
          1   -1    0    0  501    0 -0.00000000000E+00 -0.00000000000E+00 -0.13554170222E+04  0.13554170222E+04  0.00000000000E+00 0. -1.
         25    2    1    2    0    0  0.97185020319E+02  0.41367012935E+02  0.71040870950E+03  0.72901351720E+03  0.12499606313E+03 0.  0.
          2    1    1    2  501    0  0.43967468269E+02 -0.15429804621E+02 -0.13435025442E+04  0.13443103449E+04  0.00000000000E+00 0. -1.
          1    1    1    2  502    0 -0.14115248859E+03 -0.25937208314E+02  0.23296694195E+04  0.23340857670E+04  0.00000000000E+00 0. -1.
         22    1    3    3    0    0  0.88076421889E+02 -0.28926487527E+02  0.39274194163E+03  0.40353491855E+03  0.00000000000E+00 0. -1.
         22    1    3    3    0    0  0.91085984295E+01  0.70293500462E+02  0.31766676787E+03  0.32547859865E+03  0.00000000000E+00 0. -1.
</event>
<event>
 7    1  0.4915160E-006  0.5338875E+03  0.7818608E-02  0.1142538E+00
          2   -1    0    0  502    0  0.00000000000E+00  0.00000000000E+00  0.63395305734E+03  0.63395305734E+03  0.00000000000E+00 0. -1.
          1   -1    0    0  501    0 -0.00000000000E+00 -0.00000000000E+00 -0.83323188538E+03  0.83323188538E+03  0.00000000000E+00 0. -1.
         25    2    1    2    0    0  0.24074447674E+03  0.42824085266E+03 -0.16101020860E+03  0.53188123060E+03  0.12500090088E+03 0.  0.
          2    1    1    2  501    0  0.76502340776E+02  0.28511123796E+02 -0.30699215824E+03  0.31766283627E+03  0.00000000000E+00 0. -1.
          1    1    1    2  502    0 -0.31724681752E+03 -0.45675197646E+03  0.26872353880E+03  0.61764087585E+03  0.00000000000E+00 0. -1.
         22    1    3    3    0    0  0.24259357415E+02  0.35264368629E+02 -0.57070738960E+02  0.71338358282E+02  0.00000000000E+00 0. -1.
         22    1    3    3    0    0  0.21648511933E+03  0.39297648403E+03 -0.10393946964E+03  0.46054287232E+03  0.00000000000E+00 0. -1.
</event>
<event>
 7    1  0.4915160E-006  0.8097008E+02  0.7818608E-02  0.1409587E+00
          2   -1    0    0  502    0  0.00000000000E+00  0.00000000000E+00  0.24257776768E+03  0.24257776768E+03  0.00000000000E+00 0. -1.
          1   -1    0    0  501    0 -0.00000000000E+00 -0.00000000000E+00 -0.14442979459E+04  0.14442979459E+04  0.00000000000E+00 0. -1.
         25    2    1    2    0    0  0.66992569930E+02 -0.24058169878E+02  0.14276200057E+03  0.20266198231E+03  0.12499636116E+03 0.  0.
          2    1    1    2  501    0 -0.79813336027E+02 -0.14390391509E+02 -0.14072026027E+04  0.14095376608E+04  0.00000000000E+00 0. -1.
          1    1    1    2  502    0  0.12820766097E+02  0.38448561387E+02  0.62720423973E+02  0.74676070460E+02  0.00000000000E+00 0. -1.
         22    1    3    3    0    0  0.37917380956E+02 -0.32067688206E+02 -0.67702191221E+01  0.50118861444E+02  0.00000000000E+00 0. -1.
         22    1    3    3    0    0  0.29075188974E+02  0.80095183279E+01  0.14953221970E+03  0.15254312087E+03  0.00000000000E+00 0. -1.
</event>
<event>
 7    1  0.4915160E-006  0.1614102E+03  0.7818608E-02  0.1333003E+00
          2   -1    0    0  502    0  0.00000000000E+00  0.00000000000E+00  0.75297665205E+03  0.75297665205E+03  0.00000000000E+00 0. -1.
          1   -1    0    0  501    0 -0.00000000000E+00 -0.00000000000E+00 -0.26155107809E+03  0.26155107809E+03  0.00000000000E+00 0. -1.
         25    2    1    2    0    0  0.23377487940E+02  0.13293349907E+03  0.20626478903E+03  0.27638439577E+03  0.12500139563E+03 0.  0.
          2    1    1    2  501    0 -0.22651182466E+01  0.38231024039E+02 -0.21017872997E+03  0.21363951060E+03  0.00000000000E+00 0. -1.
          1    1    1    2  502    0 -0.21112369693E+02 -0.17116452311E+03  0.49533951489E+03  0.52450382376E+03  0.00000000000E+00 0. -1.
         22    1    3    3    0    0 -0.23278392465E+01  0.14246633722E+03  0.20405625434E+03  0.24887955121E+03  0.00000000000E+00 0. -1.
         22    1    3    3    0    0  0.25705327186E+02 -0.95328381421E+01  0.22085346985E+01  0.27504844561E+02  0.00000000000E+00 0. -1.
</event>
<event>
 7    1  0.4915160E-006  0.6685251E+02  0.7818608E-02  0.1442593E+00
          2   -1    0    0  502    0  0.00000000000E+00  0.00000000000E+00  0.21021620304E+03  0.21021620304E+03  0.00000000000E+00 0. -1.
          1   -1    0    0  501    0 -0.00000000000E+00 -0.00000000000E+00 -0.79161495958E+03  0.79161495958E+03  0.00000000000E+00 0. -1.
         25    2    1    2    0    0 -0.37810566262E+01  0.36971177538E+02 -0.45747719942E+03  0.47570094677E+03  0.12499935365E+03 0.  0.
          2    1    1    2  501    0 -0.32842046687E+02  0.19445921171E+02 -0.31822936525E+03  0.32051001980E+03  0.00000000000E+00 0. -1.
          1    1    1    2  502    0  0.36623103313E+02 -0.56417098710E+02  0.19430780813E+03  0.20562019605E+03  0.00000000000E+00 0. -1.
         22    1    3    3    0    0 -0.34030558166E+02  0.34065604293E+02 -0.59397909354E+02  0.76463428648E+02  0.00000000000E+00 0.  1.
         22    1    3    3    0    0  0.30249501540E+02  0.29055732451E+01 -0.39807929007E+03  0.39923751813E+03  0.00000000000E+00 0.  1.
</event>
<event>
 7    1  0.4915160E-006  0.2976192E+02  0.7818608E-02  0.1640288E+00
          2   -1    0    0  502    0  0.00000000000E+00  0.00000000000E+00  0.26296247570E+04  0.26296247570E+04  0.00000000000E+00 0. -1.
          1   -1    0    0  501    0 -0.00000000000E+00 -0.00000000000E+00 -0.78549906500E+02  0.78549906500E+02  0.00000000000E+00 0. -1.
         25    2    1    2    0    0  0.28181715352E+02  0.14251861304E+02  0.59198582906E+03  0.60586283098E+03  0.12500089409E+03 0.  0.
          2    1    1    2  501    0  0.19537411201E+00 -0.23602752050E+02 -0.69553437585E+02  0.73449361844E+02  0.00000000000E+00 0. -1.
          1    1    1    2  502    0 -0.28377089464E+02  0.93508907469E+01  0.20286424591E+04  0.20288624707E+04  0.00000000000E+00 0. -1.
         22    1    3    3    0    0 -0.86413228487E+01  0.64314305545E+02  0.25053983643E+03  0.25880728737E+03  0.00000000000E+00 0. -1.
         22    1    3    3    0    0  0.36823038200E+02 -0.50062444241E+02  0.34144599263E+03  0.34705554361E+03  0.00000000000E+00 0. -1.
</event>
<event>
 7    1  0.4915160E-006  0.4053682E+02  0.7818608E-02  0.1556183E+00
          2   -1    0    0  502    0  0.00000000000E+00  0.00000000000E+00  0.16015995214E+03  0.16015995214E+03  0.00000000000E+00 0. -1.
          1   -1    0    0  501    0 -0.00000000000E+00 -0.00000000000E+00 -0.65462831996E+03  0.65462831996E+03  0.00000000000E+00 0. -1.
         25    2    1    2    0    0  0.28472620070E+01  0.32267994754E+02 -0.19653082573E+03  0.23515745637E+03  0.12500133374E+03 0.  0.
          2    1    1    2  501    0 -0.31187773935E+02 -0.27215391819E+02 -0.43632342668E+03  0.43828242888E+03  0.00000000000E+00 0. -1.
          1    1    1    2  502    0  0.28340511928E+02 -0.50526029352E+01  0.13838588459E+03  0.14134838685E+03  0.00000000000E+00 0. -1.
         22    1    3    3    0    0 -0.48666210565E+01 -0.14091391715E+02 -0.18650917696E+03  0.18710404702E+03  0.00000000000E+00 0.  1.
         22    1    3    3    0    0  0.77138830634E+01  0.46359386469E+02 -0.10021648770E+02  0.48053409346E+02  0.00000000000E+00 0.  1.
</event>
<event>
 7    1  0.4915160E-006  0.5212493E+02  0.7818608E-02  0.1493925E+00
          2   -1    0    0  502    0  0.00000000000E+00  0.00000000000E+00  0.12683947836E+04  0.12683947836E+04  0.00000000000E+00 0. -1.
          1   -1    0    0  501    0 -0.00000000000E+00 -0.00000000000E+00 -0.17882201026E+03  0.17882201026E+03  0.00000000000E+00 0. -1.
         25    2    1    2    0    0 -0.50610232378E+02 -0.27770465747E+02  0.97342770434E+03  0.98311757676E+03  0.12500431901E+03 0.  0.
          2    1    1    2  501    0  0.51791209070E+02 -0.60657010165E+01 -0.16904583533E+03  0.17690567121E+03  0.00000000000E+00 0. -1.
          1    1    1    2  502    0 -0.11809766922E+01  0.33836166763E+02  0.28519090432E+03  0.28719354588E+03  0.00000000000E+00 0. -1.
         22    1    3    3    0    0 -0.88171747914E+02 -0.16829799581E+01  0.74135994504E+03  0.74658667123E+03  0.00000000000E+00 0. -1.
         22    1    3    3    0    0  0.37561515536E+02 -0.26087485789E+02  0.23206775930E+03  0.23653090553E+03  0.00000000000E+00 0. -1.
</event>
<event>
 7    1  0.4915160E-006  0.6958926E+02  0.7818608E-02  0.1457069E+00
          2   -1    0    0  502    0  0.00000000000E+00  0.00000000000E+00  0.71002126308E+03  0.71002126308E+03  0.00000000000E+00 0. -1.
          1   -1    0    0  501    0 -0.00000000000E+00 -0.00000000000E+00 -0.13618033484E+04  0.13618033484E+04  0.00000000000E+00 0. -1.
         25    2    1    2    0    0  0.10279876145E+02 -0.93811304582E+02 -0.76870298299E+02  0.17446802715E+03  0.12499525197E+03 0.  0.
          2    1    1    2  501    0  0.15038102538E+02  0.29325382488E+02 -0.12340989909E+04  0.12345389593E+04  0.00000000000E+00 0. -1.
          1    1    1    2  502    0 -0.25317978683E+02  0.64485922094E+02  0.65918720394E+03  0.66281762502E+03  0.00000000000E+00 0. -1.
         22    1    3    3    0    0 -0.19954781201E+02 -0.11627422217E+03 -0.66387833630E+02  0.13537072242E+03  0.00000000000E+00 0.  1.
         22    1    3    3    0    0  0.30234657346E+02  0.22462917588E+02 -0.10482464669E+02  0.39097304728E+02  0.00000000000E+00 0.  1.
</event>
<event>
 7    1  0.5504456E-006  0.5236026E+02  0.7818608E-02  0.1500543E+00
          2   -1    0    0  502    0  0.00000000000E+00  0.00000000000E+00  0.53641518526E+03  0.53641518526E+03  0.00000000000E+00 0. -1.
          1   -1    0    0  501    0 -0.00000000000E+00 -0.00000000000E+00 -0.23413136726E+04  0.23413136726E+04  0.00000000000E+00 0. -1.
         25    2    1    2    0    0  0.39522067482E+02  0.54205855801E+02 -0.36663260678E+03  0.39311955332E+03  0.12499298471E+03 0.  0.
          2    1    1    2  501    0  0.75383611373E+01 -0.31305801209E+02 -0.19599961254E+04  0.19602606183E+04  0.00000000000E+00 0. -1.
          1    1    1    2  502    0 -0.47060428619E+02 -0.22900054592E+02  0.52173024481E+03  0.52434868627E+03  0.00000000000E+00 0. -1.
         22    1    3    3    0    0  0.75679241233E+02  0.32587589241E+02 -0.13871780843E+03  0.16134413191E+03  0.00000000000E+00 0. -1.
         22    1    3    3    0    0 -0.36157173751E+02  0.21618266560E+02 -0.22791479835E+03  0.23177542141E+03  0.00000000000E+00 0. -1.
</event>
<event>
 7    1  0.4915160E-006  0.1549267E+03  0.7818608E-02  0.1303138E+00
          2   -1    0    0  502    0  0.00000000000E+00  0.00000000000E+00  0.50390418902E+03  0.50390418902E+03  0.00000000000E+00 0. -1.
          1   -1    0    0  501    0 -0.00000000000E+00 -0.00000000000E+00 -0.34612784791E+03  0.34612784791E+03  0.00000000000E+00 0. -1.
         25    2    1    2    0    0  0.78272565308E+02  0.17231935089E+03  0.24933829874E+03  0.33707343664E+03  0.12501344446E+03 0.  0.
          2    1    1    2  501    0 -0.18718399860E+02 -0.48670347701E+02 -0.27721932130E+03  0.28208107583E+03  0.00000000000E+00 0. -1.
          1    1    1    2  502    0 -0.59554165448E+02 -0.12364900319E+03  0.18565736368E+03  0.23087752446E+03  0.00000000000E+00 0. -1.
         22    1    3    3    0    0 -0.27153122972E+02  0.36847959018E+02  0.98267136015E+02  0.10840430892E+03  0.00000000000E+00 0.  1.
         22    1    3    3    0    0  0.10542568828E+03  0.13547139187E+03  0.15107116273E+03  0.22866912772E+03  0.00000000000E+00 0.  1.
</event>
<event>
 7    1  0.4915160E-006  0.8683681E+02  0.7818608E-02  0.1335723E+00
          2   -1    0    0  502    0  0.00000000000E+00  0.00000000000E+00  0.18350002059E+04  0.18350002059E+04  0.00000000000E+00 0. -1.
          1   -1    0    0  501    0 -0.00000000000E+00 -0.00000000000E+00 -0.27041854159E+02  0.27041854159E+02  0.00000000000E+00 0. -1.
         25    2    1    2    0    0  0.78299146655E+02  0.17185772112E+02  0.29214462634E+03  0.32771781920E+03  0.12499751676E+03 0.  0.
          2    1    1    2  501    0 -0.63755285326E+02 -0.85162923036E+02  0.33544354335E+03  0.35190883854E+03  0.00000000000E+00 0. -1.
          1    1    1    2  502    0 -0.14543861329E+02  0.67977150924E+02  0.11803701820E+04  0.11824154023E+04  0.00000000000E+00 0. -1.
         22    1    3    3    0    0  0.57955878583E+02 -0.69202022420E+00  0.32077716357E+02  0.66244566879E+02  0.00000000000E+00 0. -1.
         22    1    3    3    0    0  0.20343268072E+02  0.17877792336E+02  0.26006690998E+03  0.26147325232E+03  0.00000000000E+00 0. -1.
</event>
<event>
 7    1  0.4915160E-006  0.6327356E+02  0.7818608E-02  0.1402453E+00
          2   -1    0    0  502    0  0.00000000000E+00  0.00000000000E+00  0.12903507048E+04  0.12903507048E+04  0.00000000000E+00 0. -1.
          1   -1    0    0  501    0 -0.00000000000E+00 -0.00000000000E+00 -0.22921949748E+03  0.22921949748E+03  0.00000000000E+00 0. -1.
         25    2    1    2    0    0  0.36358667332E+02  0.85362441503E+02 -0.56749761691E+02  0.16569270362E+03  0.12499934988E+03 0.  0.
          2    1    1    2  501    0  0.12140698233E+02 -0.59738942421E+02 -0.10947134242E+03  0.12530009021E+03  0.00000000000E+00 0. -1.
          1    1    1    2  502    0 -0.48499365565E+02 -0.25623499083E+02  0.12273523114E+04  0.12285774084E+04  0.00000000000E+00 0. -1.
         22    1    3    3    0    0 -0.97644311555E+01  0.41900196213E+02  0.34117221400E+02  0.54908609112E+02  0.00000000000E+00 0.  1.
         22    1    3    3    0    0  0.46123098488E+02  0.43462245290E+02 -0.90866983091E+02  0.11078409451E+03  0.00000000000E+00 0.  1.
</event>
<event>
 7    1  0.4915160E-006  0.2751490E+03  0.7818608E-02  0.1273412E+00
          2   -1    0    0  502    0  0.00000000000E+00  0.00000000000E+00  0.46888291156E+03  0.46888291156E+03  0.00000000000E+00 0. -1.
          1   -1    0    0  501    0 -0.00000000000E+00 -0.00000000000E+00 -0.13042980097E+04  0.13042980097E+04  0.00000000000E+00 0. -1.
         25    2    1    2    0    0 -0.22635292845E+03  0.92879718476E+02 -0.56897246171E+01  0.27480930447E+03  0.12500196213E+03 0.  0.
          2    1    1    2  501    0  0.25016783810E+03 -0.12353281713E+03 -0.11461269020E+04  0.11795978889E+04  0.00000000000E+00 0. -1.
          1    1    1    2  502    0 -0.23814909646E+02  0.30653098652E+02  0.31640152844E+03  0.31877372787E+03  0.00000000000E+00 0. -1.
         22    1    3    3    0    0 -0.24215072923E+03  0.90805756581E+02 -0.28969763306E+01  0.25863304809E+03  0.00000000000E+00 0.  1.
         22    1    3    3    0    0  0.15797800780E+02  0.20739618950E+01 -0.27927482865E+01  0.16176256378E+02  0.00000000000E+00 0.  1.
</event>
<event>
 7    1  0.4915160E-006  0.1942803E+03  0.7818608E-02  0.1174684E+00
          2   -1    0    0  502    0  0.00000000000E+00  0.00000000000E+00  0.37826132222E+04  0.37826132222E+04  0.00000000000E+00 0. -1.
          1   -1    0    0  501    0 -0.00000000000E+00 -0.00000000000E+00 -0.19392819439E+03  0.19392819439E+03  0.00000000000E+00 0. -1.
         25    2    1    2    0    0 -0.22902639890E+03  0.21873526177E+03  0.18121501316E+03  0.38569655227E+03  0.12499897320E+03 0.  0.
          2    1    1    2  501    0  0.11930869705E+03 -0.11042251750E+03 -0.16503963109E+02  0.16340158616E+03  0.00000000000E+00 0. -1.
          1    1    1    2  502    0  0.10971770185E+03 -0.10831274427E+03  0.34239739778E+04  0.34274432782E+04  0.00000000000E+00 0. -1.
         22    1    3    3    0    0 -0.84154277862E+02  0.19933774136E+02  0.85883203050E+02  0.12188200195E+03  0.00000000000E+00 0. -1.
         22    1    3    3    0    0 -0.14487212104E+03  0.19880148764E+03  0.95331810114E+02  0.26381455032E+03  0.00000000000E+00 0. -1.
</event>
<event>
 7    1  0.4915160E-006  0.9751259E+02  0.7818608E-02  0.1374081E+00
          2   -1    0    0  502    0  0.00000000000E+00  0.00000000000E+00  0.70828519363E+03  0.70828519363E+03  0.00000000000E+00 0. -1.
          1   -1    0    0  501    0 -0.00000000000E+00 -0.00000000000E+00 -0.75513674953E+02  0.75513674953E+02  0.00000000000E+00 0. -1.
         25    2    1    2    0    0 -0.12633787391E+03  0.22157902094E+02  0.44719206638E+03  0.48172340255E+03  0.12499784526E+03 0.  0.
          2    1    1    2  501    0  0.44693301970E+02 -0.18812829726E+01 -0.40815980579E+02  0.60555550837E+02  0.00000000000E+00 0. -1.
          1    1    1    2  502    0  0.81644571937E+02 -0.20276619122E+02  0.22639543287E+03  0.24151991519E+03  0.00000000000E+00 0. -1.
         22    1    3    3    0    0 -0.62812572189E+02  0.63816074403E+02  0.14748853792E+03  0.17254210905E+03  0.00000000000E+00 0.  1.
         22    1    3    3    0    0 -0.63525301718E+02 -0.41658172309E+02  0.29970352846E+03  0.30918129350E+03  0.00000000000E+00 0.  1.
</event>
<event>
 7    1  0.4915160E-006  0.1296348E+03  0.7818608E-02  0.1332155E+00
          2   -1    0    0  502    0  0.00000000000E+00  0.00000000000E+00  0.46136953936E+03  0.46136953936E+03  0.00000000000E+00 0. -1.
          1   -1    0    0  501    0 -0.00000000000E+00 -0.00000000000E+00 -0.41870272291E+03  0.41870272291E+03  0.00000000000E+00 0. -1.
         25    2    1    2    0    0 -0.12893695502E+02  0.11964971269E+03  0.69352381035E+02  0.18685956889E+03  0.12499777838E+03 0.  0.
          2    1    1    2  501    0 -0.48028399753E+02 -0.11104553126E+01 -0.34489222281E+03  0.34822206370E+03  0.00000000000E+00 0. -1.
          1    1    1    2  502    0  0.60922095255E+02 -0.11853925737E+03  0.31820665823E+03  0.34499062968E+03  0.00000000000E+00 0. -1.
         22    1    3    3    0    0 -0.35177536609E+02  0.11417248178E+03  0.61575529299E+01  0.11962746397E+03  0.00000000000E+00 0.  1.
         22    1    3    3    0    0  0.22283841106E+02  0.54772309080E+01  0.63194828105E+02  0.67232104921E+02  0.00000000000E+00 0.  1.
</event>
<event>
 7    1  0.4915160E-006  0.1193813E+03  0.7818608E-02  0.1263457E+00
          2   -1    0    0  502    0  0.00000000000E+00  0.00000000000E+00  0.72102524066E+03  0.72102524066E+03  0.00000000000E+00 0. -1.
          1   -1    0    0  501    0 -0.00000000000E+00 -0.00000000000E+00 -0.32644561595E+03  0.32644561595E+03  0.00000000000E+00 0. -1.
         25    2    1    2    0    0  0.33464388094E+02  0.17327938014E+02  0.26643652765E+02  0.13325242719E+03  0.12500480956E+03 0.  0.
          2    1    1    2  501    0  0.96723154077E+02 -0.18779811071E+02 -0.25732643772E+03  0.27554481557E+03  0.00000000000E+00 0. -1.
          1    1    1    2  502    0 -0.13018754217E+03  0.14518730561E+01  0.62526240967E+03  0.63867361384E+03  0.00000000000E+00 0. -1.
         22    1    3    3    0    0  0.71880501184E+02  0.33366701636E+01 -0.16487976296E+02  0.73822714530E+02  0.00000000000E+00 0. -1.
         22    1    3    3    0    0 -0.38416113090E+02  0.13991267851E+02  0.43131629061E+02  0.59429712657E+02  0.00000000000E+00 0. -1.
</event>
<event>
 7    1  0.4915160E-006  0.6896495E+02  0.7818608E-02  0.1373385E+00
          2   -1    0    0  502    0  0.00000000000E+00  0.00000000000E+00  0.21274251931E+04  0.21274251931E+04  0.00000000000E+00 0. -1.
          1   -1    0    0  501    0 -0.00000000000E+00 -0.00000000000E+00 -0.46878469258E+02  0.46878469258E+02  0.00000000000E+00 0. -1.
         25    2    1    2    0    0  0.23169233457E+02 -0.46425202760E+02  0.12689045628E+03  0.18552157938E+03  0.12499982276E+03 0.  0.
          2    1    1    2  501    0 -0.81679056438E+02  0.99181503796E+01  0.83055497400E+02  0.11691045127E+03  0.00000000000E+00 0. -1.
          1    1    1    2  502    0  0.58509822981E+02  0.36507052380E+02  0.18706007701E+04  0.18718716317E+04  0.00000000000E+00 0. -1.
         22    1    3    3    0    0 -0.42671017595E+02 -0.54267520575E+02  0.64536235822E+02  0.94502408784E+02  0.00000000000E+00 0. -1.
         22    1    3    3    0    0  0.65840251053E+02  0.78423178150E+01  0.62354220458E+02  0.91019170598E+02  0.00000000000E+00 0. -1.
</event>
<event>
 7    1  0.4915160E-006  0.6469827E+02  0.7818608E-02  0.1439751E+00
          2   -1    0    0  502    0  0.00000000000E+00  0.00000000000E+00  0.50921643916E+03  0.50921643916E+03  0.00000000000E+00 0. -1.
          1   -1    0    0  501    0 -0.00000000000E+00 -0.00000000000E+00 -0.36619511550E+03  0.36619511550E+03  0.00000000000E+00 0. -1.
         25    2    1    2    0    0  0.45537326277E+02 -0.25253784582E+02  0.53293053749E+02  0.14552134067E+03  0.12499963717E+03 0.  0.
          2    1    1    2  501    0 -0.19319935475E+02 -0.35348002971E+02 -0.31613482118E+03  0.31869102024E+03  0.00000000000E+00 0. -1.
          1    1    1    2  502    0 -0.26217390803E+02  0.60601787554E+02  0.40586309109E+03  0.41119919375E+03  0.00000000000E+00 0. -1.
         22    1    3    3    0    0  0.51207403293E+01 -0.39404639132E+02  0.83934643215E+02  0.92865342827E+02  0.00000000000E+00 0.  1.
         22    1    3    3    0    0  0.40416585948E+02  0.14150854550E+02 -0.30641589466E+02  0.52655997846E+02  0.00000000000E+00 0.  1.
</event>
<event>
 7    1  0.4915160E-006  0.8250050E+02  0.7818608E-02  0.1402710E+00
          2   -1    0    0  502    0  0.00000000000E+00  0.00000000000E+00  0.28187978613E+03  0.28187978613E+03  0.00000000000E+00 0. -1.
          1   -1    0    0  501    0 -0.00000000000E+00 -0.00000000000E+00 -0.30284983807E+03  0.30284983807E+03  0.00000000000E+00 0. -1.
         25    2    1    2    0    0  0.10309321215E+03  0.29578762687E+02 -0.87589649477E+02  0.18654321426E+03  0.12499324181E+03 0.  0.
          2    1    1    2  501    0 -0.21809037332E+02 -0.35874498022E+02 -0.15576750733E+03  0.16132616049E+03  0.00000000000E+00 0. -1.
          1    1    1    2  502    0 -0.81284174813E+02  0.62957353353E+01  0.22238710487E+03  0.23686024945E+03  0.00000000000E+00 0. -1.
         22    1    3    3    0    0  0.19294009995E+02  0.30099644457E+02  0.26842635907E+02  0.44707656174E+02  0.00000000000E+00 0.  1.
         22    1    3    3    0    0  0.83799202151E+02 -0.52088176980E+00 -0.11443228538E+03  0.14183555808E+03  0.00000000000E+00 0.  1.
</event>
<event>
 7    1  0.4915160E-006  0.2923822E+02  0.7818608E-02  0.1617966E+00
          2   -1    0    0  502    0  0.00000000000E+00  0.00000000000E+00  0.14672164795E+03  0.14672164795E+03  0.00000000000E+00 0. -1.
          1   -1    0    0  501    0 -0.00000000000E+00 -0.00000000000E+00 -0.77053445175E+02  0.77053445175E+02  0.00000000000E+00 0. -1.
         25    2    1    2    0    0  0.27664338301E+02  0.83546188978E+01 -0.10833552655E+00  0.12829550245E+03  0.12499843576E+03 0.  0.
          2    1    1    2  501    0 -0.12127571879E+02 -0.30857585098E+02  0.20095012638E+02  0.38769551076E+02  0.00000000000E+00 0. -1.
          1    1    1    2  502    0 -0.15536766422E+02  0.22502966200E+02  0.49681525667E+02  0.56710039599E+02  0.00000000000E+00 0. -1.
         22    1    3    3    0    0 -0.22719378272E+02 -0.47257409502E+02  0.70787053590E+01  0.52910688632E+02  0.00000000000E+00 0. -1.
         22    1    3    3    0    0  0.50383716573E+02  0.55612028400E+02 -0.71870408855E+01  0.75384813823E+02  0.00000000000E+00 0. -1.
</event>
<event>
 7    1  0.4915160E-006  0.8816668E+02  0.7818608E-02  0.1311313E+00
          2   -1    0    0  502    0  0.00000000000E+00  0.00000000000E+00  0.48849660803E+03  0.48849660803E+03  0.00000000000E+00 0. -1.
          1   -1    0    0  501    0 -0.00000000000E+00 -0.00000000000E+00 -0.88528205510E+03  0.88528205510E+03  0.00000000000E+00 0. -1.
         25    2    1    2    0    0 -0.11071866612E+03  0.30932011313E+02 -0.14049120666E+03  0.22039599212E+03  0.12498480645E+03 0.  0.
          2    1    1    2  501    0  0.40489970595E+02 -0.78907693580E+02 -0.69797518433E+03  0.70358739313E+03  0.00000000000E+00 0. -1.
          1    1    1    2  502    0  0.70228695523E+02  0.47975682267E+02  0.44168094393E+03  0.44979527787E+03  0.00000000000E+00 0. -1.
         22    1    3    3    0    0 -0.62974857905E+02  0.10754378234E+02 -0.15409030489E+03  0.16680920670E+03  0.00000000000E+00 0. -1.
         22    1    3    3    0    0 -0.47743808213E+02  0.20177633080E+02  0.13599098228E+02  0.53586785423E+02  0.00000000000E+00 0. -1.
</event>
<event>
 7    1  0.4915160E-006  0.1168173E+03  0.7818608E-02  0.1269446E+00
          2   -1    0    0  502    0  0.00000000000E+00  0.00000000000E+00  0.16903725072E+04  0.16903725072E+04  0.00000000000E+00 0. -1.
          1   -1    0    0  501    0 -0.00000000000E+00 -0.00000000000E+00 -0.73931012871E+02  0.73931012871E+02  0.00000000000E+00 0. -1.
         25    2    1    2    0    0 -0.21365032695E+02 -0.40883840448E+02  0.28491110116E+03  0.31452590793E+03  0.12499703261E+03 0.  0.
          2    1    1    2  501    0  0.20382714589E+02 -0.92782504325E+02 -0.15396162110E+02  0.96234557050E+02  0.00000000000E+00 0. -1.
          1    1    1    2  502    0  0.98231810645E+00  0.13366634477E+03  0.13469265553E+04  0.13535430551E+04  0.00000000000E+00 0. -1.
         22    1    3    3    0    0  0.16414483828E+02  0.36156255793E+02  0.46516070606E+02  0.61159258800E+02  0.00000000000E+00 0.  1.
         22    1    3    3    0    0 -0.37779516523E+02 -0.77040096242E+02  0.23839503056E+03  0.25336664913E+03  0.00000000000E+00 0.  1.
</event>
<event>
 7    1  0.4915160E-006  0.1593736E+03  0.7818608E-02  0.1399610E+00
          2   -1    0    0  502    0  0.00000000000E+00  0.00000000000E+00  0.80773988782E+03  0.80773988782E+03  0.00000000000E+00 0. -1.
          1   -1    0    0  501    0 -0.00000000000E+00 -0.00000000000E+00 -0.38308175892E+03  0.38308175892E+03  0.00000000000E+00 0. -1.
         25    2    1    2    0    0 -0.14689696795E+03 -0.32233699760E+02 -0.46900931927E+02  0.20110269881E+03  0.12499946984E+03 0.  0.
          2    1    1    2  501    0 -0.12594084603E+02  0.18369353401E+02 -0.24980896278E+03  0.25079984449E+03  0.00000000000E+00 0. -1.
          1    1    1    2  502    0  0.15949105255E+03  0.13864346359E+02  0.72136802361E+03  0.73891910344E+03  0.00000000000E+00 0. -1.
         22    1    3    3    0    0 -0.77768436809E+02 -0.38861458637E+02  0.35003848617E+02  0.93719859950E+02  0.00000000000E+00 0. -1.
         22    1    3    3    0    0 -0.69128531138E+02  0.66277588767E+01 -0.81904780544E+02  0.10738283886E+03  0.00000000000E+00 0. -1.
</event>
<event>
 7    1  0.4915160E-006  0.5261566E+03  0.7818608E-02  0.1116702E+00
          2   -1    0    0  502    0  0.00000000000E+00  0.00000000000E+00  0.10868514532E+04  0.10868514532E+04  0.00000000000E+00 0. -1.
          1   -1    0    0  501    0 -0.00000000000E+00 -0.00000000000E+00 -0.97603407555E+03  0.97603407555E+03  0.00000000000E+00 0. -1.
         25    2    1    2    0    0  0.27156674970E+03 -0.54984947922E+03 -0.16843982567E+03  0.64813474387E+03  0.12499488790E+03 0.  0.
          2    1    1    2  501    0 -0.85628819746E+02  0.74955643720E+02 -0.48377150442E+03  0.49697636944E+03  0.00000000000E+00 0. -1.
          1    1    1    2  502    0 -0.18593792996E+03  0.47489383550E+03  0.76302870775E+03  0.91777441544E+03  0.00000000000E+00 0. -1.
         22    1    3    3    0    0  0.20311676815E+03 -0.34092157131E+03 -0.16069441189E+03  0.42814323924E+03  0.00000000000E+00 0.  1.
         22    1    3    3    0    0  0.68449981550E+02 -0.20892790791E+03 -0.77454137737E+01  0.21999150464E+03  0.00000000000E+00 0.  1.
</event>
<event>
 7    1  0.4915160E-006  0.7078301E+02  0.7818608E-02  0.1380286E+00
          2   -1    0    0  502    0  0.00000000000E+00  0.00000000000E+00  0.73363375625E+03  0.73363375625E+03  0.00000000000E+00 0. -1.
          1   -1    0    0  501    0 -0.00000000000E+00 -0.00000000000E+00 -0.17088707711E+03  0.17088707711E+03  0.00000000000E+00 0. -1.
         25    2    1    2    0    0 -0.27733965326E+02  0.17023977834E+02 -0.34513549982E+02  0.13369826696E+03  0.12500021121E+03 0.  0.
          2    1    1    2  501    0 -0.39140033370E+02 -0.43574125338E+02 -0.74754016324E+02  0.94967413189E+02  0.00000000000E+00 0. -1.
          1    1    1    2  502    0  0.66873998696E+02  0.26550147505E+02  0.67201424545E+03  0.67585515321E+03  0.00000000000E+00 0. -1.
         22    1    3    3    0    0  0.36564480048E+02  0.45613127428E+02 -0.10848027918E+02  0.59457533624E+02  0.00000000000E+00 0. -1.
         22    1    3    3    0    0 -0.64298445374E+02 -0.28589149594E+02 -0.23665522065E+02  0.74240733338E+02  0.00000000000E+00 0. -1.
</event>
<event>
 7    1  0.4915160E-006  0.8728804E+02  0.7818608E-02  0.1466143E+00
          2   -1    0    0  502    0  0.00000000000E+00  0.00000000000E+00  0.44623459435E+03  0.44623459435E+03  0.00000000000E+00 0. -1.
          1   -1    0    0  501    0 -0.00000000000E+00 -0.00000000000E+00 -0.40951308069E+03  0.40951308069E+03  0.00000000000E+00 0. -1.
         25    2    1    2    0    0 -0.59131726888E+02  0.88779652942E+02 -0.11817395977E+03  0.20240385207E+03  0.12499538657E+03 0.  0.
          2    1    1    2  501    0  0.22395070615E+02 -0.10183475279E+02 -0.24394194970E+03  0.24517935716E+03  0.00000000000E+00 0. -1.
          1    1    1    2  502    0  0.36736656274E+02 -0.78596177664E+02  0.39883742313E+03  0.40816446580E+03  0.00000000000E+00 0. -1.
         22    1    3    3    0    0  0.34201125709E+02  0.54715253524E+02 -0.39334264188E+02  0.75568910983E+02  0.00000000000E+00 0. -1.
         22    1    3    3    0    0 -0.93332852597E+02  0.34064399418E+02 -0.78839695582E+02  0.12683494109E+03  0.00000000000E+00 0. -1.
</event>
<event>
 7    1  0.4915160E-006  0.1205291E+03  0.7818608E-02  0.1333680E+00
          2   -1    0    0  502    0  0.00000000000E+00  0.00000000000E+00  0.16353240686E+04  0.16353240686E+04  0.00000000000E+00 0. -1.
          1   -1    0    0  501    0 -0.00000000000E+00 -0.00000000000E+00 -0.41372191621E+02  0.41372191621E+02  0.00000000000E+00 0. -1.
         25    2    1    2    0    0  0.37360687071E+02  0.11784708650E+03  0.51375454419E+03  0.54300201880E+03  0.12499481596E+03 0.  0.
          2    1    1    2  501    0 -0.80882389255E+02 -0.91288729400E+02  0.11655112540E+03  0.16870020106E+03  0.00000000000E+00 0. -1.
          1    1    1    2  502    0  0.43521702184E+02 -0.26558357105E+02  0.96364620736E+03  0.96499404032E+03  0.00000000000E+00 0. -1.
         22    1    3    3    0    0  0.37839194422E+02  0.10845150208E+03  0.51945440975E+03  0.53200227137E+03  0.00000000000E+00 0.  1.
         22    1    3    3    0    0 -0.47850735011E+00  0.93955844276E+01 -0.56998655654E+01  0.10999747428E+02  0.00000000000E+00 0.  1.
</event>
<event>
 7    1  0.4915160E-006  0.2517147E+03  0.7818608E-02  0.1190713E+00
          2   -1    0    0  502    0  0.00000000000E+00  0.00000000000E+00  0.25371584402E+04  0.25371584402E+04  0.00000000000E+00 0. -1.
          1   -1    0    0  501    0 -0.00000000000E+00 -0.00000000000E+00 -0.89161289785E+03  0.89161289785E+03  0.00000000000E+00 0. -1.
         25    2    1    2    0    0 -0.83251941919E+02 -0.26553397336E+03  0.77678360648E+03  0.83453969436E+03  0.12499821323E+03 0.  0.
          2    1    1    2  501    0  0.15577558220E+03  0.19746854504E+03 -0.84292929188E+03  0.87965314153E+03  0.00000000000E+00 0. -1.
          1    1    1    2  502    0 -0.72523640285E+02  0.68065428317E+02  0.17116912277E+04  0.17145785022E+04  0.00000000000E+00 0. -1.
         22    1    3    3    0    0 -0.87132804770E+02 -0.27762121106E+03  0.75739388046E+03  0.81136376100E+03  0.00000000000E+00 0.  1.
         22    1    3    3    0    0  0.38808628511E+01  0.12087237704E+02  0.19389726019E+02  0.23175933355E+02  0.00000000000E+00 0.  1.
</event>
<event>
 7    1  0.4915160E-006  0.4032204E+02  0.7818608E-02  0.1570698E+00
          2   -1    0    0  502    0  0.00000000000E+00  0.00000000000E+00  0.70500826261E+03  0.70500826261E+03  0.00000000000E+00 0. -1.
          1   -1    0    0  501    0 -0.00000000000E+00 -0.00000000000E+00 -0.21106958498E+03  0.21106958498E+03  0.00000000000E+00 0. -1.
         25    2    1    2    0    0  0.17137676088E+01 -0.14462176852E+02  0.63572253196E+02  0.14099374385E+03  0.12500285145E+03 0.  0.
          2    1    1    2  501    0 -0.21586564793E+01 -0.26319439665E+02 -0.17065216641E+03  0.17268333621E+03  0.00000000000E+00 0. -1.
          1    1    1    2  502    0  0.44488887052E+00  0.40781616518E+02  0.60101859085E+03  0.60240076753E+03  0.00000000000E+00 0. -1.
         22    1    3    3    0    0 -0.36072043024E+02 -0.59222897519E+01 -0.25023086760E+02  0.44299217542E+02  0.00000000000E+00 0. -1.
         22    1    3    3    0    0  0.37785810633E+02 -0.85398871005E+01  0.88595339956E+02  0.96694526312E+02  0.00000000000E+00 0. -1.
</event>
<event>
 7    1  0.4915160E-006  0.1525478E+03  0.7818608E-02  0.1199672E+00
          2   -1    0    0  502    0  0.00000000000E+00  0.00000000000E+00  0.17712614968E+04  0.17712614968E+04  0.00000000000E+00 0. -1.
          1   -1    0    0  501    0 -0.00000000000E+00 -0.00000000000E+00 -0.15530718180E+04  0.15530718180E+04  0.00000000000E+00 0. -1.
         25    2    1    2    0    0 -0.27279998122E+03 -0.11346506564E+03 -0.19817291501E+03  0.37708195034E+03  0.12499656859E+03 0.  0.
          2    1    1    2  501    0  0.14504543245E+03  0.33139045618E+02 -0.12576652617E+04  0.12664352665E+04  0.00000000000E+00 0. -1.
          1    1    1    2  502    0  0.12775454877E+03  0.80326020017E+02  0.16740278555E+04  0.16808160980E+04  0.00000000000E+00 0. -1.
         22    1    3    3    0    0 -0.55203652802E+02 -0.61210796980E+02 -0.69367659120E+01  0.82718339387E+02  0.00000000000E+00 0. -1.
         22    1    3    3    0    0 -0.21759632842E+03 -0.52254268655E+02 -0.19123614910E+03  0.29436361096E+03  0.00000000000E+00 0. -1.
</event>
<event>
 7    1  0.4915160E-006  0.1625004E+03  0.7818608E-02  0.1224521E+00
          2   -1    0    0  502    0  0.00000000000E+00  0.00000000000E+00  0.12517589758E+04  0.12517589758E+04  0.00000000000E+00 0. -1.
          1   -1    0    0  501    0 -0.00000000000E+00 -0.00000000000E+00 -0.13301487289E+04  0.13301487289E+04  0.00000000000E+00 0. -1.
         25    2    1    2    0    0 -0.88694305726E+02 -0.10149792427E+03 -0.48551803099E+02  0.19013092840E+03  0.12499593533E+03 0.  0.
          2    1    1    2  501    0  0.86151834465E+02 -0.63828926586E+02 -0.12026230509E+04  0.12073932553E+04  0.00000000000E+00 0. -1.
          1    1    1    2  502    0  0.25424712610E+01  0.16532685086E+03  0.11727851010E+04  0.11843835210E+04  0.00000000000E+00 0. -1.
         22    1    3    3    0    0  0.42133548200E+01  0.24108183231E+02  0.49918791057E+01  0.24977504169E+02  0.00000000000E+00 0. -1.
         22    1    3    3    0    0 -0.92907660546E+02 -0.12560610750E+03 -0.53543682204E+02  0.16515342423E+03  0.00000000000E+00 0. -1.
</event>
<event>
 7    1  0.4915160E-006  0.6009874E+02  0.7818608E-02  0.1453109E+00
          2   -1    0    0  502    0  0.00000000000E+00  0.00000000000E+00  0.48217621696E+03  0.48217621696E+03  0.00000000000E+00 0. -1.
          1   -1    0    0  501    0 -0.00000000000E+00 -0.00000000000E+00 -0.16117994246E+03  0.16117994246E+03  0.00000000000E+00 0. -1.
         25    2    1    2    0    0  0.73530055204E+02 -0.27658019124E+01  0.10731048971E+03  0.18043150057E+03  0.12500266604E+03 0.  0.
          2    1    1    2  501    0 -0.51899073610E+02 -0.30024327905E+02 -0.11617406433E+03  0.13073403280E+03  0.00000000000E+00 0. -1.
          1    1    1    2  502    0 -0.21630981594E+02  0.32790129818E+02  0.32985984912E+03  0.33219062606E+03  0.00000000000E+00 0. -1.
         22    1    3    3    0    0  0.38152054421E+02  0.46645496022E+02  0.10322033803E+03  0.11952330208E+03  0.00000000000E+00 0. -1.
         22    1    3    3    0    0  0.35378000783E+02 -0.49411297935E+02  0.40901516745E+01  0.60908198493E+02  0.00000000000E+00 0. -1.
</event>
<event>
 7    1  0.6056823E-006  0.5455497E+02  0.7818608E-02  0.1522354E+00
          2   -1    0    0  502    0  0.00000000000E+00  0.00000000000E+00  0.12745663794E+04  0.12745663794E+04  0.00000000000E+00 0. -1.
          1   -1    0    0  501    0 -0.00000000000E+00 -0.00000000000E+00 -0.43201367472E+03  0.43201367472E+03  0.00000000000E+00 0. -1.
         25    2    1    2    0    0 -0.35837414113E+02  0.38758757802E+01 -0.16933186028E+03  0.21353695092E+03  0.12500163136E+03 0.  0.
          2    1    1    2  501    0 -0.10949332877E+02  0.24314046012E+02 -0.23924261667E+03  0.24072409592E+03  0.00000000000E+00 0. -1.
          1    1    1    2  502    0  0.46786746990E+02 -0.28189921792E+02  0.12511271816E+04  0.12523190072E+04  0.00000000000E+00 0. -1.
         22    1    3    3    0    0 -0.42066027297E+02 -0.14729932442E+02 -0.15349865191E+01  0.44596835604E+02  0.00000000000E+00 0.  1.
         22    1    3    3    0    0  0.62286131832E+01  0.18605808223E+02 -0.16779687376E+03  0.16894011532E+03  0.00000000000E+00 0.  1.
</event>
<event>
 7    1  0.4915160E-006  0.6229462E+02  0.7818608E-02  0.1390338E+00
          2   -1    0    0  502    0  0.00000000000E+00  0.00000000000E+00  0.33375833552E+03  0.33375833552E+03  0.00000000000E+00 0. -1.
          1   -1    0    0  501    0 -0.00000000000E+00 -0.00000000000E+00 -0.24066602791E+04  0.24066602791E+04  0.00000000000E+00 0. -1.
         25    2    1    2    0    0  0.52333092974E+02 -0.10916887906E+03  0.91862097394E+02  0.19677544000E+03  0.12500132829E+03 0.  0.
          2    1    1    2  501    0 -0.15361604356E+02  0.60205060976E+02 -0.23488142296E+04  0.23496359109E+04  0.00000000000E+00 0. -1.
          1    1    1    2  502    0 -0.36971488618E+02  0.48963818088E+02  0.18405018865E+03  0.19400726376E+03  0.00000000000E+00 0. -1.
         22    1    3    3    0    0  0.90700500262E+02 -0.76963690083E+02  0.42144811327E+02  0.12619895190E+03  0.00000000000E+00 0.  1.
         22    1    3    3    0    0 -0.38367407288E+02 -0.32205188982E+02  0.49717286067E+02  0.70576488105E+02  0.00000000000E+00 0.  1.
</event>
<event>
 7    1  0.4915160E-006  0.3733988E+02  0.7818608E-02  0.1601776E+00
          2   -1    0    0  502    0  0.00000000000E+00  0.00000000000E+00  0.16722135760E+04  0.16722135760E+04  0.00000000000E+00 0. -1.
          1   -1    0    0  501    0 -0.00000000000E+00 -0.00000000000E+00 -0.49505074904E+03  0.49505074904E+03  0.00000000000E+00 0. -1.
         25    2    1    2    0    0 -0.24674278471E+02 -0.21250110545E+02 -0.13004445021E+03  0.18329263876E+03  0.12499698067E+03 0.  0.
          2    1    1    2  501    0  0.17791284090E+02 -0.15466289775E+02 -0.33775930968E+03  0.33858099058E+03  0.00000000000E+00 0. -1.
          1    1    1    2  502    0  0.68829943804E+01  0.36716400320E+02  0.16449665868E+04  0.16453906957E+04  0.00000000000E+00 0. -1.
         22    1    3    3    0    0 -0.18117170273E+02 -0.71480612048E+02 -0.51931426154E+02  0.90191921922E+02  0.00000000000E+00 0.  1.
         22    1    3    3    0    0 -0.65571081981E+01  0.50230501503E+02 -0.78113024054E+02  0.93100716840E+02  0.00000000000E+00 0.  1.
</event>
<event>
 7    1  0.4915160E-006  0.5334681E+02  0.7818608E-02  0.1461265E+00
          2   -1    0    0  502    0  0.00000000000E+00  0.00000000000E+00  0.73030443678E+03  0.73030443678E+03  0.00000000000E+00 0. -1.
          1   -1    0    0  501    0 -0.00000000000E+00 -0.00000000000E+00 -0.39322578745E+03  0.39322578745E+03  0.00000000000E+00 0. -1.
         25    2    1    2    0    0  0.18314195829E+02 -0.17154129815E+02  0.97259121216E+02  0.16035644179E+03  0.12500071129E+03 0.  0.
          2    1    1    2  501    0 -0.17993958046E+02 -0.37616074323E+02 -0.35922174997E+03  0.36163381648E+03  0.00000000000E+00 0. -1.
          1    1    1    2  502    0 -0.32023778325E+00  0.54770204138E+02  0.59904127808E+03  0.60153996597E+03  0.00000000000E+00 0. -1.
         22    1    3    3    0    0  0.73090271031E+00  0.51404740220E+02  0.64175604452E+02  0.82228278242E+02  0.00000000000E+00 0. -1.
         22    1    3    3    0    0  0.17583293119E+02 -0.68558870035E+02  0.33083516763E+02  0.78128163544E+02  0.00000000000E+00 0. -1.
</event>
<event>
 7    1  0.4915160E-006  0.4839524E+02  0.7818608E-02  0.1525803E+00
          2   -1    0    0  502    0  0.00000000000E+00  0.00000000000E+00  0.10729024846E+04  0.10729024846E+04  0.00000000000E+00 0. -1.
          1   -1    0    0  501    0 -0.00000000000E+00 -0.00000000000E+00 -0.92376267730E+02  0.92376267730E+02  0.00000000000E+00 0. -1.
         25    2    1    2    0    0 -0.46877466735E+02  0.51436667188E+02  0.18052900670E+03  0.23034488004E+03  0.12499925552E+03 0.  0.
          2    1    1    2  501    0  0.28490126360E+02 -0.71682463656E+01 -0.63573763143E+02  0.70033523517E+02  0.00000000000E+00 0. -1.
          1    1    1    2  502    0  0.18387340375E+02 -0.44268420822E+02  0.86357097328E+03  0.86490034875E+03  0.00000000000E+00 0. -1.
         22    1    3    3    0    0 -0.67299138694E+02  0.59718860339E+02  0.60769335687E+02  0.10857452974E+03  0.00000000000E+00 0.  1.
         22    1    3    3    0    0  0.20421671959E+02 -0.82821931517E+01  0.11975967102E+03  0.12177035029E+03  0.00000000000E+00 0.  1.
</event>
<event>
 7    1  0.4915160E-006  0.1173694E+03  0.7818608E-02  0.1287238E+00
          2   -1    0    0  502    0  0.00000000000E+00  0.00000000000E+00  0.48455644433E+03  0.48455644433E+03  0.00000000000E+00 0. -1.
          1   -1    0    0  501    0 -0.00000000000E+00 -0.00000000000E+00 -0.45703228962E+03  0.45703228962E+03  0.00000000000E+00 0. -1.
         25    2    1    2    0    0  0.18021918426E+03 -0.52695368781E+02  0.86606354258E+02  0.24162380710E+03  0.12500258914E+03 0.  0.
          2    1    1    2  501    0 -0.73452931819E+02  0.31153970412E+02 -0.36584280433E+03  0.37444206567E+03  0.00000000000E+00 0. -1.
          1    1    1    2  502    0 -0.10676625244E+03  0.21541398369E+02  0.30676060478E+03  0.32552286118E+03  0.00000000000E+00 0. -1.
         22    1    3    3    0    0 -0.13387290800E+01  0.23361513088E+02 -0.58905713336E+01  0.24129884375E+02  0.00000000000E+00 0.  1.
         22    1    3    3    0    0  0.18155791334E+03 -0.76056881869E+02  0.92496925591E+02  0.21749392272E+03  0.00000000000E+00 0.  1.
</event>
<event>
 7    1  0.4915160E-006  0.1300034E+03  0.7818608E-02  0.1311246E+00
          2   -1    0    0  502    0  0.00000000000E+00  0.00000000000E+00  0.35969916513E+03  0.35969916513E+03  0.00000000000E+00 0. -1.
          1   -1    0    0  501    0 -0.00000000000E+00 -0.00000000000E+00 -0.87144822048E+03  0.87144822048E+03  0.00000000000E+00 0. -1.
         25    2    1    2    0    0 -0.87329781073E+02 -0.13117024059E+03  0.17331531412E+03  0.26550989268E+03  0.12500072930E+03 0.  0.
          2    1    1    2  501    0 -0.42324578673E+01  0.57560679845E+02 -0.79953084221E+03  0.80161132303E+03  0.00000000000E+00 0. -1.
          1    1    1    2  502    0  0.91562238940E+02  0.73609560743E+02  0.11446647274E+03  0.16402616990E+03  0.00000000000E+00 0. -1.
         22    1    3    3    0    0 -0.37358843083E+02 -0.28512968862E+02  0.13833155231E+03  0.14609685456E+03  0.00000000000E+00 0. -1.
         22    1    3    3    0    0 -0.49970937990E+02 -0.10265727173E+03  0.34983761809E+02  0.11941303812E+03  0.00000000000E+00 0. -1.
</event>
<event>
 7    1  0.4915160E-006  0.6018617E+02  0.7818608E-02  0.1398068E+00
          2   -1    0    0  502    0  0.00000000000E+00  0.00000000000E+00  0.13244159457E+04  0.13244159457E+04  0.00000000000E+00 0. -1.
          1   -1    0    0  501    0 -0.00000000000E+00 -0.00000000000E+00 -0.28823461539E+03  0.28823461539E+03  0.00000000000E+00 0. -1.
         25    2    1    2    0    0  0.26732811528E+01 -0.15998329667E+02 -0.99188062357E+02  0.16039360974E+03  0.12499898138E+03 0.  0.
          2    1    1    2  501    0  0.33512901983E+02  0.64091315518E+02 -0.14944904585E+03  0.16602960166E+03  0.00000000000E+00 0. -1.
          1    1    1    2  502    0 -0.36186183136E+02 -0.48092985851E+02  0.12848184385E+04  0.12862273497E+04  0.00000000000E+00 0. -1.
         22    1    3    3    0    0  0.19168042342E+02  0.40866774997E+02 -0.89716321411E+02  0.10043169556E+03  0.00000000000E+00 0. -1.
         22    1    3    3    0    0 -0.16494761189E+02 -0.56865104664E+02 -0.94717409465E+01  0.59961914176E+02  0.00000000000E+00 0. -1.
</event>
<event>
 7    1  0.4915160E-006  0.1225476E+03  0.7818608E-02  0.1310685E+00
          2   -1    0    0  502    0  0.00000000000E+00  0.00000000000E+00  0.23611094430E+03  0.23611094430E+03  0.00000000000E+00 0. -1.
          1   -1    0    0  501    0 -0.00000000000E+00 -0.00000000000E+00 -0.12908131565E+04  0.12908131565E+04  0.00000000000E+00 0. -1.
         25    2    1    2    0    0  0.12714831921E+03  0.39477703809E+02 -0.30030231665E+03  0.35146700681E+03  0.12498956481E+03 0.  0.
          2    1    1    2  501    0 -0.12096790427E+03  0.21750764096E+02 -0.95641320877E+03  0.96427825626E+03  0.00000000000E+00 0. -1.
          1    1    1    2  502    0 -0.61804149477E+01 -0.61228467904E+02  0.20201331319E+03  0.21117883776E+03  0.00000000000E+00 0. -1.
         22    1    3    3    0    0  0.45283778733E+02 -0.27771209056E+02 -0.19494709807E+03  0.20205502150E+03  0.00000000000E+00 0.  1.
         22    1    3    3    0    0  0.81864540481E+02  0.67248912865E+02 -0.10535521858E+03  0.14941198530E+03  0.00000000000E+00 0.  1.
</event>
<event>
 7    1  0.4915160E-006  0.1435070E+03  0.7818608E-02  0.1322254E+00
          2   -1    0    0  502    0  0.00000000000E+00  0.00000000000E+00  0.75489746470E+03  0.75489746470E+03  0.00000000000E+00 0. -1.
          1   -1    0    0  501    0 -0.00000000000E+00 -0.00000000000E+00 -0.36774652476E+03  0.36774652476E+03  0.00000000000E+00 0. -1.
         25    2    1    2    0    0  0.17218099026E+03 -0.26017455403E+02  0.29092852123E+03  0.36136976326E+03  0.12500199975E+03 0.  0.
          2    1    1    2  501    0 -0.14188358051E+03 -0.10389321121E+02 -0.31589111793E+03  0.34644781251E+03  0.00000000000E+00 0. -1.
          1    1    1    2  502    0 -0.30297409753E+02  0.36406776524E+02  0.41211353664E+03  0.41482641369E+03  0.00000000000E+00 0. -1.
         22    1    3    3    0    0  0.83753923941E+02  0.50173125602E+02  0.13300270215E+03  0.16499024543E+03  0.00000000000E+00 0. -1.
         22    1    3    3    0    0  0.88427066319E+02 -0.76190581004E+02  0.15792581907E+03  0.19637951783E+03  0.00000000000E+00 0. -1.
</event>
<event>
 7    1  0.4915160E-006  0.1105165E+03  0.7818608E-02  0.1283926E+00
          2   -1    0    0  502    0  0.00000000000E+00  0.00000000000E+00  0.17138811622E+03  0.17138811622E+03  0.00000000000E+00 0. -1.
          1   -1    0    0  501    0 -0.00000000000E+00 -0.00000000000E+00 -0.10161448881E+04  0.10161448881E+04  0.00000000000E+00 0. -1.
         25    2    1    2    0    0 -0.11694004387E+03  0.50309430386E+02 -0.20329694103E+03  0.27047160961E+03  0.12497692879E+03 0.  0.
          2    1    1    2  501    0  0.11207278991E+02 -0.86700742934E+02 -0.75362561227E+03  0.75867923749E+03  0.00000000000E+00 0. -1.
          1    1    1    2  502    0  0.10573276488E+03  0.36391312547E+02  0.11216578143E+03  0.15838215721E+03  0.00000000000E+00 0. -1.
         22    1    3    3    0    0 -0.30163598475E+02  0.77765161087E+02 -0.69066242256E+02  0.10829316124E+03  0.00000000000E+00 0.  1.
         22    1    3    3    0    0 -0.86776445393E+02 -0.27455730701E+02 -0.13423069877E+03  0.16217844837E+03  0.00000000000E+00 0.  1.
</event>
<event>
 7    1  0.4915160E-006  0.7426515E+02  0.7818608E-02  0.1517159E+00
          2   -1    0    0  502    0  0.00000000000E+00  0.00000000000E+00  0.21702255053E+04  0.21702255053E+04  0.00000000000E+00 0. -1.
          1   -1    0    0  501    0 -0.00000000000E+00 -0.00000000000E+00 -0.14019466533E+04  0.14019466533E+04  0.00000000000E+00 0. -1.
         25    2    1    2    0    0 -0.55388415530E+02  0.70981994540E+01 -0.56718588605E+02  0.14819045844E+03  0.12500061067E+03 0.  0.
          2    1    1    2  501    0 -0.18996687796E+02 -0.71027367511E+01 -0.12987618199E+04  0.12989201622E+04  0.00000000000E+00 0. -1.
          1    1    1    2  502    0  0.74385103325E+02  0.45372970515E-02  0.21237592605E+04  0.21250615380E+04  0.00000000000E+00 0. -1.
         22    1    3    3    0    0 -0.28420301099E+02  0.65686417724E+02 -0.37992973740E+02  0.81030148967E+02  0.00000000000E+00 0.  1.
         22    1    3    3    0    0 -0.26968114431E+02 -0.58588218270E+02 -0.18725614865E+02  0.67160309470E+02  0.00000000000E+00 0.  1.
</event>
<event>
 7    1  0.4915160E-006  0.4228225E+03  0.7818608E-02  0.1178405E+00
          2   -1    0    0  502    0  0.00000000000E+00  0.00000000000E+00  0.44322439735E+03  0.44322439735E+03  0.00000000000E+00 0. -1.
          1   -1    0    0  501    0 -0.00000000000E+00 -0.00000000000E+00 -0.23033148682E+04  0.23033148682E+04  0.00000000000E+00 0. -1.
         25    2    1    2    0    0  0.15358300030E+02 -0.41023244280E+03 -0.98068393256E+03  0.10704637689E+04  0.12500068190E+03 0.  0.
          2    1    1    2  501    0  0.67631136348E+02 -0.62837872770E+01 -0.11632636366E+04  0.11652449291E+04  0.00000000000E+00 0. -1.
          1    1    1    2  502    0 -0.82989436377E+02  0.41651623008E+03  0.28385709830E+03  0.51083056753E+03  0.00000000000E+00 0. -1.
         22    1    3    3    0    0 -0.90489700537E+01  0.67590939295E+01 -0.30314078140E+02  0.32349846109E+02  0.00000000000E+00 0. -1.
         22    1    3    3    0    0  0.24407270083E+02 -0.41699153673E+03 -0.95036985442E+03  0.10381139228E+04  0.00000000000E+00 0. -1.
</event>
<event>
 7    1  0.4915160E-006  0.6258579E+02  0.7818608E-02  0.1517439E+00
          2   -1    0    0  502    0  0.00000000000E+00  0.00000000000E+00  0.11049479941E+03  0.11049479941E+03  0.00000000000E+00 0. -1.
          1   -1    0    0  501    0 -0.00000000000E+00 -0.00000000000E+00 -0.48995230271E+03  0.48995230271E+03  0.00000000000E+00 0. -1.
         25    2    1    2    0    0 -0.31308626049E+02 -0.25715236471E+02 -0.91835945827E+02  0.16031716063E+03  0.12500499027E+03 0.  0.
          2    1    1    2  501    0  0.48008410233E+02  0.42981181566E+02 -0.35904188286E+03  0.36477837528E+03  0.00000000000E+00 0. -1.
          1    1    1    2  502    0 -0.16699784184E+02 -0.17265945095E+02  0.71420325389E+02  0.75351566211E+02  0.00000000000E+00 0. -1.
         22    1    3    3    0    0 -0.18729961476E+02  0.50061299860E+02 -0.27443856039E+02  0.60084194551E+02  0.00000000000E+00 0.  1.
         22    1    3    3    0    0 -0.12578664573E+02 -0.75776536331E+02 -0.64392089788E+02  0.10023296607E+03  0.00000000000E+00 0.  1.
</event>
<event>
 7    1  0.4915160E-006  0.4124123E+02  0.7818608E-02  0.1566498E+00
          2   -1    0    0  502    0  0.00000000000E+00  0.00000000000E+00  0.11448349464E+04  0.11448349464E+04  0.00000000000E+00 0. -1.
          1   -1    0    0  501    0 -0.00000000000E+00 -0.00000000000E+00 -0.11078349359E+04  0.11078349359E+04  0.00000000000E+00 0. -1.
         25    2    1    2    0    0 -0.66947149579E+02 -0.36792072912E+01  0.15214161400E+03  0.20800277273E+03  0.12499050105E+03 0.  0.
          2    1    1    2  501    0  0.41121725705E+02 -0.22971225119E+01 -0.10793294422E+04  0.10801149559E+04  0.00000000000E+00 0. -1.
          1    1    1    2  502    0  0.25825423874E+02  0.59763298031E+01  0.96418783871E+03  0.96455215377E+03  0.00000000000E+00 0. -1.
         22    1    3    3    0    0  0.36189297033E+02 -0.70318797039E+01  0.55469311898E+02  0.66602981272E+02  0.00000000000E+00 0. -1.
         22    1    3    3    0    0 -0.10313644661E+03  0.33526724127E+01  0.96672302098E+02  0.14139979146E+03  0.00000000000E+00 0. -1.
</event>
<event>
 7    1  0.4915160E-006  0.1029509E+03  0.7818608E-02  0.1281439E+00
          2   -1    0    0  502    0  0.00000000000E+00  0.00000000000E+00  0.22604211691E+04  0.22604211691E+04  0.00000000000E+00 0. -1.
          1   -1    0    0  501    0 -0.00000000000E+00 -0.00000000000E+00 -0.29128510774E+02  0.29128510774E+02  0.00000000000E+00 0. -1.
         25    2    1    2    0    0 -0.10288928995E+03  0.21414041344E+02  0.78337882189E+03  0.80021993707E+03  0.12499920780E+03 0.  0.
          2    1    1    2  501    0  0.82468286318E+02  0.72475221031E+02  0.14011178944E+03  0.17800277934E+03  0.00000000000E+00 0. -1.
          1    1    1    2  502    0  0.20421003628E+02 -0.93889262374E+02  0.13078020470E+04  0.13113269635E+04  0.00000000000E+00 0. -1.
         22    1    3    3    0    0 -0.58852146159E+01 -0.53268623576E+01 -0.21888259490E+01  0.82342074717E+01  0.00000000000E+00 0.  1.
         22    1    3    3    0    0 -0.97004075330E+02  0.26740903701E+02  0.78556764784E+03  0.79198572960E+03  0.00000000000E+00 0.  1.
</event>
<event>
 7    1  0.4915160E-006  0.3629352E+02  0.7818608E-02  0.1540237E+00
          2   -1    0    0  502    0  0.00000000000E+00  0.00000000000E+00  0.19475185293E+04  0.19475185293E+04  0.00000000000E+00 0. -1.
          1   -1    0    0  501    0 -0.00000000000E+00 -0.00000000000E+00 -0.12096122187E+03  0.12096122187E+03  0.00000000000E+00 0. -1.
         25    2    1    2    0    0 -0.32210762920E+02  0.39783809062E+02  0.28880120452E+03  0.31882715514E+03  0.12499733762E+03 0.  0.
          2    1    1    2  501    0 -0.38107682373E+01 -0.35425289334E+02 -0.10274645399E+03  0.10874882476E+03  0.00000000000E+00 0. -1.
          1    1    1    2  502    0  0.36021531158E+02 -0.43585197277E+01  0.16405025569E+04  0.16409037713E+04  0.00000000000E+00 0. -1.
         22    1    3    3    0    0  0.35144269295E+02  0.44036898399E+02  0.70020382461E+02  0.89873366716E+02  0.00000000000E+00 0. -1.
         22    1    3    3    0    0 -0.67355032216E+02 -0.42530893371E+01  0.21878082206E+03  0.22895378843E+03  0.00000000000E+00 0. -1.
</event>
<event>
 7    1  0.4915160E-006  0.1335009E+03  0.7818608E-02  0.1348316E+00
          2   -1    0    0  502    0  0.00000000000E+00  0.00000000000E+00  0.13822578470E+03  0.13822578470E+03  0.00000000000E+00 0. -1.
          1   -1    0    0  501    0 -0.00000000000E+00 -0.00000000000E+00 -0.99758457278E+03  0.99758457278E+03  0.00000000000E+00 0. -1.
         25    2    1    2    0    0  0.21984290714E+02  0.14024987868E+03 -0.34362357940E+03  0.39224325166E+03  0.12499706656E+03 0.  0.
          2    1    1    2  501    0 -0.56849262933E+02 -0.11952952661E+03 -0.61880631732E+03  0.63280360680E+03  0.00000000000E+00 0. -1.
          1    1    1    2  502    0  0.34864972219E+02 -0.20720352071E+02  0.10307110864E+03  0.11076349902E+03  0.00000000000E+00 0. -1.
         22    1    3    3    0    0 -0.24174741757E+02  0.69806894351E+02 -0.56445233143E+02  0.92970344640E+02  0.00000000000E+00 0. -1.
         22    1    3    3    0    0  0.46159032472E+02  0.70442984328E+02 -0.28717834625E+03  0.29927290702E+03  0.00000000000E+00 0. -1.
</event>
<event>
 7    1  0.4915160E-006  0.6165112E+02  0.7818608E-02  0.1478236E+00
          2   -1    0    0  502    0  0.00000000000E+00  0.00000000000E+00  0.17015348694E+04  0.17015348694E+04  0.00000000000E+00 0. -1.
          1   -1    0    0  501    0 -0.00000000000E+00 -0.00000000000E+00 -0.15114296832E+03  0.15114296832E+03  0.00000000000E+00 0. -1.
         25    2    1    2    0    0 -0.46080294324E+02  0.33304102048E+02  0.12837098262E+03  0.18797904233E+03  0.12499781773E+03 0.  0.
          2    1    1    2  501    0  0.21582289880E+02  0.23559140408E+02 -0.11860301487E+03  0.12283119909E+03  0.00000000000E+00 0. -1.
          1    1    1    2  502    0  0.24498004444E+02 -0.56863242456E+02  0.15406239333E+04  0.15418675963E+04  0.00000000000E+00 0. -1.
         22    1    3    3    0    0  0.26592213546E+02  0.35258364828E+02  0.45529543640E+01  0.44396255530E+02  0.00000000000E+00 0. -1.
         22    1    3    3    0    0 -0.72672507870E+02 -0.19542627798E+01  0.12381802826E+03  0.14358278680E+03  0.00000000000E+00 0. -1.
</event>
<event>
 7    1  0.4915160E-006  0.1617647E+03  0.7818608E-02  0.1236101E+00
          2   -1    0    0  502    0  0.00000000000E+00  0.00000000000E+00  0.51548456538E+03  0.51548456538E+03  0.00000000000E+00 0. -1.
          1   -1    0    0  501    0 -0.00000000000E+00 -0.00000000000E+00 -0.41876819175E+03  0.41876819175E+03  0.00000000000E+00 0. -1.
         25    2    1    2    0    0  0.15607366253E+03 -0.35651888639E+02  0.39091311248E+03  0.44053228192E+03  0.12500233840E+03 0.  0.
          2    1    1    2  501    0  0.23589423784E+02  0.92620416242E+02 -0.28983920747E+03  0.30519136391E+03  0.00000000000E+00 0. -1.
          1    1    1    2  502    0 -0.17966308632E+03 -0.56968527603E+02 -0.43575313851E+01  0.18852911128E+03  0.00000000000E+00 0. -1.
         22    1    3    3    0    0  0.17691673523E+03 -0.35359693373E+02  0.36598031193E+03  0.40803361117E+03  0.00000000000E+00 0.  1.
         22    1    3    3    0    0 -0.20843072699E+02 -0.29219526603E+00  0.24932800555E+02  0.32498670760E+02  0.00000000000E+00 0.  1.
</event>
<event>
 7    1  0.4915160E-006  0.1533021E+03  0.7818608E-02  0.1259351E+00
          2   -1    0    0  502    0  0.00000000000E+00  0.00000000000E+00  0.16083819328E+04  0.16083819328E+04  0.00000000000E+00 0. -1.
          1   -1    0    0  501    0 -0.00000000000E+00 -0.00000000000E+00 -0.21278371138E+03  0.21278371138E+03  0.00000000000E+00 0. -1.
         25    2    1    2    0    0  0.40259057758E+02  0.17205209363E+03  0.47498312059E+02  0.22159342999E+03  0.12499937565E+03 0.  0.
          2    1    1    2  501    0  0.35203959439E+02 -0.14585612230E+03 -0.79455467131E+02  0.16978368128E+03  0.00000000000E+00 0. -1.
          1    1    1    2  502    0 -0.75463017197E+02 -0.26195971333E+02  0.14275553764E+04  0.14297885329E+04  0.00000000000E+00 0. -1.
         22    1    3    3    0    0  0.94908402953E+01  0.18048387408E+03  0.54814303320E+02  0.18886268213E+03  0.00000000000E+00 0.  1.
         22    1    3    3    0    0  0.30768217463E+02 -0.84317804535E+01 -0.73159912613E+01  0.32730747862E+02  0.00000000000E+00 0.  1.
</event>
<event>
 7    1  0.4915160E-006  0.4493716E+02  0.7818608E-02  0.1475542E+00
          2   -1    0    0  502    0  0.00000000000E+00  0.00000000000E+00  0.42616810727E+03  0.42616810727E+03  0.00000000000E+00 0. -1.
          1   -1    0    0  501    0 -0.00000000000E+00 -0.00000000000E+00 -0.23220169475E+03  0.23220169475E+03  0.00000000000E+00 0. -1.
         25    2    1    2    0    0  0.25375026312E+02  0.95733235554E+01  0.31836464448E+02  0.13181230402E+03  0.12500153015E+03 0.  0.
          2    1    1    2  501    0 -0.25825639024E+02  0.36459910516E+02 -0.17790025535E+03  0.18342516065E+03  0.00000000000E+00 0. -1.
          1    1    1    2  502    0  0.45061271200E+00 -0.46033234071E+02  0.34003020342E+03  0.34313233734E+03  0.00000000000E+00 0. -1.
         22    1    3    3    0    0  0.22608890936E+02 -0.49157390530E+02  0.46356828307E+02  0.71250028237E+02  0.00000000000E+00 0. -1.
         22    1    3    3    0    0  0.27661353758E+01  0.58730714085E+02 -0.14520363858E+02  0.60562275787E+02  0.00000000000E+00 0. -1.
</event>
<event>
 7    1  0.7878638E-006  0.7373244E+02  0.7818608E-02  0.1408810E+00
          2   -1    0    0  502    0  0.00000000000E+00  0.00000000000E+00  0.17721502240E+04  0.17721502240E+04  0.00000000000E+00 0. -1.
          1   -1    0    0  501    0 -0.00000000000E+00 -0.00000000000E+00 -0.10828799245E+04  0.10828799245E+04  0.00000000000E+00 0. -1.
         25    2    1    2    0    0 -0.39778331582E+02  0.35419825911E+02 -0.48885919804E+02  0.14439649058E+03  0.12499453430E+03 0.  0.
          2    1    1    2  501    0 -0.33947491903E+02 -0.29201545219E+02 -0.98493615490E+03  0.98595354438E+03  0.00000000000E+00 0. -1.
          1    1    1    2  502    0  0.73725823485E+02 -0.62182806919E+01  0.17230923742E+04  0.17246801135E+04  0.00000000000E+00 0. -1.
         22    1    3    3    0    0 -0.44417174612E+02 -0.27687489721E+02 -0.60567815761E+02  0.80049627067E+02  0.00000000000E+00 0.  1.
         22    1    3    3    0    0  0.46388430297E+01  0.63107315632E+02  0.11681895957E+02  0.64346863514E+02  0.00000000000E+00 0.  1.
</event>
<event>
 7    1  0.4915160E-006  0.5704783E+02  0.7818608E-02  0.1469806E+00
          2   -1    0    0  502    0  0.00000000000E+00  0.00000000000E+00  0.19003994458E+04  0.19003994458E+04  0.00000000000E+00 0. -1.
          1   -1    0    0  501    0 -0.00000000000E+00 -0.00000000000E+00 -0.19064350476E+03  0.19064350476E+03  0.00000000000E+00 0. -1.
         25    2    1    2    0    0 -0.56238417886E+02  0.13252906408E+02  0.61719437481E+03  0.63237109186E+03  0.12500360935E+03 0.  0.
          2    1    1    2  501    0  0.32016550242E+01 -0.36525187335E+02 -0.18055416487E+03  0.18423937244E+03  0.00000000000E+00 0. -1.
          1    1    1    2  502    0  0.53036762862E+02  0.23272280926E+02  0.12731157311E+04  0.12744324863E+04  0.00000000000E+00 0. -1.
         22    1    3    3    0    0 -0.93142755792E+01  0.33356945754E+02  0.39942363115E+02  0.52866188919E+02  0.00000000000E+00 0.  1.
         22    1    3    3    0    0 -0.46924142307E+02 -0.20104039346E+02  0.57725201170E+03  0.57950490295E+03  0.00000000000E+00 0.  1.
</event>
<event>
 7    1  0.4915160E-006  0.1089615E+03  0.7818608E-02  0.1293767E+00
          2   -1    0    0  502    0  0.00000000000E+00  0.00000000000E+00  0.44949361979E+02  0.44949361979E+02  0.00000000000E+00 0. -1.
          1   -1    0    0  501    0 -0.00000000000E+00 -0.00000000000E+00 -0.12042384783E+04  0.12042384783E+04  0.00000000000E+00 0. -1.
         25    2    1    2    0    0  0.47512590790E+02 -0.97390040641E+02 -0.28485327322E+03  0.32940677069E+03  0.12500066806E+03 0.  0.
          2    1    1    2  501    0 -0.10573976436E+03  0.41298672018E+02 -0.80571228390E+03  0.81366993462E+03  0.00000000000E+00 0. -1.
          1    1    1    2  502    0  0.58227173566E+02  0.56091368623E+02 -0.68723559217E+02  0.10611113498E+03  0.00000000000E+00 0. -1.
         22    1    3    3    0    0 -0.22515646845E+02 -0.91928708966E+02 -0.15016515377E+03  0.17750328248E+03  0.00000000000E+00 0.  1.
         22    1    3    3    0    0  0.70028237636E+02 -0.54613316750E+01 -0.13468811945E+03  0.15190348821E+03  0.00000000000E+00 0.  1.
</event>
<event>
 7    1  0.4915160E-006  0.7783322E+02  0.7818608E-02  0.1413724E+00
          2   -1    0    0  502    0  0.00000000000E+00  0.00000000000E+00  0.11274672408E+04  0.11274672408E+04  0.00000000000E+00 0. -1.
          1   -1    0    0  501    0 -0.00000000000E+00 -0.00000000000E+00 -0.16842102931E+03  0.16842102931E+03  0.00000000000E+00 0. -1.
         25    2    1    2    0    0 -0.23881392048E+01  0.48090976236E+02  0.74387841004E+02  0.15322171120E+03  0.12499958676E+03 0.  0.
          2    1    1    2  501    0 -0.26190047768E+02 -0.77247969063E+02 -0.11565260774E+03  0.14152276497E+03  0.00000000000E+00 0. -1.
          1    1    1    2  502    0  0.28578186973E+02  0.29156992827E+02  0.10003109782E+04  0.10011437939E+04  0.00000000000E+00 0. -1.
         22    1    3    3    0    0  0.52169529079E+02  0.27972918617E+02  0.74395743928E+02  0.95072975418E+02  0.00000000000E+00 0.  1.
         22    1    3    3    0    0 -0.54557668284E+02  0.20118057619E+02 -0.79029244394E-02  0.58148735785E+02  0.00000000000E+00 0.  1.
</event>
<event>
 7    1  0.4915160E-006  0.1334258E+03  0.7818608E-02  0.1254475E+00
          2   -1    0    0  502    0  0.00000000000E+00  0.00000000000E+00  0.32669945871E+04  0.32669945871E+04  0.00000000000E+00 0. -1.
          1   -1    0    0  501    0 -0.00000000000E+00 -0.00000000000E+00 -0.89250980795E+02  0.89250980795E+02  0.00000000000E+00 0. -1.
         25    2    1    2    0    0  0.42216550419E+02 -0.89012183484E+02  0.30450363571E+03  0.34358814736E+03  0.12499977963E+03 0.  0.
          2    1    1    2  501    0 -0.13403801370E+03  0.59958035358E+02  0.93350485710E+01  0.14713360681E+03  0.00000000000E+00 0. -1.
          1    1    1    2  502    0  0.91821463281E+02  0.29054148126E+02  0.28639049221E+04  0.28655238138E+04  0.00000000000E+00 0. -1.
         22    1    3    3    0    0 -0.27076552368E+02 -0.40339583448E+02  0.21481530906E+03  0.22024086516E+03  0.00000000000E+00 0.  1.
         22    1    3    3    0    0  0.69293102787E+02 -0.48672600035E+02  0.89688326650E+02  0.12334728220E+03  0.00000000000E+00 0.  1.
</event>
<event>
 7    1  0.4915160E-006  0.5003273E+02  0.7818608E-02  0.1449563E+00
          2   -1    0    0  502    0  0.00000000000E+00  0.00000000000E+00  0.49429505588E+03  0.49429505588E+03  0.00000000000E+00 0. -1.
          1   -1    0    0  501    0 -0.00000000000E+00 -0.00000000000E+00 -0.41613117568E+03  0.41613117568E+03  0.00000000000E+00 0. -1.
         25    2    1    2    0    0 -0.20589760670E+02  0.89684324729E+02  0.27074020454E+03  0.31207749792E+03  0.12499956004E+03 0.  0.
          2    1    1    2  501    0  0.27265913474E+02 -0.41714934905E+02 -0.39096779816E+03  0.39413117744E+03  0.00000000000E+00 0. -1.
          1    1    1    2  502    0 -0.66761528040E+01 -0.47969389823E+02  0.19839147382E+03  0.20421755620E+03  0.00000000000E+00 0. -1.
         22    1    3    3    0    0  0.26171953475E+02  0.10085729810E+03  0.21157143901E+03  0.23583816386E+03  0.00000000000E+00 0.  1.
         22    1    3    3    0    0 -0.46761714145E+02 -0.11172973374E+02  0.59168765528E+02  0.76239334060E+02  0.00000000000E+00 0.  1.
</event>
<event>
 7    1  0.4915160E-006  0.3800505E+02  0.7818608E-02  0.1589342E+00
          2   -1    0    0  502    0  0.00000000000E+00  0.00000000000E+00  0.28172763129E+03  0.28172763129E+03  0.00000000000E+00 0. -1.
          1   -1    0    0  501    0 -0.00000000000E+00 -0.00000000000E+00 -0.35191279270E+02  0.35191279270E+02  0.00000000000E+00 0. -1.
         25    2    1    2    0    0 -0.28748554143E+02 -0.32151519936E+02  0.15577883723E+03  0.20433436230E+03  0.12500114356E+03 0.  0.
          2    1    1    2  501    0 -0.85305423234E+01  0.23469044533E+02  0.19446543593E+02  0.31650185803E+02  0.00000000000E+00 0. -1.
          1    1    1    2  502    0  0.37279096467E+02  0.86824754028E+01  0.71310971193E+02  0.80934362449E+02  0.00000000000E+00 0. -1.
         22    1    3    3    0    0  0.31193784399E+02  0.14128784221E+02  0.37002527328E+01  0.34443672844E+02  0.00000000000E+00 0. -1.
         22    1    3    3    0    0 -0.59942338542E+02 -0.46280304157E+02  0.15207858450E+03  0.16989068946E+03  0.00000000000E+00 0. -1.
</event>
<event>
 7    1  0.4915160E-006  0.1130723E+03  0.7818608E-02  0.1304391E+00
          2   -1    0    0  502    0  0.00000000000E+00  0.00000000000E+00  0.28021031833E+03  0.28021031833E+03  0.00000000000E+00 0. -1.
          1   -1    0    0  501    0 -0.00000000000E+00 -0.00000000000E+00 -0.18515678384E+04  0.18515678384E+04  0.00000000000E+00 0. -1.
         25    2    1    2    0    0  0.43072321922E+02 -0.12766111859E+02 -0.49329872741E+03  0.51086918157E+03  0.12500195071E+03 0.  0.
          2    1    1    2  501    0  0.60842296638E+02 -0.35875871224E+02 -0.13363842926E+04  0.13382495435E+04  0.00000000000E+00 0. -1.
          1    1    1    2  502    0 -0.10391461856E+03  0.48641983083E+02  0.25832549986E+03  0.28265943173E+03  0.00000000000E+00 0. -1.
         22    1    3    3    0    0 -0.79874771972E-01 -0.14251043812E+02 -0.44822525334E+03  0.44845175477E+03  0.00000000000E+00 0. -1.
         22    1    3    3    0    0  0.43152196694E+02  0.14849319529E+01 -0.45073474076E+02  0.62417426795E+02  0.00000000000E+00 0. -1.
</event>
<event>
 7    1  0.4915160E-006  0.5064333E+02  0.7818608E-02  0.1464699E+00
          2   -1    0    0  502    0  0.00000000000E+00  0.00000000000E+00  0.47557075603E+03  0.47557075603E+03  0.00000000000E+00 0. -1.
          1   -1    0    0  501    0 -0.00000000000E+00 -0.00000000000E+00 -0.11407018667E+03  0.11407018667E+03  0.00000000000E+00 0. -1.
         25    2    1    2    0    0  0.34037028410E+02  0.21355309431E+01  0.28225561821E+03  0.31058754656E+03  0.12503323668E+03 0.  0.
          2    1    1    2  501    0  0.10773237631E+02 -0.41470182406E+02 -0.89964162283E+02  0.99646320420E+02  0.00000000000E+00 0. -1.
          1    1    1    2  502    0 -0.44810266040E+02  0.39334651463E+02  0.16920911344E+03  0.17940707572E+03  0.00000000000E+00 0. -1.
         22    1    3    3    0    0  0.29371414549E+01 -0.58958925973E+02  0.15811825610E+03  0.16877844846E+03  0.00000000000E+00 0.  1.
         22    1    3    3    0    0  0.31099886955E+02  0.61094456916E+02  0.12413736210E+03  0.14180909810E+03  0.00000000000E+00 0.  1.
</event>
<event>
 7    1  0.4915160E-006  0.1410234E+03  0.7818608E-02  0.1344470E+00
          2   -1    0    0  502    0  0.00000000000E+00  0.00000000000E+00  0.65970851167E+03  0.65970851167E+03  0.00000000000E+00 0. -1.
          1   -1    0    0  501    0 -0.00000000000E+00 -0.00000000000E+00 -0.17432387999E+03  0.17432387999E+03  0.00000000000E+00 0. -1.
         25    2    1    2    0    0  0.10414856377E+03 -0.15544288469E+02 -0.17174032747E+01  0.16345170697E+03  0.12499985119E+03 0.  0.
          2    1    1    2  501    0  0.39191487335E+02 -0.62194066803E+01 -0.77818709417E+02  0.87352190781E+02  0.00000000000E+00 0. -1.
          1    1    1    2  502    0 -0.14334005111E+03  0.21763695150E+02  0.56492074438E+03  0.58322849391E+03  0.00000000000E+00 0. -1.
         22    1    3    3    0    0  0.10026789787E+03 -0.57599726211E+02  0.17675896525E+02  0.11697784885E+03  0.00000000000E+00 0. -1.
         22    1    3    3    0    0  0.38806659022E+01  0.42055437742E+02 -0.19393299800E+02  0.46473858121E+02  0.00000000000E+00 0. -1.
</event>
<event>
 7    1  0.4915160E-006  0.8957182E+02  0.7818608E-02  0.1366532E+00
          2   -1    0    0  502    0  0.00000000000E+00  0.00000000000E+00  0.53289124434E+03  0.53289124434E+03  0.00000000000E+00 0. -1.
          1   -1    0    0  501    0 -0.00000000000E+00 -0.00000000000E+00 -0.35556752249E+03  0.35556752249E+03  0.00000000000E+00 0. -1.
         25    2    1    2    0    0 -0.44388123742E+02  0.12190947487E+03  0.29312278216E+03  0.34406097632E+03  0.12499905765E+03 0.  0.
          2    1    1    2  501    0  0.13342179454E+02 -0.50090894695E+02 -0.32080627702E+03  0.32496735045E+03  0.00000000000E+00 0. -1.
          1    1    1    2  502    0  0.31045944288E+02 -0.71818580179E+02  0.20500721672E+03  0.21943044005E+03  0.00000000000E+00 0. -1.
         22    1    3    3    0    0  0.24845411538E+02  0.62275947970E+02  0.47996479374E+02  0.82457566071E+02  0.00000000000E+00 0.  1.
         22    1    3    3    0    0 -0.69233535280E+02  0.59633526904E+02  0.24512630278E+03  0.26160341025E+03  0.00000000000E+00 0.  1.
</event>
<event>
 7    1  0.4915160E-006  0.1217885E+03  0.7818608E-02  0.1274533E+00
          2   -1    0    0  502    0  0.00000000000E+00  0.00000000000E+00  0.12916490404E+04  0.12916490404E+04  0.00000000000E+00 0. -1.
          1   -1    0    0  501    0 -0.00000000000E+00 -0.00000000000E+00 -0.81480691620E+02  0.81480691620E+02  0.00000000000E+00 0. -1.
         25    2    1    2    0    0 -0.63611390211E+02 -0.13127839627E+03  0.91440913912E+03  0.93437117249E+03  0.12499995195E+03 0.  0.
          2    1    1    2  501    0 -0.35238906787E+02  0.79278774167E+02 -0.32015149131E+02  0.92476344861E+02  0.00000000000E+00 0. -1.
          1    1    1    2  502    0  0.98850296998E+02  0.51999622102E+02  0.32777435884E+03  0.34628221472E+03  0.00000000000E+00 0. -1.
         22    1    3    3    0    0 -0.17354879470E+02  0.14462999583E+02  0.31350589750E+03  0.31431881580E+03  0.00000000000E+00 0.  1.
         22    1    3    3    0    0 -0.46256510742E+02 -0.14574139585E+03  0.60090324162E+03  0.62005235669E+03  0.00000000000E+00 0.  1.
</event>
<event>
 7    1  0.4915160E-006  0.5698307E+02  0.7818608E-02  0.1467673E+00
          2   -1    0    0  502    0  0.00000000000E+00  0.00000000000E+00  0.72324084223E+03  0.72324084223E+03  0.00000000000E+00 0. -1.
          1   -1    0    0  501    0 -0.00000000000E+00 -0.00000000000E+00 -0.37207164246E+03  0.37207164246E+03  0.00000000000E+00 0. -1.
         25    2    1    2    0    0  0.53156811483E+02  0.30867688990E+02  0.14151171530E+03  0.19856320326E+03  0.12499327699E+03 0.  0.
          2    1    1    2  501    0 -0.30290955802E+02  0.21719372715E+02 -0.34104178264E+03  0.34307254432E+03  0.00000000000E+00 0. -1.
          1    1    1    2  502    0 -0.22865855680E+02 -0.52587061705E+02  0.55069926712E+03  0.55367673711E+03  0.00000000000E+00 0. -1.
         22    1    3    3    0    0  0.91121632284E+01  0.27529048506E+02 -0.17270693838E+02  0.33751398431E+02  0.00000000000E+00 0. -1.
         22    1    3    3    0    0  0.44044648254E+02  0.33386404837E+01  0.15878240914E+03  0.16481180483E+03  0.00000000000E+00 0. -1.
</event>
<event>
 7    1  0.4915160E-006  0.1304048E+03  0.7818608E-02  0.1434850E+00
          2   -1    0    0  502    0  0.00000000000E+00  0.00000000000E+00  0.37229028271E+04  0.37229028271E+04  0.00000000000E+00 0. -1.
          1   -1    0    0  501    0 -0.00000000000E+00 -0.00000000000E+00 -0.42963743970E+03  0.42963743970E+03  0.00000000000E+00 0. -1.
         25    2    1    2    0    0 -0.57960389560E+02  0.10799688818E+03  0.23954539168E+03  0.29669770370E+03  0.12499919236E+03 0.  0.
          2    1    1    2  501    0  0.14076512013E+02  0.15223946684E+02 -0.39955429148E+03  0.40009192517E+03  0.00000000000E+00 0. -1.
          1    1    1    2  502    0  0.43883877547E+02 -0.12322083487E+03  0.34532742872E+04  0.34557506379E+04  0.00000000000E+00 0. -1.
         22    1    3    3    0    0 -0.61744000992E+02  0.11124461813E+03  0.11333630551E+03  0.17039015485E+03  0.00000000000E+00 0.  1.
         22    1    3    3    0    0  0.37836114316E+01 -0.32477299500E+01  0.12620908617E+03  0.12630754885E+03  0.00000000000E+00 0.  1.
</event>
<event>
 7    1  0.4978363E-006  0.1048037E+03  0.7818608E-02  0.1288601E+00
          2   -1    0    0  502    0  0.00000000000E+00  0.00000000000E+00  0.29751911825E+04  0.29751911825E+04  0.00000000000E+00 0. -1.
          1   -1    0    0  501    0 -0.00000000000E+00 -0.00000000000E+00 -0.48973788344E+03  0.48973788344E+03  0.00000000000E+00 0. -1.
         25    2    1    2    0    0 -0.49554585170E+01 -0.81482611354E+02 -0.35028179683E+02  0.15334480718E+03  0.12499473587E+03 0.  0.
          2    1    1    2  501    0  0.86894088687E+02  0.15213241789E+02 -0.38966731028E+03  0.39952801914E+03  0.00000000000E+00 0. -1.
          1    1    1    2  502    0 -0.81938630170E+02  0.66269369565E+02  0.29101487890E+04  0.29120562396E+04  0.00000000000E+00 0. -1.
         22    1    3    3    0    0 -0.39173266197E+02 -0.60647000815E+02  0.29009153509E+02  0.77808318834E+02  0.00000000000E+00 0.  1.
         22    1    3    3    0    0  0.34217807680E+02 -0.20835610539E+02 -0.64037333192E+02  0.75536488344E+02  0.00000000000E+00 0.  1.
</event>
<event>
 7    1  0.4915160E-006  0.5575608E+02  0.7818608E-02  0.1557360E+00
          2   -1    0    0  502    0  0.00000000000E+00  0.00000000000E+00  0.99024696480E+03  0.99024696480E+03  0.00000000000E+00 0. -1.
          1   -1    0    0  501    0 -0.00000000000E+00 -0.00000000000E+00 -0.99526365266E+02  0.99526365266E+02  0.00000000000E+00 0. -1.
         25    2    1    2    0    0  0.15421177868E+02  0.46085507540E+02 -0.17715301109E+02  0.13528031945E+03  0.12500098481E+03 0.  0.
          2    1    1    2  501    0 -0.18364932182E+02  0.97087491123E+01 -0.17323745849E+02  0.27048894868E+02  0.00000000000E+00 0. -1.
          1    1    1    2  502    0  0.29437543132E+01 -0.55794256652E+02  0.92575964649E+03  0.92744411575E+03  0.00000000000E+00 0. -1.
         22    1    3    3    0    0  0.31940719582E+02 -0.28622800740E+02 -0.36699334761E+02  0.56447457530E+02  0.00000000000E+00 0. -1.
         22    1    3    3    0    0 -0.16519541714E+02  0.74708308280E+02  0.18984033652E+02  0.78832861918E+02  0.00000000000E+00 0. -1.
</event>
<event>
 7    1  0.4915160E-006  0.2986190E+02  0.7818608E-02  0.1627517E+00
          2   -1    0    0  502    0  0.00000000000E+00  0.00000000000E+00  0.15017100920E+03  0.15017100920E+03  0.00000000000E+00 0. -1.
          1   -1    0    0  501    0 -0.00000000000E+00 -0.00000000000E+00 -0.99545842235E+03  0.99545842235E+03  0.00000000000E+00 0. -1.
         25    2    1    2    0    0 -0.23466575838E+01  0.16450619588E+02 -0.12493333696E+03  0.17750874991E+03  0.12499955170E+03 0.  0.
          2    1    1    2  501    0  0.27356518277E+02 -0.12494504714E+02 -0.84267246968E+03  0.84320897937E+03  0.00000000000E+00 0. -1.
          1    1    1    2  502    0 -0.25009860693E+02 -0.39561148739E+01  0.12231839349E+03  0.12491170227E+03  0.00000000000E+00 0. -1.
         22    1    3    3    0    0 -0.38859216069E+02  0.54250041343E+02 -0.97707020603E+02  0.11832061331E+03  0.00000000000E+00 0.  1.
         22    1    3    3    0    0  0.36512558486E+02 -0.37799421755E+02 -0.27226316354E+02  0.59188136602E+02  0.00000000000E+00 0.  1.
</event>
<event>
 7    1  0.4915160E-006  0.9631850E+02  0.7818608E-02  0.1318745E+00
          2   -1    0    0  502    0  0.00000000000E+00  0.00000000000E+00  0.25545362257E+04  0.25545362257E+04  0.00000000000E+00 0. -1.
          1   -1    0    0  501    0 -0.00000000000E+00 -0.00000000000E+00 -0.71498500072E+02  0.71498500072E+02  0.00000000000E+00 0. -1.
         25    2    1    2    0    0 -0.93993579416E+02 -0.75287575623E+02  0.49796486736E+03  0.52734965858E+03  0.12500256502E+03 0.  0.
          2    1    1    2  501    0  0.23438933477E+02  0.93286110520E+02 -0.14947074519E+02  0.97340110208E+02  0.00000000000E+00 0. -1.
          1    1    1    2  502    0  0.70554645939E+02 -0.17998534897E+02  0.20000199328E+04  0.20013449570E+04  0.00000000000E+00 0. -1.
         22    1    3    3    0    0 -0.75372998826E+01 -0.70529276079E+02  0.11828914938E+03  0.13792575008E+03  0.00000000000E+00 0. -1.
         22    1    3    3    0    0 -0.86456279533E+02 -0.47582995436E+01  0.37967571799E+03  0.38942390850E+03  0.00000000000E+00 0. -1.
</event>
<event>
 7    1  0.4915160E-006  0.8426943E+02  0.7818608E-02  0.1421009E+00
          2   -1    0    0  502    0  0.00000000000E+00  0.00000000000E+00  0.50948042921E+03  0.50948042921E+03  0.00000000000E+00 0. -1.
          1   -1    0    0  501    0 -0.00000000000E+00 -0.00000000000E+00 -0.92074153860E+02  0.92074153860E+02  0.00000000000E+00 0. -1.
         25    2    1    2    0    0 -0.92086597104E+02  0.61879739907E+02  0.14012391612E+03  0.21810200693E+03  0.12499891991E+03 0.  0.
          2    1    1    2  501    0  0.56898028291E+02 -0.56184144303E+02 -0.21299091414E+02  0.82750800538E+02  0.00000000000E+00 0. -1.
          1    1    1    2  502    0  0.35188568813E+02 -0.56955956038E+01  0.29858145064E+03  0.30070177560E+03  0.00000000000E+00 0. -1.
         22    1    3    3    0    0  0.14713932371E+02  0.33774322597E+02  0.89163599491E+02  0.96474619185E+02  0.00000000000E+00 0.  1.
         22    1    3    3    0    0 -0.10680052948E+03  0.28105417311E+02  0.50960316633E+02  0.12162738775E+03  0.00000000000E+00 0.  1.
</event>
<event>
 7    1  0.4915160E-006  0.6692884E+02  0.7818608E-02  0.1449585E+00
          2   -1    0    0  502    0  0.00000000000E+00  0.00000000000E+00  0.18638547145E+04  0.18638547145E+04  0.00000000000E+00 0. -1.
          1   -1    0    0  501    0 -0.00000000000E+00 -0.00000000000E+00 -0.30840276349E+03  0.30840276349E+03  0.00000000000E+00 0. -1.
         25    2    1    2    0    0 -0.23105791922E+02 -0.28957062840E+02  0.44403097326E+03  0.46277662897E+03  0.12500525588E+03 0.  0.
          2    1    1    2  501    0 -0.34742799347E+02 -0.10164806730E+02 -0.29706611647E+03  0.29926353429E+03  0.00000000000E+00 0. -1.
          1    1    1    2  502    0  0.57848591270E+02  0.39121869570E+02  0.14084870942E+04  0.14102173148E+04  0.00000000000E+00 0. -1.
         22    1    3    3    0    0  0.14757471690E+02 -0.36257349523E+02  0.40840815678E+03  0.41027990554E+03  0.00000000000E+00 0. -1.
         22    1    3    3    0    0 -0.37863263613E+02  0.73002866824E+01  0.35622816485E+02  0.52496723434E+02  0.00000000000E+00 0. -1.
</event>
<event>
 7    1  0.4915160E-006  0.4367450E+02  0.7818608E-02  0.1584253E+00
          2   -1    0    0  502    0  0.00000000000E+00  0.00000000000E+00  0.11988594879E+04  0.11988594879E+04  0.00000000000E+00 0. -1.
          1   -1    0    0  501    0 -0.00000000000E+00 -0.00000000000E+00 -0.51186580857E+02  0.51186580857E+02  0.00000000000E+00 0. -1.
         25    2    1    2    0    0  0.58311624202E+02 -0.69555346008E+01  0.19951754694E+03  0.24265314740E+03  0.12499869371E+03 0.  0.
          2    1    1    2  501    0 -0.19121405826E+02 -0.11700360951E+02 -0.24822904005E+02  0.33447020351E+02  0.00000000000E+00 0. -1.
          1    1    1    2  502    0 -0.39190218376E+02  0.18655895552E+02  0.97297826408E+03  0.97394590097E+03  0.00000000000E+00 0. -1.
         22    1    3    3    0    0  0.29750194957E+02 -0.54434240714E+02  0.40061676862E+02  0.73845098788E+02  0.00000000000E+00 0.  1.
         22    1    3    3    0    0  0.28561429244E+02  0.47478706113E+02  0.15945587007E+03  0.16880804861E+03  0.00000000000E+00 0.  1.
</event>
<event>
 7    1  0.4915160E-006  0.2410199E+03  0.7818608E-02  0.1299831E+00
          2   -1    0    0  502    0  0.00000000000E+00  0.00000000000E+00  0.79462169161E+03  0.79462169161E+03  0.00000000000E+00 0. -1.
          1   -1    0    0  501    0 -0.00000000000E+00 -0.00000000000E+00 -0.91628659074E+03  0.91628659074E+03  0.00000000000E+00 0. -1.
         25    2    1    2    0    0  0.69769766783E+02 -0.24637345766E+03 -0.20734299278E+03  0.35239548567E+03  0.12499504259E+03 0.  0.
          2    1    1    2  501    0  0.23630817352E+02  0.25210687186E+02 -0.61596509149E+03  0.61693353630E+03  0.00000000000E+00 0. -1.
          1    1    1    2  502    0 -0.93400584135E+02  0.22116277047E+03  0.70164318514E+03  0.74157926037E+03  0.00000000000E+00 0. -1.
         22    1    3    3    0    0 -0.36495795946E+02 -0.69977439739E+02 -0.61364805204E+02  0.99972118673E+02  0.00000000000E+00 0.  1.
         22    1    3    3    0    0  0.10626556273E+03 -0.17639601792E+03 -0.14597818758E+03  0.25242336700E+03  0.00000000000E+00 0.  1.
</event>
<event>
 7    1  0.4915160E-006  0.5793077E+02  0.7818608E-02  0.1532137E+00
          2   -1    0    0  502    0  0.00000000000E+00  0.00000000000E+00  0.14749616088E+03  0.14749616088E+03  0.00000000000E+00 0. -1.
          1   -1    0    0  501    0 -0.00000000000E+00 -0.00000000000E+00 -0.11227404536E+04  0.11227404536E+04  0.00000000000E+00 0. -1.
         25    2    1    2    0    0 -0.31810927354E+02 -0.16842943164E+02 -0.27209205689E+02  0.13289461917E+03  0.12500007639E+03 0.  0.
          2    1    1    2  501    0  0.55296119501E+02  0.18399081225E+02 -0.10403972176E+04  0.10420280982E+04  0.00000000000E+00 0. -1.
          1    1    1    2  502    0 -0.23485192146E+02 -0.15561380607E+01  0.92362130579E+02  0.95313897102E+02  0.00000000000E+00 0. -1.
         22    1    3    3    0    0 -0.23156415501E+02 -0.68359176179E+02 -0.34767924496E+02  0.80112452968E+02  0.00000000000E+00 0.  1.
         22    1    3    3    0    0 -0.86545118531E+01  0.51516233015E+02  0.75587188074E+01  0.52782166206E+02  0.00000000000E+00 0.  1.
</event>
<event>
 7    1  0.4915160E-006  0.6784835E+02  0.7818608E-02  0.1471052E+00
          2   -1    0    0  502    0  0.00000000000E+00  0.00000000000E+00  0.80878656146E+03  0.80878656146E+03  0.00000000000E+00 0. -1.
          1   -1    0    0  501    0 -0.00000000000E+00 -0.00000000000E+00 -0.74428752902E+02  0.74428752902E+02  0.00000000000E+00 0. -1.
         25    2    1    2    0    0  0.49972224465E+02  0.36426297620E+02  0.13055185700E+03  0.19103045876E+03  0.12499900173E+03 0.  0.
          2    1    1    2  501    0 -0.32755454773E+02 -0.61668796674E+02 -0.15990605870E+02  0.71635604113E+02  0.00000000000E+00 0. -1.
          1    1    1    2  502    0 -0.17216769691E+02  0.25242499053E+02  0.61979655743E+03  0.62054925149E+03  0.00000000000E+00 0. -1.
         22    1    3    3    0    0  0.28859026647E+01 -0.45094543917E+02  0.46244550930E+02  0.64656050111E+02  0.00000000000E+00 0. -1.
         22    1    3    3    0    0  0.47086321800E+02  0.81520841537E+02  0.84307306067E+02  0.12637440865E+03  0.00000000000E+00 0. -1.
</event>
<event>
 7    1  0.4915160E-006  0.9362769E+02  0.7818608E-02  0.1375900E+00
          2   -1    0    0  502    0  0.00000000000E+00  0.00000000000E+00  0.26889015433E+04  0.26889015433E+04  0.00000000000E+00 0. -1.
          1   -1    0    0  501    0 -0.00000000000E+00 -0.00000000000E+00 -0.13461142162E+03  0.13461142162E+03  0.00000000000E+00 0. -1.
         25    2    1    2    0    0  0.10452291062E+03 -0.83320754099E+02  0.16512068923E+03  0.24649175917E+03  0.12500383361E+03 0.  0.
          2    1    1    2  501    0 -0.44045908480E+02  0.12905804157E+02 -0.87396994331E+02  0.98715938191E+02  0.00000000000E+00 0. -1.
          1    1    1    2  502    0 -0.60477002143E+02  0.70414949943E+02  0.24765664267E+04  0.24783052675E+04  0.00000000000E+00 0. -1.
         22    1    3    3    0    0  0.21649975602E+02 -0.49793465889E+02 -0.47802441882E+01  0.54506526429E+02  0.00000000000E+00 0.  1.
         22    1    3    3    0    0  0.82872935021E+02 -0.33527288210E+02  0.16990093342E+03  0.19198523274E+03  0.00000000000E+00 0.  1.
</event>
<event>
 7    1  0.4915160E-006  0.8137396E+02  0.7818608E-02  0.1351550E+00
          2   -1    0    0  502    0  0.00000000000E+00  0.00000000000E+00  0.24857021108E+03  0.24857021108E+03  0.00000000000E+00 0. -1.
          1   -1    0    0  501    0 -0.00000000000E+00 -0.00000000000E+00 -0.21195832659E+04  0.21195832659E+04  0.00000000000E+00 0. -1.
         25    2    1    2    0    0  0.11363402142E+02  0.54243874201E+02 -0.68564073770E+02  0.15296364487E+03  0.12500127857E+03 0.  0.
          2    1    1    2  501    0  0.52742276755E+02 -0.63193073904E+02 -0.20028778449E+04  0.20045684758E+04  0.00000000000E+00 0. -1.
          1    1    1    2  502    0 -0.64105678897E+02  0.89491997035E+01  0.20042886391E+03  0.21062135631E+03  0.00000000000E+00 0. -1.
         22    1    3    3    0    0 -0.56985862681E+02  0.27945070933E+02 -0.30153716862E+02  0.70267789032E+02  0.00000000000E+00 0. -1.
         22    1    3    3    0    0  0.68349264823E+02  0.26298803268E+02 -0.38410356908E+02  0.82695855839E+02  0.00000000000E+00 0. -1.
</event>
<event>
 7    1  0.4915160E-006  0.8212960E+02  0.7818608E-02  0.1331152E+00
          2   -1    0    0  502    0  0.00000000000E+00  0.00000000000E+00  0.96586326620E+03  0.96586326620E+03  0.00000000000E+00 0. -1.
          1   -1    0    0  501    0 -0.00000000000E+00 -0.00000000000E+00 -0.15028456908E+03  0.15028456908E+03  0.00000000000E+00 0. -1.
         25    2    1    2    0    0  0.15725039952E+02 -0.39382793537E+02  0.25770441239E+03  0.28953748620E+03  0.12498844123E+03 0.  0.
          2    1    1    2  501    0  0.71240335006E+02  0.40866682179E+02 -0.11876888345E+03  0.14439985706E+03  0.00000000000E+00 0. -1.
          1    1    1    2  502    0 -0.86965374958E+02 -0.14838886425E+01  0.67664316818E+03  0.68221049201E+03  0.00000000000E+00 0. -1.
         22    1    3    3    0    0 -0.11181834164E+00  0.16881445818E+02  0.21851248685E+03  0.21916364349E+03  0.00000000000E+00 0. -1.
         22    1    3    3    0    0  0.15836858294E+02 -0.56264239354E+02  0.39191925539E+02  0.70373842713E+02  0.00000000000E+00 0. -1.
</event>
<event>
 7    1  0.4915160E-006  0.5784113E+02  0.7818608E-02  0.1440146E+00
          2   -1    0    0  502    0  0.00000000000E+00  0.00000000000E+00  0.63402782063E+03  0.63402782063E+03  0.00000000000E+00 0. -1.
          1   -1    0    0  501    0 -0.00000000000E+00 -0.00000000000E+00 -0.95114992619E+03  0.95114992619E+03  0.00000000000E+00 0. -1.
         25    2    1    2    0    0  0.43967258262E+02  0.34874134831E+02  0.25391180744E+03  0.28851942775E+03  0.12499171633E+03 0.  0.
          2    1    1    2  501    0 -0.52516174949E+01 -0.57665721369E+02 -0.93155293761E+03  0.93335083997E+03  0.00000000000E+00 0. -1.
          1    1    1    2  502    0 -0.38715640767E+02  0.22791586538E+02  0.36051902461E+03  0.36330747909E+03  0.00000000000E+00 0. -1.
         22    1    3    3    0    0  0.26064019602E+02 -0.46408725999E+02  0.86623324680E+02  0.10166957925E+03  0.00000000000E+00 0.  1.
         22    1    3    3    0    0  0.17903238660E+02  0.81282860830E+02  0.16728848276E+03  0.18684984849E+03  0.00000000000E+00 0.  1.
</event>
<event>
 7    1  0.4915160E-006  0.4799716E+02  0.7818608E-02  0.1495660E+00
          2   -1    0    0  502    0  0.00000000000E+00  0.00000000000E+00  0.24064747160E+03  0.24064747160E+03  0.00000000000E+00 0. -1.
          1   -1    0    0  501    0 -0.00000000000E+00 -0.00000000000E+00 -0.14298915454E+04  0.14298915454E+04  0.00000000000E+00 0. -1.
         25    2    1    2    0    0  0.14825374990E+02  0.65800086315E+02  0.19898598148E+02  0.14342641988E+03  0.12500296240E+03 0.  0.
          2    1    1    2  501    0 -0.33286015845E+02 -0.34510336899E+02 -0.13656259801E+04  0.13664674309E+04  0.00000000000E+00 0. -1.
          1    1    1    2  502    0  0.18460640855E+02 -0.31289749415E+02  0.15648330818E+03  0.16064516618E+03  0.00000000000E+00 0. -1.
         22    1    3    3    0    0  0.61993613152E+02  0.36373287246E+02 -0.20454598571E+02  0.74730279669E+02  0.00000000000E+00 0.  1.
         22    1    3    3    0    0 -0.47168238162E+02  0.29426799069E+02  0.40353196719E+02  0.68696140213E+02  0.00000000000E+00 0.  1.
</event>
<event>
 7    1  0.4915160E-006  0.5059782E+02  0.7818608E-02  0.1537452E+00
          2   -1    0    0  502    0  0.00000000000E+00  0.00000000000E+00  0.10365546532E+02  0.10365546532E+02  0.00000000000E+00 0. -1.
          1   -1    0    0  501    0 -0.00000000000E+00 -0.00000000000E+00 -0.17286690643E+04  0.17286690643E+04  0.00000000000E+00 0. -1.
         25    2    1    2    0    0 -0.26395098094E+02 -0.20093915748E+02 -0.95736067890E+03  0.96605674921E+03  0.12500282612E+03 0.  0.
          2    1    1    2  501    0 -0.25082066901E+02  0.69420754298E+01 -0.64406470520E+03  0.64459029389E+03  0.00000000000E+00 0. -1.
          1    1    1    2  502    0  0.51477164994E+02  0.13151840318E+02 -0.11687813371E+03  0.12838756778E+03  0.00000000000E+00 0. -1.
         22    1    3    3    0    0 -0.67849134197E+02 -0.13753998147E+02 -0.32421678665E+03  0.33152556798E+03  0.00000000000E+00 0.  1.
         22    1    3    3    0    0  0.41454036104E+02 -0.63399176005E+01 -0.63314389225E+03  0.63453118123E+03  0.00000000000E+00 0.  1.
</event>
<event>
 7    1  0.4915160E-006  0.4421587E+02  0.7818608E-02  0.1523715E+00
          2   -1    0    0  502    0  0.00000000000E+00  0.00000000000E+00  0.80549431071E+03  0.80549431071E+03  0.00000000000E+00 0. -1.
          1   -1    0    0  501    0 -0.00000000000E+00 -0.00000000000E+00 -0.12150601961E+04  0.12150601961E+04  0.00000000000E+00 0. -1.
         25    2    1    2    0    0  0.35754041015E+00 -0.50173222946E+02 -0.98601027275E+02  0.16692596873E+03  0.12499854527E+03 0.  0.
          2    1    1    2  501    0  0.28193222681E+02  0.16375803586E+02 -0.10814163776E+04  0.10819077625E+04  0.00000000000E+00 0. -1.
          1    1    1    2  502    0 -0.28550763091E+02  0.33797419360E+02  0.77045151949E+03  0.77172077561E+03  0.00000000000E+00 0. -1.
         22    1    3    3    0    0  0.28592273524E+02  0.25724696586E+02  0.11054152276E+01  0.38477266828E+02  0.00000000000E+00 0.  1.
         22    1    3    3    0    0 -0.28234733114E+02 -0.75897919532E+02 -0.99706442503E+02  0.12844870190E+03  0.00000000000E+00 0.  1.
</event>
<event>
 7    1  0.4915160E-006  0.5253959E+02  0.7818608E-02  0.1494746E+00
          2   -1    0    0  502    0  0.00000000000E+00  0.00000000000E+00  0.18231459569E+04  0.18231459569E+04  0.00000000000E+00 0. -1.
          1   -1    0    0  501    0 -0.00000000000E+00 -0.00000000000E+00 -0.30574369971E+03  0.30574369971E+03  0.00000000000E+00 0. -1.
         25    2    1    2    0    0  0.78817553392E+02 -0.22927415735E+02  0.10233144617E+03  0.18120288242E+03  0.12499954642E+03 0.  0.
          2    1    1    2  501    0 -0.33288074580E+02 -0.27216117119E+01 -0.26485289868E+03  0.26695048421E+03  0.00000000000E+00 0. -1.
          1    1    1    2  502    0 -0.45529478812E+02  0.25649027447E+02  0.16799237097E+04  0.16807362900E+04  0.00000000000E+00 0. -1.
         22    1    3    3    0    0  0.86076242606E+02 -0.26060332532E+02  0.12238430140E+02  0.90763647156E+02  0.00000000000E+00 0.  1.
         22    1    3    3    0    0 -0.72586892136E+01  0.31329167964E+01  0.90093016031E+02  0.90439235259E+02  0.00000000000E+00 0.  1.
</event>
<event>
 7    1  0.4915160E-006  0.7485886E+02  0.7818608E-02  0.1360207E+00
          2   -1    0    0  502    0  0.00000000000E+00  0.00000000000E+00  0.68823018545E+03  0.68823018545E+03  0.00000000000E+00 0. -1.
          1   -1    0    0  501    0 -0.00000000000E+00 -0.00000000000E+00 -0.58224270343E+02  0.58224270343E+02  0.00000000000E+00 0. -1.
         25    2    1    2    0    0 -0.50300160722E+02 -0.30772904038E+01  0.16146232149E+03  0.21032076690E+03  0.12500067138E+03 0.  0.
          2    1    1    2  501    0  0.23410246194E+02  0.72939884937E+02  0.17053679589E+02  0.78479898248E+02  0.00000000000E+00 0. -1.
          1    1    1    2  502    0  0.26889914528E+02 -0.69862594533E+02  0.45148991403E+03  0.45765379064E+03  0.00000000000E+00 0. -1.
         22    1    3    3    0    0 -0.10065616596E+02 -0.61944070708E+02  0.86450874752E+02  0.10682761010E+03  0.00000000000E+00 0.  1.
         22    1    3    3    0    0 -0.40234544126E+02  0.58866780305E+02  0.75011446738E+02  0.10349315681E+03  0.00000000000E+00 0.  1.
</event>
<event>
 7    1  0.4915160E-006  0.1084973E+03  0.7818608E-02  0.1382231E+00
          2   -1    0    0  502    0  0.00000000000E+00  0.00000000000E+00  0.23211389084E+03  0.23211389084E+03  0.00000000000E+00 0. -1.
          1   -1    0    0  501    0 -0.00000000000E+00 -0.00000000000E+00 -0.10226141892E+04  0.10226141892E+04  0.00000000000E+00 0. -1.
         25    2    1    2    0    0 -0.10135694844E+03 -0.10230802604E+03  0.31920410727E+02  0.19335018940E+03  0.12500087971E+03 0.  0.
          2    1    1    2  501    0  0.69855377545E+02  0.81757900332E+02 -0.93578163215E+03  0.94194022693E+03  0.00000000000E+00 0. -1.
          1    1    1    2  502    0  0.31501570898E+02  0.20550125711E+02  0.11336092306E+03  0.11943766371E+03  0.00000000000E+00 0. -1.
         22    1    3    3    0    0 -0.12631437544E+03 -0.10469357176E+03  0.19035440274E+02  0.16516177947E+03  0.00000000000E+00 0. -1.
         22    1    3    3    0    0  0.24957427001E+02  0.23855457131E+01  0.12884970453E+02  0.28188409930E+02  0.00000000000E+00 0. -1.
</event>
<event>
 7    1  0.4915160E-006  0.1555878E+03  0.7818608E-02  0.1195161E+00
          2   -1    0    0  502    0  0.00000000000E+00  0.00000000000E+00  0.11862968340E+04  0.11862968340E+04  0.00000000000E+00 0. -1.
          1   -1    0    0  501    0 -0.00000000000E+00 -0.00000000000E+00 -0.22021772389E+03  0.22021772389E+03  0.00000000000E+00 0. -1.
         25    2    1    2    0    0  0.57732400014E+02 -0.16593118996E+02 -0.67816571313E+02  0.15437874751E+03  0.12500139491E+03 0.  0.
          2    1    1    2  501    0 -0.46487926556E+02 -0.14601100323E+03 -0.46015921412E+02  0.15999314174E+03  0.00000000000E+00 0. -1.
          1    1    1    2  502    0 -0.11244473458E+02  0.16260412223E+03  0.10799116029E+04  0.10921426687E+04  0.00000000000E+00 0. -1.
         22    1    3    3    0    0  0.50571163171E+02  0.48382702704E+02 -0.18210537426E+02  0.72318408022E+02  0.00000000000E+00 0.  1.
         22    1    3    3    0    0  0.71612368430E+01 -0.64975821701E+02 -0.49606033887E+02  0.82060339488E+02  0.00000000000E+00 0.  1.
</event>
<event>
 7    1  0.4915160E-006  0.1041287E+03  0.7818608E-02  0.1304247E+00
          2   -1    0    0  502    0  0.00000000000E+00  0.00000000000E+00  0.66466064518E+03  0.66466064518E+03  0.00000000000E+00 0. -1.
          1   -1    0    0  501    0 -0.00000000000E+00 -0.00000000000E+00 -0.43767447608E+03  0.43767447608E+03  0.00000000000E+00 0. -1.
         25    2    1    2    0    0 -0.65881284661E+02 -0.77468963188E+02 -0.19099052880E+03  0.24988744134E+03  0.12499826927E+03 0.  0.
          2    1    1    2  501    0 -0.13924958510E+01  0.11451519513E+03 -0.19959607581E+03  0.23011793159E+03  0.00000000000E+00 0. -1.
          1    1    1    2  502    0  0.67273780512E+02 -0.37046231938E+02  0.61757277370E+03  0.62232974834E+03  0.00000000000E+00 0. -1.
         22    1    3    3    0    0 -0.74285682251E+02  0.84913417788E+01 -0.88142376264E+02  0.11558349348E+03  0.00000000000E+00 0.  1.
         22    1    3    3    0    0  0.84043975896E+01 -0.85960304967E+02 -0.10284815253E+03  0.13430394785E+03  0.00000000000E+00 0.  1.
</event>
<event>
 7    1  0.4915160E-006  0.1613962E+03  0.7818608E-02  0.1318390E+00
          2   -1    0    0  502    0  0.00000000000E+00  0.00000000000E+00  0.20694940178E+04  0.20694940178E+04  0.00000000000E+00 0. -1.
          1   -1    0    0  501    0 -0.00000000000E+00 -0.00000000000E+00 -0.51310976435E+02  0.51310976435E+02  0.00000000000E+00 0. -1.
         25    2    1    2    0    0 -0.12035569317E+03  0.64651965893E+02  0.40509316049E+03  0.44541079849E+03  0.12499976464E+03 0.  0.
          2    1    1    2  501    0 -0.40005707980E+02 -0.17316825047E+02 -0.91648133205E+01  0.44545739458E+02  0.00000000000E+00 0. -1.
          1    1    1    2  502    0  0.16036140115E+03 -0.47335140847E+02  0.16222546941E+04  0.16308484562E+04  0.00000000000E+00 0. -1.
         22    1    3    3    0    0 -0.11811121221E+02 -0.83414272635E+01  0.21016663002E+03  0.21066346235E+03  0.00000000000E+00 0. -1.
         22    1    3    3    0    0 -0.10854457195E+03  0.72993393157E+02  0.19492653047E+03  0.23474733614E+03  0.00000000000E+00 0. -1.
</event>
<event>
 7    1  0.4915160E-006  0.7104492E+02  0.7818608E-02  0.1430484E+00
          2   -1    0    0  502    0  0.00000000000E+00  0.00000000000E+00  0.42158680360E+03  0.42158680360E+03  0.00000000000E+00 0. -1.
          1   -1    0    0  501    0 -0.00000000000E+00 -0.00000000000E+00 -0.54034741929E+03  0.54034741929E+03  0.00000000000E+00 0. -1.
         25    2    1    2    0    0  0.71168786073E+01 -0.57650436574E+02 -0.29648845426E+02  0.14099025218E+03  0.12499989750E+03 0.  0.
          2    1    1    2  501    0  0.31539536099E+02  0.64920599360E+02 -0.45109359836E+03  0.45683132668E+03  0.00000000000E+00 0. -1.
          1    1    1    2  502    0 -0.38656414706E+02 -0.72701627858E+01  0.36198182810E+03  0.36411264403E+03  0.00000000000E+00 0. -1.
         22    1    3    3    0    0 -0.57687868485E+01 -0.22902205880E+00 -0.69614167470E+02  0.69853157877E+02  0.00000000000E+00 0.  1.
         22    1    3    3    0    0  0.12885665456E+02 -0.57421414515E+02  0.39965322044E+02  0.71137094299E+02  0.00000000000E+00 0.  1.
</event>
<event>
 7    1  0.4915160E-006  0.6772896E+02  0.7818608E-02  0.1371434E+00
          2   -1    0    0  502    0  0.00000000000E+00  0.00000000000E+00  0.52488488429E+03  0.52488488429E+03  0.00000000000E+00 0. -1.
          1   -1    0    0  501    0 -0.00000000000E+00 -0.00000000000E+00 -0.59473855956E+03  0.59473855956E+03  0.00000000000E+00 0. -1.
         25    2    1    2    0    0  0.12257336939E+03 -0.37404565490E+02 -0.20142350482E+00  0.17902188530E+03  0.12500184975E+03 0.  0.
          2    1    1    2  501    0 -0.56824859407E+02  0.34233248129E+02 -0.50043787680E+03  0.50481585599E+03  0.00000000000E+00 0. -1.
          1    1    1    2  502    0 -0.65748509986E+02  0.31713173611E+01  0.43078562504E+03  0.43578570256E+03  0.00000000000E+00 0. -1.
         22    1    3    3    0    0  0.42381590833E+02 -0.52456928635E+01  0.60051259868E+02  0.73687653966E+02  0.00000000000E+00 0. -1.
         22    1    3    3    0    0  0.80191778560E+02 -0.32158872627E+02 -0.60252683373E+02  0.10533423133E+03  0.00000000000E+00 0. -1.
</event>
<event>
 7    1  0.4915160E-006  0.1334560E+03  0.7818608E-02  0.1375323E+00
          2   -1    0    0  502    0  0.00000000000E+00  0.00000000000E+00  0.33588921743E+02  0.33588921743E+02  0.00000000000E+00 0. -1.
          1   -1    0    0  501    0 -0.00000000000E+00 -0.00000000000E+00 -0.18323886058E+04  0.18323886058E+04  0.00000000000E+00 0. -1.
         25    2    1    2    0    0 -0.11569048629E+03  0.79185829788E+02 -0.27449819804E+03  0.33260919096E+03  0.12499971570E+03 0.  0.
          2    1    1    2  501    0  0.94680426667E+01 -0.30936790011E+02 -0.71164673697E+03  0.71238178461E+03  0.00000000000E+00 0. -1.
          1    1    1    2  502    0  0.10622244363E+03 -0.48249039777E+02 -0.81265474908E+03  0.82098655200E+03  0.00000000000E+00 0. -1.
         22    1    3    3    0    0 -0.13116262391E+03  0.91840708406E+02 -0.20401319297E+03  0.25934481398E+03  0.00000000000E+00 0. -1.
         22    1    3    3    0    0  0.15472137612E+02 -0.12654878617E+02 -0.70485005065E+02  0.73264376979E+02  0.00000000000E+00 0. -1.
</event>
<event>
 7    1  0.4915160E-006  0.4130236E+02  0.7818608E-02  0.1540583E+00
          2   -1    0    0  502    0  0.00000000000E+00  0.00000000000E+00  0.78153421226E+03  0.78153421226E+03  0.00000000000E+00 0. -1.
          1   -1    0    0  501    0 -0.00000000000E+00 -0.00000000000E+00 -0.56581291389E+03  0.56581291389E+03  0.00000000000E+00 0. -1.
         25    2    1    2    0    0  0.39145204850E+02  0.54198558907E+02  0.59604033746E+03  0.61266547663E+03  0.12500028612E+03 0.  0.
          2    1    1    2  501    0 -0.11507885297E+02 -0.39638187513E+02 -0.55535163915E+03  0.55688334545E+03  0.00000000000E+00 0. -1.
          1    1    1    2  502    0 -0.27637319552E+02 -0.14560371394E+02  0.17503260006E+03  0.17779830407E+03  0.00000000000E+00 0. -1.
         22    1    3    3    0    0  0.56509400353E+02  0.43873028700E+02  0.15019986405E+03  0.16636752729E+03  0.00000000000E+00 0.  1.
         22    1    3    3    0    0 -0.17364195503E+02  0.10325530207E+02  0.44584047341E+03  0.44629794934E+03  0.00000000000E+00 0.  1.
</event>
<event>
 7    1  0.4915160E-006  0.4964919E+02  0.7818608E-02  0.1499088E+00
          2   -1    0    0  502    0  0.00000000000E+00  0.00000000000E+00  0.88554371107E+02  0.88554371107E+02  0.00000000000E+00 0. -1.
          1   -1    0    0  501    0 -0.00000000000E+00 -0.00000000000E+00 -0.84073396273E+03  0.84073396273E+03  0.00000000000E+00 0. -1.
         25    2    1    2    0    0  0.26349618698E+02  0.36659980891E+01 -0.12159318252E+03  0.17640401731E+03  0.12500293333E+03 0.  0.
          2    1    1    2  501    0  0.18997442332E+02 -0.28558740844E+02 -0.68028490672E+03  0.68114907238E+03  0.00000000000E+00 0. -1.
          1    1    1    2  502    0 -0.45347061031E+02  0.24892742755E+02  0.49698497622E+02  0.71735244140E+02  0.00000000000E+00 0. -1.
         22    1    3    3    0    0  0.35033938999E+02  0.52225298569E+02 -0.24487690185E+02  0.67487077748E+02  0.00000000000E+00 0.  1.
         22    1    3    3    0    0 -0.86843203004E+01 -0.48559300480E+02 -0.97105492339E+02  0.10891693957E+03  0.00000000000E+00 0.  1.
</event>
<event>
 7    1  0.4915160E-006  0.1647379E+03  0.7818608E-02  0.1292827E+00
          2   -1    0    0  502    0  0.00000000000E+00  0.00000000000E+00  0.65514053163E+03  0.65514053163E+03  0.00000000000E+00 0. -1.
          1   -1    0    0  501    0 -0.00000000000E+00 -0.00000000000E+00 -0.11300469699E+04  0.11300469699E+04  0.00000000000E+00 0. -1.
         25    2    1    2    0    0 -0.11697410457E+03  0.15435472642E+03  0.17036553245E+03  0.28663285661E+03  0.12500262851E+03 0.  0.
          2    1    1    2  501    0  0.63104043268E+02 -0.15148903669E+03 -0.10638912632E+04  0.10764737194E+04  0.00000000000E+00 0. -1.
          1    1    1    2  502    0  0.53870061299E+02 -0.28656897303E+01  0.41861929250E+03  0.42208092557E+03  0.00000000000E+00 0. -1.
         22    1    3    3    0    0 -0.90747098664E+02  0.12250809464E+03  0.51675616319E+02  0.16097713654E+03  0.00000000000E+00 0. -1.
         22    1    3    3    0    0 -0.26227005903E+02  0.31846631783E+02  0.11868991613E+03  0.12565572007E+03  0.00000000000E+00 0. -1.
</event>
<event>
 7    1  0.4915160E-006  0.6299109E+02  0.7818608E-02  0.1478901E+00
          2   -1    0    0  502    0  0.00000000000E+00  0.00000000000E+00  0.11858775193E+04  0.11858775193E+04  0.00000000000E+00 0. -1.
          1   -1    0    0  501    0 -0.00000000000E+00 -0.00000000000E+00 -0.17333136311E+03  0.17333136311E+03  0.00000000000E+00 0. -1.
         25    2    1    2    0    0  0.38806597646E+02 -0.67157741607E+02 -0.73245158782E+02  0.16433890839E+03  0.12500523688E+03 0.  0.
          2    1    1    2  501    0  0.11247882045E+02  0.29020436489E+02 -0.49155241253E+02  0.58180222818E+02  0.00000000000E+00 0. -1.
          1    1    1    2  502    0 -0.50054479691E+02  0.38137305118E+02  0.11349465562E+04  0.11366897512E+04  0.00000000000E+00 0. -1.
         22    1    3    3    0    0 -0.32688150728E+02 -0.61529946377E+02 -0.58829290076E+02  0.91188457987E+02  0.00000000000E+00 0.  1.
         22    1    3    3    0    0  0.71494748374E+02 -0.56277952295E+01 -0.14415868706E+02  0.73150450407E+02  0.00000000000E+00 0.  1.
</event>
<event>
 7    1  0.4915160E-006  0.7115723E+02  0.7818608E-02  0.1404158E+00
          2   -1    0    0  502    0  0.00000000000E+00  0.00000000000E+00  0.75962517430E+03  0.75962517430E+03  0.00000000000E+00 0. -1.
          1   -1    0    0  501    0 -0.00000000000E+00 -0.00000000000E+00 -0.32666541494E+03  0.32666541494E+03  0.00000000000E+00 0. -1.
         25    2    1    2    0    0 -0.28025190800E+02 -0.17187673991E+02  0.78983901370E+02  0.15147597321E+03  0.12500274528E+03 0.  0.
          2    1    1    2  501    0 -0.69390932744E+01 -0.47620841317E+02 -0.28630085836E+03  0.29031720073E+03  0.00000000000E+00 0. -1.
          1    1    1    2  502    0  0.34964284074E+02  0.64808515307E+02  0.64027671635E+03  0.64449741530E+03  0.00000000000E+00 0. -1.
         22    1    3    3    0    0 -0.53032186947E+02 -0.58158180479E+02  0.34155210111E+02  0.85798398509E+02  0.00000000000E+00 0.  1.
         22    1    3    3    0    0  0.25006996147E+02  0.40970506488E+02  0.44828691259E+02  0.65677574698E+02  0.00000000000E+00 0.  1.
</event>
<event>
 7    1  0.4915160E-006  0.1210361E+03  0.7818608E-02  0.1337149E+00
          2   -1    0    0  502    0  0.00000000000E+00  0.00000000000E+00  0.10790655607E+04  0.10790655607E+04  0.00000000000E+00 0. -1.
          1   -1    0    0  501    0 -0.00000000000E+00 -0.00000000000E+00 -0.19133141901E+03  0.19133141901E+03  0.00000000000E+00 0. -1.
         25    2    1    2    0    0 -0.97580087713E+02  0.62260696608E+01  0.46784208867E+03  0.49402523245E+03  0.12499629158E+03 0.  0.
          2    1    1    2  501    0  0.11581247507E+03  0.39533582238E+02 -0.15605933481E+03  0.19831779922E+03  0.00000000000E+00 0. -1.
          1    1    1    2  502    0 -0.18232387356E+02 -0.45759651899E+02  0.57595138784E+03  0.57805394804E+03  0.00000000000E+00 0. -1.
         22    1    3    3    0    0 -0.11522108029E+02  0.30118528621E+02  0.31766020827E+03  0.31929280083E+03  0.00000000000E+00 0.  1.
         22    1    3    3    0    0 -0.86057979685E+02 -0.23892458960E+02  0.15018188040E+03  0.17473243163E+03  0.00000000000E+00 0.  1.
</event>
<event>
 7    1  0.4915160E-006  0.1025185E+03  0.7818608E-02  0.1377997E+00
          2   -1    0    0  502    0  0.00000000000E+00  0.00000000000E+00  0.27192948113E+04  0.27192948113E+04  0.00000000000E+00 0. -1.
          1   -1    0    0  501    0 -0.00000000000E+00 -0.00000000000E+00 -0.20551212529E+03  0.20551212529E+03  0.00000000000E+00 0. -1.
         25    2    1    2    0    0 -0.38692142651E+02  0.11789367428E+03  0.33742124259E+02  0.17933353966E+03  0.12500394858E+03 0.  0.
          2    1    1    2  501    0  0.57507201707E+02 -0.81236768441E+02 -0.11386875430E+03  0.15123684736E+03  0.00000000000E+00 0. -1.
          1    1    1    2  502    0 -0.18815059057E+02 -0.36656905841E+02  0.25939093161E+04  0.25942365496E+04  0.00000000000E+00 0. -1.
         22    1    3    3    0    0  0.13143071733E+02  0.10397940174E+03 -0.16163685856E+02  0.10604584415E+03  0.00000000000E+00 0. -1.
         22    1    3    3    0    0 -0.51835214383E+02  0.13914272540E+02  0.49905810115E+02  0.73287695514E+02  0.00000000000E+00 0. -1.
</event>
<event>
 7    1  0.4915160E-006  0.9322457E+02  0.7818608E-02  0.1436021E+00
          2   -1    0    0  502    0  0.00000000000E+00  0.00000000000E+00  0.25920639995E+03  0.25920639995E+03  0.00000000000E+00 0. -1.
          1   -1    0    0  501    0 -0.00000000000E+00 -0.00000000000E+00 -0.10999167568E+04  0.10999167568E+04  0.00000000000E+00 0. -1.
         25    2    1    2    0    0 -0.18716960593E+02  0.75954626405E+02 -0.42767097357E+03  0.45237353699E+03  0.12497970017E+03 0.  0.
          2    1    1    2  501    0  0.45187121619E+02 -0.87173111385E+02 -0.65538766343E+03  0.66270205725E+03  0.00000000000E+00 0. -1.
          1    1    1    2  502    0 -0.26470161026E+02  0.11218484980E+02  0.24234828020E+03  0.24404756246E+03  0.00000000000E+00 0. -1.
         22    1    3    3    0    0 -0.31802135093E+02  0.51677575431E+02 -0.66007734646E+02  0.89660295739E+02  0.00000000000E+00 0.  1.
         22    1    3    3    0    0  0.13085174500E+02  0.24277050974E+02 -0.36166323892E+03  0.36271324125E+03  0.00000000000E+00 0.  1.
</event>
<event>
 7    1  0.4915160E-006  0.1172385E+03  0.7818608E-02  0.1332481E+00
          2   -1    0    0  502    0  0.00000000000E+00  0.00000000000E+00  0.19355466368E+04  0.19355466368E+04  0.00000000000E+00 0. -1.
          1   -1    0    0  501    0 -0.00000000000E+00 -0.00000000000E+00 -0.10688431819E+03  0.10688431819E+03  0.00000000000E+00 0. -1.
         25    2    1    2    0    0 -0.13576562328E+03  0.73187948754E+02  0.10885864784E+04  0.11065423958E+04  0.12500708959E+03 0.  0.
          2    1    1    2  501    0  0.11349505777E+03 -0.25127933145E+02 -0.62218738358E+02  0.13184730777E+03  0.00000000000E+00 0. -1.
          1    1    1    2  502    0  0.22270565509E+02 -0.48060015608E+02  0.80229457857E+03  0.80404125142E+03  0.00000000000E+00 0. -1.
         22    1    3    3    0    0 -0.15229092107E+03  0.36408733954E+02  0.91776179723E+03  0.93102354267E+03  0.00000000000E+00 0.  1.
         22    1    3    3    0    0  0.16525297795E+02  0.36779214800E+02  0.17082468113E+03  0.17551885309E+03  0.00000000000E+00 0.  1.
</event>
<event>
 7    1  0.4915160E-006  0.5974889E+02  0.7818608E-02  0.1452444E+00
          2   -1    0    0  502    0  0.00000000000E+00  0.00000000000E+00  0.71081771927E+03  0.71081771927E+03  0.00000000000E+00 0. -1.
          1   -1    0    0  501    0 -0.00000000000E+00 -0.00000000000E+00 -0.73997704928E+03  0.73997704928E+03  0.00000000000E+00 0. -1.
         25    2    1    2    0    0  0.97225907844E+02  0.15568925499E+02  0.65700416115E+01  0.15925594670E+03  0.12499609001E+03 0.  0.
          2    1    1    2  501    0 -0.39620149130E+02 -0.25997331336E+01 -0.66164944140E+03  0.66283972281E+03  0.00000000000E+00 0. -1.
          1    1    1    2  502    0 -0.57605758715E+02 -0.12969192366E+02  0.62592006978E+03  0.62869909904E+03  0.00000000000E+00 0. -1.
         22    1    3    3    0    0  0.11780842724E+03  0.39073126122E+01  0.34342188541E+02  0.12277409553E+03  0.00000000000E+00 0. -1.
         22    1    3    3    0    0 -0.20582519395E+02  0.11661612887E+02 -0.27772146929E+02  0.36481851170E+02  0.00000000000E+00 0. -1.
</event>
<event>
 7    1  0.5075263E-006  0.6542584E+02  0.7818608E-02  0.1404478E+00
          2   -1    0    0  502    0  0.00000000000E+00  0.00000000000E+00  0.33609689602E+03  0.33609689602E+03  0.00000000000E+00 0. -1.
          1   -1    0    0  501    0 -0.00000000000E+00 -0.00000000000E+00 -0.17018686537E+04  0.17018686537E+04  0.00000000000E+00 0. -1.
         25    2    1    2    0    0  0.67664762900E+01  0.24991145618E+02 -0.68978295022E+03  0.70149564383E+03  0.12500110933E+03 0.  0.
          2    1    1    2  501    0  0.52038891289E+02  0.42011504118E+01 -0.10022802457E+04  0.10036390720E+04  0.00000000000E+00 0. -1.
          1    1    1    2  502    0 -0.58805367579E+02 -0.29192296029E+02  0.32629143819E+03  0.33283083396E+03  0.00000000000E+00 0. -1.
         22    1    3    3    0    0  0.97359935629E+01  0.68219001263E+02 -0.24196480364E+03  0.25158614411E+03  0.00000000000E+00 0.  1.
         22    1    3    3    0    0 -0.29695172729E+01 -0.43227855646E+02 -0.44781814658E+03  0.44990949972E+03  0.00000000000E+00 0.  1.
</event>
<event>
 7    1  0.6812498E-006  0.1016057E+03  0.7818608E-02  0.1337663E+00
          2   -1    0    0  502    0  0.00000000000E+00  0.00000000000E+00  0.27518746845E+04  0.27518746845E+04  0.00000000000E+00 0. -1.
          1   -1    0    0  501    0 -0.00000000000E+00 -0.00000000000E+00 -0.67046517363E+03  0.67046517363E+03  0.00000000000E+00 0. -1.
         25    2    1    2    0    0 -0.78989441613E+02  0.44926788128E+02 -0.73428817346E+02  0.17109812382E+03  0.12500011433E+03 0.  0.
          2    1    1    2  501    0  0.34897559844E+02  0.46846806540E+02 -0.54568343357E+03  0.54880130524E+03  0.00000000000E+00 0. -1.
          1    1    1    2  502    0  0.44091881768E+02 -0.91773594668E+02  0.27005217618E+04  0.27024404290E+04  0.00000000000E+00 0. -1.
         22    1    3    3    0    0  0.32515063005E+02  0.13169788158E+01 -0.42442261592E+01  0.32817330957E+02  0.00000000000E+00 0. -1.
         22    1    3    3    0    0 -0.11150450462E+03  0.43609809312E+02 -0.69184591187E+02  0.13828079287E+03  0.00000000000E+00 0. -1.
</event>
<event>
 7    1  0.4915160E-006  0.3759913E+02  0.7818608E-02  0.1576134E+00
          2   -1    0    0  502    0  0.00000000000E+00  0.00000000000E+00  0.17348323753E+04  0.17348323753E+04  0.00000000000E+00 0. -1.
          1   -1    0    0  501    0 -0.00000000000E+00 -0.00000000000E+00 -0.15945178147E+02  0.15945178147E+02  0.00000000000E+00 0. -1.
         25    2    1    2    0    0 -0.15548844485E+02 -0.12888916624E+02  0.89657418882E+03  0.90547138431E+03  0.12500104405E+03 0.  0.
          2    1    1    2  501    0  0.38360558619E+02 -0.22490991488E+01  0.21513613468E+02  0.44038919934E+02  0.00000000000E+00 0. -1.
          1    1    1    2  502    0 -0.22811714134E+02  0.15138015772E+02  0.80079939491E+03  0.80126724924E+03  0.00000000000E+00 0. -1.
         22    1    3    3    0    0 -0.14511367990E+02 -0.48003055498E+02  0.81639852166E+03  0.81793729546E+03  0.00000000000E+00 0. -1.
         22    1    3    3    0    0 -0.10374764956E+01  0.35114138875E+02  0.80175667156E+02  0.87534088847E+02  0.00000000000E+00 0. -1.
</event>
<event>
 7    1  0.4915160E-006  0.9617650E+02  0.7818608E-02  0.1295974E+00
          2   -1    0    0  502    0  0.00000000000E+00  0.00000000000E+00  0.13712351818E+03  0.13712351818E+03  0.00000000000E+00 0. -1.
          1   -1    0    0  501    0 -0.00000000000E+00 -0.00000000000E+00 -0.11379626482E+04  0.11379626482E+04  0.00000000000E+00 0. -1.
         25    2    1    2    0    0  0.17635831091E+03 -0.24057720014E+02 -0.26805681267E+03  0.34519570359E+03  0.12499836495E+03 0.  0.
          2    1    1    2  501    0 -0.90862273424E+02 -0.32059871147E+01 -0.80781604602E+03  0.81291635196E+03  0.00000000000E+00 0. -1.
          1    1    1    2  502    0 -0.85496037483E+02  0.27263707129E+02  0.75033728702E+02  0.11697411079E+03  0.00000000000E+00 0. -1.
         22    1    3    3    0    0  0.85210428039E+01 -0.16043239392E+02 -0.11962318398E+03  0.12099462734E+03  0.00000000000E+00 0.  1.
         22    1    3    3    0    0  0.16783726810E+03 -0.80144806225E+01 -0.14843362869E+03  0.22420107625E+03  0.00000000000E+00 0.  1.
</event>
<event>
 7    1  0.4915160E-006  0.1161816E+03  0.7818608E-02  0.1305220E+00
          2   -1    0    0  502    0  0.00000000000E+00  0.00000000000E+00  0.11999332441E+04  0.11999332441E+04  0.00000000000E+00 0. -1.
          1   -1    0    0  501    0 -0.00000000000E+00 -0.00000000000E+00 -0.58925279558E+03  0.58925279558E+03  0.00000000000E+00 0. -1.
         25    2    1    2    0    0 -0.90943028078E+02  0.82359050179E+02  0.42667139214E+03  0.46122392837E+03  0.12500155090E+03 0.  0.
          2    1    1    2  501    0  0.29736181807E+02 -0.11249228131E+03 -0.56449158144E+03  0.57635882867E+03  0.00000000000E+00 0. -1.
          1    1    1    2  502    0  0.61206846270E+02  0.30133231135E+02  0.74850063781E+03  0.75160328262E+03  0.00000000000E+00 0. -1.
         22    1    3    3    0    0 -0.39799056920E+01  0.10003144762E+02 -0.71309475631E+01  0.12913286475E+02  0.00000000000E+00 0.  1.
         22    1    3    3    0    0 -0.86963122386E+02  0.72355905417E+02  0.43380233970E+03  0.44831064189E+03  0.00000000000E+00 0.  1.
</event>
<event>
 7    1  0.4915160E-006  0.1663814E+03  0.7818608E-02  0.1245227E+00
          2   -1    0    0  502    0  0.00000000000E+00  0.00000000000E+00  0.13180266933E+04  0.13180266933E+04  0.00000000000E+00 0. -1.
          1   -1    0    0  501    0 -0.00000000000E+00 -0.00000000000E+00 -0.20850043267E+04  0.20850043267E+04  0.00000000000E+00 0. -1.
         25    2    1    2    0    0  0.10880575333E+02  0.16623526932E+03  0.25491829699E+03  0.32918150330E+03  0.12499828914E+03 0.  0.
          2    1    1    2  501    0  0.72283396225E+02 -0.15013143463E+03 -0.20427261301E+04  0.20495107660E+04  0.00000000000E+00 0. -1.
          1    1    1    2  502    0 -0.83163971558E+02 -0.16103834694E+02  0.10208301997E+04  0.10243387508E+04  0.00000000000E+00 0. -1.
         22    1    3    3    0    0  0.21488974267E+02  0.16197129534E+03  0.26669600203E+03  0.31276706033E+03  0.00000000000E+00 0. -1.
         22    1    3    3    0    0 -0.10608398934E+02  0.42639739837E+01 -0.11777705038E+02  0.16414442970E+02  0.00000000000E+00 0. -1.
</event>
<event>
 7    1  0.4915160E-006  0.2307344E+03  0.7818608E-02  0.1151958E+00
          2   -1    0    0  502    0  0.00000000000E+00  0.00000000000E+00  0.18650980814E+04  0.18650980814E+04  0.00000000000E+00 0. -1.
          1   -1    0    0  501    0 -0.00000000000E+00 -0.00000000000E+00 -0.47450620642E+03  0.47450620642E+03  0.00000000000E+00 0. -1.
         25    2    1    2    0    0 -0.31271622605E+02 -0.10833487386E+03  0.16786925631E+03  0.23773884933E+03  0.12500125597E+03 0.  0.
          2    1    1    2  501    0  0.18691033749E+03  0.17385671884E+03 -0.39775048536E+03  0.47261726751E+03  0.00000000000E+00 0. -1.
          1    1    1    2  502    0 -0.15563871488E+03 -0.65521844983E+02  0.16204731040E+04  0.16292481710E+04  0.00000000000E+00 0. -1.
         22    1    3    3    0    0 -0.40064983665E+02 -0.10471848979E+03  0.55749193628E+02  0.12521636319E+03  0.00000000000E+00 0.  1.
         22    1    3    3    0    0  0.87933610593E+01 -0.36163840691E+01  0.11212006268E+03  0.11252248615E+03  0.00000000000E+00 0.  1.
</event>
<event>
 7    1  0.4915160E-006  0.1298857E+03  0.7818608E-02  0.1357551E+00
          2   -1    0    0  502    0  0.00000000000E+00  0.00000000000E+00  0.75374270707E+03  0.75374270707E+03  0.00000000000E+00 0. -1.
          1   -1    0    0  501    0 -0.00000000000E+00 -0.00000000000E+00 -0.52717596238E+03  0.52717596238E+03  0.00000000000E+00 0. -1.
         25    2    1    2    0    0 -0.92241687486E+02  0.13783817892E+03  0.68111857238E+02  0.21856865692E+03  0.12500056085E+03 0.  0.
          2    1    1    2  501    0  0.67363487205E+02 -0.10840131771E+03 -0.44230744184E+03  0.46035264548E+03  0.00000000000E+00 0. -1.
          1    1    1    2  502    0  0.24878200281E+02 -0.29436861208E+02  0.60076232929E+03  0.60199736705E+03  0.00000000000E+00 0. -1.
         22    1    3    3    0    0 -0.23484808423E+02 -0.18726172445E+02  0.31830676401E+02  0.43765257011E+02  0.00000000000E+00 0. -1.
         22    1    3    3    0    0 -0.68756879063E+02  0.15656435136E+03  0.36281180837E+02  0.17480339991E+03  0.00000000000E+00 0. -1.
</event>
<event>
 7    1  0.4915160E-006  0.8416893E+02  0.7818608E-02  0.1371993E+00
          2   -1    0    0  502    0  0.00000000000E+00  0.00000000000E+00  0.27850276080E+03  0.27850276080E+03  0.00000000000E+00 0. -1.
          1   -1    0    0  501    0 -0.00000000000E+00 -0.00000000000E+00 -0.10407242013E+04  0.10407242013E+04  0.00000000000E+00 0. -1.
         25    2    1    2    0    0  0.66365473735E+02 -0.11479839542E+02  0.13460438030E+03  0.19564941512E+03  0.12499676644E+03 0.  0.
          2    1    1    2  501    0  0.28925143548E+02  0.44081402121E+02 -0.98699216280E+03  0.98839939466E+03  0.00000000000E+00 0. -1.
          1    1    1    2  502    0 -0.95290617283E+02 -0.32601562579E+02  0.90166342021E+02  0.13517815230E+03  0.00000000000E+00 0. -1.
         22    1    3    3    0    0 -0.11238528308E+02 -0.48185950406E+02  0.22249337527E+02  0.54251482518E+02  0.00000000000E+00 0. -1.
         22    1    3    3    0    0  0.77604002042E+02  0.36706110864E+02  0.11235504277E+03  0.14139793260E+03  0.00000000000E+00 0. -1.
</event>
<event>
 7    1  0.4915160E-006  0.2687855E+03  0.7818608E-02  0.1242984E+00
          2   -1    0    0  502    0  0.00000000000E+00  0.00000000000E+00  0.25810970788E+04  0.25810970788E+04  0.00000000000E+00 0. -1.
          1   -1    0    0  501    0 -0.00000000000E+00 -0.00000000000E+00 -0.23770427634E+03  0.23770427634E+03  0.00000000000E+00 0. -1.
         25    2    1    2    0    0 -0.18898888587E+03 -0.25512383566E+03  0.19539313612E+04  0.19835018253E+04  0.12500702537E+03 0.  0.
          2    1    1    2  501    0  0.14559996877E+03  0.22359288794E+03 -0.14123828103E+03  0.30189631080E+03  0.00000000000E+00 0. -1.
          1    1    1    2  502    0  0.43388917105E+02  0.31530947718E+02  0.53069972231E+03  0.53340321901E+03  0.00000000000E+00 0. -1.
         22    1    3    3    0    0 -0.34105361767E+02  0.85975517267E+01  0.18134836330E+03  0.18472769816E+03  0.00000000000E+00 0.  1.
         22    1    3    3    0    0 -0.15488352411E+03 -0.26372138739E+03  0.17725829979E+04  0.17987741272E+04  0.00000000000E+00 0.  1.
</event>
<event>
 7    1  0.4915160E-006  0.3793154E+02  0.7818608E-02  0.1615180E+00
          2   -1    0    0  502    0  0.00000000000E+00  0.00000000000E+00  0.14544755756E+03  0.14544755756E+03  0.00000000000E+00 0. -1.
          1   -1    0    0  501    0 -0.00000000000E+00 -0.00000000000E+00 -0.19488799912E+03  0.19488799912E+03  0.00000000000E+00 0. -1.
         25    2    1    2    0    0  0.43392997539E+02  0.89870627603E+01  0.71826978545E+02  0.15082425516E+03  0.12500048626E+03 0.  0.
          2    1    1    2  501    0 -0.28788636079E+02 -0.24666040382E+02 -0.14940746462E+03  0.15414210845E+03  0.00000000000E+00 0. -1.
          1    1    1    2  502    0 -0.14604361460E+02  0.15678977622E+02  0.28140044508E+02  0.35369193061E+02  0.00000000000E+00 0. -1.
         22    1    3    3    0    0  0.75870873603E+02  0.24058106502E+02  0.11149895141E+02  0.80371027811E+02  0.00000000000E+00 0.  1.
         22    1    3    3    0    0 -0.32477876064E+02 -0.15071043742E+02  0.60677083404E+02  0.70453227347E+02  0.00000000000E+00 0.  1.
</event>
<event>
 7    1  0.4915160E-006  0.7570705E+02  0.7818608E-02  0.1491830E+00
          2   -1    0    0  502    0  0.00000000000E+00  0.00000000000E+00  0.87013366909E+03  0.87013366909E+03  0.00000000000E+00 0. -1.
          1   -1    0    0  501    0 -0.00000000000E+00 -0.00000000000E+00 -0.28160454571E+03  0.28160454571E+03  0.00000000000E+00 0. -1.
         25    2    1    2    0    0 -0.67903613687E+02  0.30648656885E+02 -0.22029178786E+02  0.14717709726E+03  0.12500228926E+03 0.  0.
          2    1    1    2  501    0 -0.74595236740E+01 -0.22444838632E+02 -0.19450434386E+03  0.19593712015E+03  0.00000000000E+00 0. -1.
          1    1    1    2  502    0  0.75363137361E+02 -0.82038182531E+01  0.80506264603E+03  0.80862399738E+03  0.00000000000E+00 0. -1.
         22    1    3    3    0    0 -0.11721639796E+02  0.32659899291E+02 -0.66823229989E+02  0.75295484110E+02  0.00000000000E+00 0.  1.
         22    1    3    3    0    0 -0.56181973892E+02 -0.20112424064E+01  0.44794051202E+02  0.71881613153E+02  0.00000000000E+00 0.  1.
</event>
<event>
 7    1  0.4915160E-006  0.9247069E+02  0.7818608E-02  0.1312344E+00
          2   -1    0    0  502    0  0.00000000000E+00  0.00000000000E+00  0.23596887415E+03  0.23596887415E+03  0.00000000000E+00 0. -1.
          1   -1    0    0  501    0 -0.00000000000E+00 -0.00000000000E+00 -0.46885673183E+03  0.46885673183E+03  0.00000000000E+00 0. -1.
         25    2    1    2    0    0 -0.12695943858E+03  0.62455424431E+02 -0.16578640400E+03  0.25125813332E+03  0.12500455481E+03 0.  0.
          2    1    1    2  501    0  0.86376630091E+02  0.68809753618E+01 -0.24418941681E+03  0.25910758640E+03  0.00000000000E+00 0. -1.
          1    1    1    2  502    0  0.40582808488E+02 -0.69336399793E+02  0.17708796313E+03  0.19445988626E+03  0.00000000000E+00 0. -1.
         22    1    3    3    0    0 -0.12717696545E+03  0.22968471967E+02 -0.68506138850E+02  0.14626900664E+03  0.00000000000E+00 0. -1.
         22    1    3    3    0    0  0.21752686595E+00  0.39486952465E+02 -0.97280265152E+02  0.10498912668E+03  0.00000000000E+00 0. -1.
</event>
<event>
 7    1  0.4915160E-006  0.7766200E+02  0.7818608E-02  0.1454724E+00
          2   -1    0    0  502    0  0.00000000000E+00  0.00000000000E+00  0.84172561642E+03  0.84172561642E+03  0.00000000000E+00 0. -1.
          1   -1    0    0  501    0 -0.00000000000E+00 -0.00000000000E+00 -0.46046758104E+03  0.46046758104E+03  0.00000000000E+00 0. -1.
         25    2    1    2    0    0  0.63060022282E+02 -0.41484195940E+02 -0.17185874431E+03  0.22551675945E+03  0.12499950350E+03 0.  0.
          2    1    1    2  501    0  0.13302174004E+02  0.26935267246E+02 -0.25905597989E+03  0.26079198065E+03  0.00000000000E+00 0. -1.
          1    1    1    2  502    0 -0.76362196287E+02  0.14548928694E+02  0.81217275958E+03  0.81588445735E+03  0.00000000000E+00 0. -1.
         22    1    3    3    0    0 -0.20483599863E+02  0.28761103098E+02 -0.28754124782E+02  0.45536563405E+02  0.00000000000E+00 0.  1.
         22    1    3    3    0    0  0.83543622145E+02 -0.70245299038E+02 -0.14310461953E+03  0.17998019605E+03  0.00000000000E+00 0.  1.
</event>
<event>
 7    1  0.4915160E-006  0.1506202E+03  0.7818608E-02  0.1300831E+00
          2   -1    0    0  502    0  0.00000000000E+00  0.00000000000E+00  0.22080309908E+04  0.22080309908E+04  0.00000000000E+00 0. -1.
          1   -1    0    0  501    0 -0.00000000000E+00 -0.00000000000E+00 -0.33609187966E+03  0.33609187966E+03  0.00000000000E+00 0. -1.
         25    2    1    2    0    0 -0.19437868811E+03  0.26194322043E+02  0.13119666180E+03  0.26703607068E+03  0.12500592817E+03 0.  0.
          2    1    1    2  501    0  0.14621203458E+03 -0.89435210628E-01 -0.24783749932E+03  0.28775231211E+03  0.00000000000E+00 0. -1.
          1    1    1    2  502    0  0.48166653525E+02 -0.26104886832E+02  0.19885799486E+04  0.19893344876E+04  0.00000000000E+00 0. -1.
         22    1    3    3    0    0 -0.56290711098E+01  0.30768942564E+02  0.55327913083E+02  0.63557786574E+02  0.00000000000E+00 0. -1.
         22    1    3    3    0    0 -0.18874961700E+03 -0.45746205206E+01  0.75868748717E+02  0.20347828410E+03  0.00000000000E+00 0. -1.
</event>
<event>
 7    1  0.4915160E-006  0.2076061E+03  0.7818608E-02  0.1301393E+00
          2   -1    0    0  502    0  0.00000000000E+00  0.00000000000E+00  0.16031587232E+04  0.16031587232E+04  0.00000000000E+00 0. -1.
          1   -1    0    0  501    0 -0.00000000000E+00 -0.00000000000E+00 -0.30542508952E+03  0.30542508952E+03  0.00000000000E+00 0. -1.
         25    2    1    2    0    0  0.46749803782E+02  0.21955984688E+03  0.42465999551E+03  0.49633615947E+03  0.12498560276E+03 0.  0.
          2    1    1    2  501    0  0.26538299052E+02 -0.29314634571E+02 -0.25898056376E+03  0.26198198702E+03  0.00000000000E+00 0. -1.
          1    1    1    2  502    0 -0.73288102835E+02 -0.19024521231E+03  0.11320542019E+04  0.11502656662E+04  0.00000000000E+00 0. -1.
         22    1    3    3    0    0  0.77750322020E+02  0.10298755387E+03  0.27765933896E+03  0.30618010604E+03  0.00000000000E+00 0.  1.
         22    1    3    3    0    0 -0.31000518237E+02  0.11657229301E+03  0.14700065655E+03  0.19015605342E+03  0.00000000000E+00 0.  1.
</event>
<event>
 7    1  0.4915160E-006  0.7247999E+02  0.7818608E-02  0.1428889E+00
          2   -1    0    0  502    0  0.00000000000E+00  0.00000000000E+00  0.40438173481E+03  0.40438173481E+03  0.00000000000E+00 0. -1.
          1   -1    0    0  501    0 -0.00000000000E+00 -0.00000000000E+00 -0.27960335672E+04  0.27960335672E+04  0.00000000000E+00 0. -1.
         25    2    1    2    0    0 -0.47555109497E+02  0.22814838247E+02 -0.13098326274E+03  0.18858472145E+03  0.12500230703E+03 0.  0.
          2    1    1    2  501    0  0.74766946265E+01  0.38301820731E+02 -0.26325480802E+04  0.26328373145E+04  0.00000000000E+00 0. -1.
          1    1    1    2  502    0  0.40078414870E+02 -0.61116658978E+02  0.37187951052E+03  0.37899326602E+03  0.00000000000E+00 0. -1.
         22    1    3    3    0    0 -0.12139712570E+02 -0.49478458850E+02 -0.74460451562E+02  0.90221113706E+02  0.00000000000E+00 0. -1.
         22    1    3    3    0    0 -0.35415396926E+02  0.72293297097E+02 -0.56522811178E+02  0.98363607742E+02  0.00000000000E+00 0. -1.
</event>
<event>
 7    1  0.4915160E-006  0.8907498E+02  0.7818608E-02  0.1420438E+00
          2   -1    0    0  502    0  0.00000000000E+00  0.00000000000E+00  0.89421615904E+03  0.89421615904E+03  0.00000000000E+00 0. -1.
          1   -1    0    0  501    0 -0.00000000000E+00 -0.00000000000E+00 -0.32051066661E+03  0.32051066661E+03  0.00000000000E+00 0. -1.
         25    2    1    2    0    0 -0.52695699553E+02 -0.42961231020E+02 -0.12230928619E+03  0.18763227818E+03  0.12499522472E+03 0.  0.
          2    1    1    2  501    0  0.86039858208E+02  0.48915974217E+02 -0.15037735049E+03  0.18002493515E+03  0.00000000000E+00 0. -1.
          1    1    1    2  502    0 -0.33344158655E+02 -0.59547431971E+01  0.84639212912E+03  0.84706961232E+03  0.00000000000E+00 0. -1.
         22    1    3    3    0    0 -0.17272963303E+02  0.39978415456E+02 -0.12050709101E+02  0.45186818360E+02  0.00000000000E+00 0.  1.
         22    1    3    3    0    0 -0.35422736250E+02 -0.82939646476E+02 -0.11025857709E+03  0.14244545982E+03  0.00000000000E+00 0.  1.
</event>
<event>
 7    1  0.4915160E-006  0.1002980E+03  0.7818608E-02  0.1331439E+00
          2   -1    0    0  502    0  0.00000000000E+00  0.00000000000E+00  0.51487653104E+03  0.51487653104E+03  0.00000000000E+00 0. -1.
          1   -1    0    0  501    0 -0.00000000000E+00 -0.00000000000E+00 -0.58037569211E+03  0.58037569211E+03  0.00000000000E+00 0. -1.
         25    2    1    2    0    0  0.14233458225E+03  0.49079210090E+02 -0.35587666002E+03  0.40612948502E+03  0.12500023716E+03 0.  0.
          2    1    1    2  501    0 -0.61738382407E+02  0.96242465252E+01 -0.18922014509E+03  0.19926996084E+03  0.00000000000E+00 0. -1.
          1    1    1    2  502    0 -0.80596199841E+02 -0.58703456615E+02  0.47959764404E+03  0.48985277729E+03  0.00000000000E+00 0. -1.
         22    1    3    3    0    0  0.14991553018E+03  0.40083606389E+01 -0.27470677516E+03  0.31297690883E+03  0.00000000000E+00 0.  1.
         22    1    3    3    0    0 -0.75809479353E+01  0.45070849451E+02 -0.81169884860E+02  0.93152576186E+02  0.00000000000E+00 0.  1.
</event>
<event>
 7    1  0.4915160E-006  0.6392962E+02  0.7818608E-02  0.1481200E+00
          2   -1    0    0  502    0  0.00000000000E+00  0.00000000000E+00  0.21784130458E+04  0.21784130458E+04  0.00000000000E+00 0. -1.
          1   -1    0    0  501    0 -0.00000000000E+00 -0.00000000000E+00 -0.21751489811E+04  0.21751489811E+04  0.00000000000E+00 0. -1.
         25    2    1    2    0    0  0.27008841233E+02  0.23640417111E+02  0.14314769723E+02  0.13083512669E+03  0.12499828366E+03 0.  0.
          2    1    1    2  501    0 -0.37740407742E+02 -0.51840485885E+02 -0.21162950795E+04  0.21172663125E+04  0.00000000000E+00 0. -1.
          1    1    1    2  502    0  0.10731566509E+02  0.28200068774E+02  0.21052443745E+04  0.21054605878E+04  0.00000000000E+00 0. -1.
         22    1    3    3    0    0  0.77175714511E+01  0.43825154542E+02  0.61558097063E+02  0.75957911989E+02  0.00000000000E+00 0.  1.
         22    1    3    3    0    0  0.19291269782E+02 -0.20184737431E+02 -0.47243327340E+02  0.54877214699E+02  0.00000000000E+00 0.  1.
</event>
<event>
 7    1  0.4915160E-006  0.2067163E+03  0.7818608E-02  0.1375810E+00
          2   -1    0    0  502    0  0.00000000000E+00  0.00000000000E+00  0.11451408203E+04  0.11451408203E+04  0.00000000000E+00 0. -1.
          1   -1    0    0  501    0 -0.00000000000E+00 -0.00000000000E+00 -0.15611423587E+03  0.15611423587E+03  0.00000000000E+00 0. -1.
         25    2    1    2    0    0  0.10142235976E+03 -0.16092844010E+03  0.13061959629E+03  0.26243048616E+03  0.12499529285E+03 0.  0.
          2    1    1    2  501    0  0.36434770637E+01 -0.20482271918E+02 -0.77233227067E+02  0.79986059730E+02  0.00000000000E+00 0. -1.
          1    1    1    2  502    0 -0.10506583682E+03  0.18141071202E+03  0.93564021517E+03  0.95883851025E+03  0.00000000000E+00 0. -1.
         22    1    3    3    0    0 -0.26295718947E+02 -0.29249580113E+02  0.45671930225E+02  0.60273775245E+02  0.00000000000E+00 0. -1.
         22    1    3    3    0    0  0.12771807870E+03 -0.13167885999E+03  0.84947666065E+02  0.20215671091E+03  0.00000000000E+00 0. -1.
</event>
<event>
 7    1  0.4915160E-006  0.1166277E+03  0.7818608E-02  0.1330028E+00
          2   -1    0    0  502    0  0.00000000000E+00  0.00000000000E+00  0.51612558477E+03  0.51612558477E+03  0.00000000000E+00 0. -1.
          1   -1    0    0  501    0 -0.00000000000E+00 -0.00000000000E+00 -0.39182328282E+03  0.39182328282E+03  0.00000000000E+00 0. -1.
         25    2    1    2    0    0 -0.68575107800E+02  0.60455253668E+02 -0.47331467117E+02  0.16193421905E+03  0.12500016166E+03 0.  0.
          2    1    1    2  501    0  0.52515997464E+02 -0.11243690559E+03 -0.27204505386E+03  0.29901253997E+03  0.00000000000E+00 0. -1.
          1    1    1    2  502    0  0.16059110335E+02  0.51981651927E+02  0.44367882292E+03  0.44700210857E+03  0.00000000000E+00 0. -1.
         22    1    3    3    0    0 -0.51300383937E+02 -0.62506050345E+01 -0.72102542324E+02  0.88710631071E+02  0.00000000000E+00 0. -1.
         22    1    3    3    0    0 -0.17274723863E+02  0.66705858703E+02  0.24771075207E+02  0.73223587980E+02  0.00000000000E+00 0. -1.
</event>
<event>
 7    1  0.4915160E-006  0.4953888E+02  0.7818608E-02  0.1453246E+00
          2   -1    0    0  502    0  0.00000000000E+00  0.00000000000E+00  0.68950862231E+03  0.68950862231E+03  0.00000000000E+00 0. -1.
          1   -1    0    0  501    0 -0.00000000000E+00 -0.00000000000E+00 -0.59240178663E+02  0.59240178663E+02  0.00000000000E+00 0. -1.
         25    2    1    2    0    0  0.13516474190E+02 -0.39391932354E+02  0.27178934273E+03  0.30204091253E+03  0.12499938643E+03 0.  0.
          2    1    1    2  501    0 -0.49405195843E+02  0.36369445101E+01 -0.28012374759E+02  0.56910402224E+02  0.00000000000E+00 0. -1.
          1    1    1    2  502    0  0.35888721653E+02  0.35754987844E+02  0.38649147567E+03  0.38979748622E+03  0.00000000000E+00 0. -1.
         22    1    3    3    0    0  0.61565570975E+02 -0.11373902981E+02  0.75803026543E+02  0.98314719303E+02  0.00000000000E+00 0. -1.
         22    1    3    3    0    0 -0.48049096785E+02 -0.28018029373E+02  0.19598631619E+03  0.20372619323E+03  0.00000000000E+00 0. -1.
</event>
<event>
 7    1  0.4915160E-006  0.5097876E+02  0.7818608E-02  0.1440921E+00
          2   -1    0    0  502    0  0.00000000000E+00  0.00000000000E+00  0.39308945202E+03  0.39308945202E+03  0.00000000000E+00 0. -1.
          1   -1    0    0  501    0 -0.00000000000E+00 -0.00000000000E+00 -0.84105989278E+03  0.84105989278E+03  0.00000000000E+00 0. -1.
         25    2    1    2    0    0 -0.97885145328E+00  0.84863786540E+01 -0.13397460843E+03  0.18345603712E+03  0.12503577520E+03 0.  0.
          2    1    1    2  501    0 -0.50439492345E+02 -0.49258046273E+01 -0.67959342290E+03  0.68148046662E+03  0.00000000000E+00 0. -1.
          1    1    1    2  502    0  0.51418343799E+02 -0.35605740268E+01  0.36559759058E+03  0.36921284106E+03  0.00000000000E+00 0. -1.
         22    1    3    3    0    0  0.42803364479E+02 -0.40984196145E+02 -0.62593373665E+02  0.86196071669E+02  0.00000000000E+00 0.  1.
         22    1    3    3    0    0 -0.43782215933E+02  0.49470574799E+02 -0.71381234769E+02  0.97259965454E+02  0.00000000000E+00 0.  1.
</event>
<event>
 7    1  0.4915160E-006  0.1139859E+03  0.7818608E-02  0.1311498E+00
          2   -1    0    0  502    0  0.00000000000E+00  0.00000000000E+00  0.13510165761E+04  0.13510165761E+04  0.00000000000E+00 0. -1.
          1   -1    0    0  501    0 -0.00000000000E+00 -0.00000000000E+00 -0.19137130488E+03  0.19137130488E+03  0.00000000000E+00 0. -1.
         25    2    1    2    0    0  0.53144427301E+02  0.11318054226E+02  0.42146895493E+03  0.44295980317E+03  0.12499951500E+03 0.  0.
          2    1    1    2  501    0 -0.11653551224E+03  0.58555855874E+01 -0.16045770347E+03  0.19839729862E+03  0.00000000000E+00 0. -1.
          1    1    1    2  502    0  0.63391084943E+02 -0.17173639814E+02  0.89863401978E+03  0.90103077920E+03  0.00000000000E+00 0. -1.
         22    1    3    3    0    0  0.64011730667E+02 -0.19337036809E+02  0.10279547153E+03  0.12263087549E+03  0.00000000000E+00 0.  1.
         22    1    3    3    0    0 -0.10867303365E+02  0.30655091036E+02  0.31867348340E+03  0.32032892768E+03  0.00000000000E+00 0.  1.
</event>
<event>
 7    1  0.4915160E-006  0.1102170E+03  0.7818608E-02  0.1310150E+00
          2   -1    0    0  502    0  0.00000000000E+00  0.00000000000E+00  0.89896684226E+03  0.89896684226E+03  0.00000000000E+00 0. -1.
          1   -1    0    0  501    0 -0.00000000000E+00 -0.00000000000E+00 -0.13765437514E+03  0.13765437514E+03  0.00000000000E+00 0. -1.
         25    2    1    2    0    0 -0.48642285733E+02  0.74094379798E+02  0.31507769220E+03  0.35037117166E+03  0.12501982535E+03 0.  0.
          2    1    1    2  501    0  0.10695523375E+03 -0.37664273920E+02 -0.90530314688E+02  0.14509912968E+03  0.00000000000E+00 0. -1.
          1    1    1    2  502    0 -0.58312948018E+02 -0.36430105878E+02  0.53676508961E+03  0.54115091605E+03  0.00000000000E+00 0. -1.
         22    1    3    3    0    0 -0.55934313830E+02  0.93213184088E+02  0.15692341309E+03  0.19089867136E+03  0.00000000000E+00 0. -1.
         22    1    3    3    0    0  0.72920280973E+01 -0.19118804289E+02  0.15815427911E+03  0.15947250030E+03  0.00000000000E+00 0. -1.
</event>
<event>
 7    1  0.4915160E-006  0.1013778E+03  0.7818608E-02  0.1311094E+00
          2   -1    0    0  502    0  0.00000000000E+00  0.00000000000E+00  0.11330899737E+04  0.11330899737E+04  0.00000000000E+00 0. -1.
          1   -1    0    0  501    0 -0.00000000000E+00 -0.00000000000E+00 -0.13811107760E+04  0.13811107760E+04  0.00000000000E+00 0. -1.
         25    2    1    2    0    0  0.94085593269E+02  0.14547364255E+03  0.26134735585E+02  0.21523735883E+03  0.12501766553E+03 0.  0.
          2    1    1    2  501    0 -0.44966498343E+02 -0.58915521039E+02 -0.12830415467E+04  0.12851803901E+04  0.00000000000E+00 0. -1.
          1    1    1    2  502    0 -0.49119094927E+02 -0.86558121508E+02  0.10088860088E+04  0.10137830007E+04  0.00000000000E+00 0. -1.
         22    1    3    3    0    0  0.68546475952E+02  0.12779673062E+03  0.70366484726E+02  0.16118953408E+03  0.00000000000E+00 0.  1.
         22    1    3    3    0    0  0.25539117317E+02  0.17676911924E+02 -0.44231749141E+02  0.54047824753E+02  0.00000000000E+00 0.  1.
</event>
<event>
 7    1  0.4915160E-006  0.4141547E+02  0.7818608E-02  0.1508402E+00
          2   -1    0    0  502    0  0.00000000000E+00  0.00000000000E+00  0.83677935024E+02  0.83677935024E+02  0.00000000000E+00 0. -1.
          1   -1    0    0  501    0 -0.00000000000E+00 -0.00000000000E+00 -0.14504559669E+04  0.14504559669E+04  0.00000000000E+00 0. -1.
         25    2    1    2    0    0  0.99228642446E+01 -0.92733386713E+01 -0.21946457230E+02  0.12763682544E+03  0.12500021671E+03 0.  0.
          2    1    1    2  501    0  0.38582647769E+02  0.12526944726E+00 -0.13554568009E+04  0.13560058169E+04  0.00000000000E+00 0. -1.
          1    1    1    2  502    0 -0.48505512014E+02  0.91480692240E+01  0.10625226207E+02  0.50491259622E+02  0.00000000000E+00 0. -1.
         22    1    3    3    0    0 -0.17452274989E+02  0.45167971533E+02 -0.41360817073E+02  0.63682373886E+02  0.00000000000E+00 0. -1.
         22    1    3    3    0    0  0.27375139234E+02 -0.54441310205E+02  0.19414359843E+02  0.63954451549E+02  0.00000000000E+00 0. -1.
</event>
<event>
 7    1  0.4915160E-006  0.4376664E+02  0.7818608E-02  0.1538532E+00
          2   -1    0    0  502    0  0.00000000000E+00  0.00000000000E+00  0.39878300588E+04  0.39878300588E+04  0.00000000000E+00 0. -1.
          1   -1    0    0  501    0 -0.00000000000E+00 -0.00000000000E+00 -0.55217168496E+01  0.55217168496E+01  0.00000000000E+00 0. -1.
         25    2    1    2    0    0  0.28188198835E+02  0.31074708983E+02  0.24072381155E+04  0.24108464303E+04  0.12499981433E+03 0.  0.
          2    1    1    2  501    0 -0.26078056297E+02  0.14577574672E+02  0.62795615520E+02  0.69540348231E+02  0.00000000000E+00 0. -1.
          1    1    1    2  502    0 -0.21101425384E+01 -0.45652283655E+02  0.15122746109E+04  0.15129649971E+04  0.00000000000E+00 0. -1.
         22    1    3    3    0    0  0.12711401587E+02  0.77132181434E+02  0.17865465347E+04  0.17882559867E+04  0.00000000000E+00 0.  1.
         22    1    3    3    0    0  0.15476797248E+02 -0.46057472451E+02  0.62069158074E+03  0.62259044357E+03  0.00000000000E+00 0.  1.
</event>
<event>
 7    1  0.4915160E-006  0.1943789E+03  0.7818608E-02  0.1298396E+00
          2   -1    0    0  502    0  0.00000000000E+00  0.00000000000E+00  0.16619699492E+04  0.16619699492E+04  0.00000000000E+00 0. -1.
          1   -1    0    0  501    0 -0.00000000000E+00 -0.00000000000E+00 -0.29714813453E+03  0.29714813453E+03  0.00000000000E+00 0. -1.
         25    2    1    2    0    0  0.46266207204E+02  0.16323240791E+03  0.56436210196E+02  0.21816716463E+03  0.12500593977E+03 0.  0.
          2    1    1    2  501    0 -0.83485044496E+02 -0.18558780325E+03 -0.16802421361E+03  0.26390286419E+03  0.00000000000E+00 0. -1.
          1    1    1    2  502    0  0.37218837292E+02  0.22355395331E+02  0.14764098181E+04  0.14770480549E+04  0.00000000000E+00 0. -1.
         22    1    3    3    0    0  0.59666369994E+01  0.15721358452E+03  0.73920995285E+02  0.17382757393E+03  0.00000000000E+00 0. -1.
         22    1    3    3    0    0  0.40299570205E+02  0.60188233961E+01 -0.17484785089E+02  0.44339590699E+02  0.00000000000E+00 0. -1.
</event>
<event>
 7    1  0.4915160E-006  0.7866261E+02  0.7818608E-02  0.1498968E+00
          2   -1    0    0  502    0  0.00000000000E+00  0.00000000000E+00  0.10159111345E+04  0.10159111345E+04  0.00000000000E+00 0. -1.
          1   -1    0    0  501    0 -0.00000000000E+00 -0.00000000000E+00 -0.21244367712E+03  0.21244367712E+03  0.00000000000E+00 0. -1.
         25    2    1    2    0    0 -0.95392568774E+02 -0.27313271858E+02 -0.20056903005E+02  0.16084437718E+03  0.12499150898E+03 0.  0.
          2    1    1    2  501    0  0.18901651846E+02  0.10592082774E+02 -0.11939539536E+03  0.12134547826E+03  0.00000000000E+00 0. -1.
          1    1    1    2  502    0  0.76490916928E+02  0.16721189084E+02  0.94291975575E+03  0.94616495619E+03  0.00000000000E+00 0. -1.
         22    1    3    3    0    0 -0.11756853657E+03 -0.49925861452E+02 -0.19166998838E+02  0.12916008004E+03  0.00000000000E+00 0.  1.
         22    1    3    3    0    0  0.22175967795E+02  0.22612589594E+02 -0.88990416688E+00  0.31684297139E+02  0.00000000000E+00 0.  1.
</event>
<event>
 7    1  0.4915160E-006  0.9909572E+02  0.7818608E-02  0.1320804E+00
          2   -1    0    0  502    0  0.00000000000E+00  0.00000000000E+00  0.13814051276E+04  0.13814051276E+04  0.00000000000E+00 0. -1.
          1   -1    0    0  501    0 -0.00000000000E+00 -0.00000000000E+00 -0.22639047088E+04  0.22639047088E+04  0.00000000000E+00 0. -1.
         25    2    1    2    0    0 -0.86959644034E+02 -0.11080961443E+03  0.35811549823E+03  0.40461383677E+03  0.12499958597E+03 0.  0.
          2    1    1    2  501    0  0.89954680447E+02  0.41390489497E+02 -0.22383526896E+04  0.22405418496E+04  0.00000000000E+00 0. -1.
          1    1    1    2  502    0 -0.29950364137E+01  0.69419124935E+02  0.99773761008E+03  0.10001541500E+04  0.00000000000E+00 0. -1.
         22    1    3    3    0    0 -0.11756375846E+03 -0.10399518795E+03  0.29690031316E+03  0.33583631783E+03  0.00000000000E+00 0.  1.
         22    1    3    3    0    0  0.30604114430E+02 -0.68144264830E+01  0.61215185072E+02  0.68777518941E+02  0.00000000000E+00 0.  1.
</event>
<event>
 7    1  0.4915160E-006  0.3214523E+03  0.7818608E-02  0.1183620E+00
          2   -1    0    0  502    0  0.00000000000E+00  0.00000000000E+00  0.38202153600E+03  0.38202153600E+03  0.00000000000E+00 0. -1.
          1   -1    0    0  501    0 -0.00000000000E+00 -0.00000000000E+00 -0.15095897711E+04  0.15095897711E+04  0.00000000000E+00 0. -1.
         25    2    1    2    0    0  0.85538081635E+02  0.28548164223E+03  0.35454070405E+02  0.32511324000E+03  0.12500038502E+03 0.  0.
          2    1    1    2  501    0 -0.10991002297E+02 -0.32476414918E+03 -0.13355388971E+04  0.13745023464E+04  0.00000000000E+00 0. -1.
          1    1    1    2  502    0 -0.74547079338E+02  0.39282506949E+02  0.17251659158E+03  0.19199572068E+03  0.00000000000E+00 0. -1.
         22    1    3    3    0    0  0.15717460335E+02  0.23663435933E+03  0.36174459048E+02  0.23989883297E+03  0.00000000000E+00 0. -1.
         22    1    3    3    0    0  0.69820621300E+02  0.48847282901E+02 -0.72038864235E+00  0.85214407029E+02  0.00000000000E+00 0. -1.
</event>
<event>
 7    1  0.4915160E-006  0.1194167E+03  0.7818608E-02  0.1405692E+00
          2   -1    0    0  502    0  0.00000000000E+00  0.00000000000E+00  0.86444625055E+03  0.86444625055E+03  0.00000000000E+00 0. -1.
          1   -1    0    0  501    0 -0.00000000000E+00 -0.00000000000E+00 -0.10452202655E+04  0.10452202655E+04  0.00000000000E+00 0. -1.
         25    2    1    2    0    0  0.71839099768E+02  0.10159163657E+03  0.36412302813E+03  0.40458910820E+03  0.12500019994E+03 0.  0.
          2    1    1    2  501    0  0.16694929732E+02 -0.22890578566E+02 -0.10174800052E+04  0.10178743833E+04  0.00000000000E+00 0. -1.
          1    1    1    2  502    0 -0.88534029500E+02 -0.78701058003E+02  0.47258296218E+03  0.48720302447E+03  0.00000000000E+00 0. -1.
         22    1    3    3    0    0  0.37843425334E+02  0.12196743609E+03  0.32368876319E+03  0.34796924537E+03  0.00000000000E+00 0. -1.
         22    1    3    3    0    0  0.33995674434E+02 -0.20375799517E+02  0.40434264942E+02  0.56619862836E+02  0.00000000000E+00 0. -1.
</event>
<event>
 7    1  0.4915160E-006  0.1188880E+03  0.7818608E-02  0.1346745E+00
          2   -1    0    0  502    0  0.00000000000E+00  0.00000000000E+00  0.84059981610E+02  0.84059981610E+02  0.00000000000E+00 0. -1.
          1   -1    0    0  501    0 -0.00000000000E+00 -0.00000000000E+00 -0.68671017334E+03  0.68671017334E+03  0.00000000000E+00 0. -1.
         25    2    1    2    0    0  0.13363998303E+03 -0.20832788127E+02 -0.17221083924E+03  0.25214095126E+03  0.12499934411E+03 0.  0.
          2    1    1    2  501    0 -0.20627711232E+02  0.41294066271E+02 -0.39606502853E+03  0.39874579522E+03  0.00000000000E+00 0. -1.
          1    1    1    2  502    0 -0.11301227179E+03 -0.20461278144E+02 -0.34374323964E+02  0.11988340847E+03  0.00000000000E+00 0. -1.
         22    1    3    3    0    0  0.13838073736E+03 -0.60873763655E+01 -0.18565348528E+03  0.23163225427E+03  0.00000000000E+00 0. -1.
         22    1    3    3    0    0 -0.47407543376E+01 -0.14745411761E+02  0.13442646038E+02  0.20508696989E+02  0.00000000000E+00 0. -1.
</event>
<event>
 7    1  0.4915160E-006  0.7393130E+02  0.7818608E-02  0.1473337E+00
          2   -1    0    0  502    0  0.00000000000E+00  0.00000000000E+00  0.34384869170E+03  0.34384869170E+03  0.00000000000E+00 0. -1.
          1   -1    0    0  501    0 -0.00000000000E+00 -0.00000000000E+00 -0.38720748833E+03  0.38720748833E+03  0.00000000000E+00 0. -1.
         25    2    1    2    0    0  0.86310727464E+02  0.27801600725E+02  0.24873068187E+03  0.29276818932E+03  0.12499515949E+03 0.  0.
          2    1    1    2  501    0 -0.24915216203E+02 -0.11843712668E+02 -0.35078213762E+03  0.35186524353E+03  0.00000000000E+00 0. -1.
          1    1    1    2  502    0 -0.61395511262E+02 -0.15957888056E+02  0.58692659122E+02  0.86422747174E+02  0.00000000000E+00 0. -1.
         22    1    3    3    0    0  0.85958086565E+02  0.10219293298E+02  0.65134186525E+02  0.10833138444E+03  0.00000000000E+00 0. -1.
         22    1    3    3    0    0  0.35264089903E+00  0.17582307427E+02  0.18359649535E+03  0.18443680488E+03  0.00000000000E+00 0. -1.
</event>
<event>
 7    1  0.4915160E-006  0.4881395E+02  0.7818608E-02  0.1491456E+00
          2   -1    0    0  502    0  0.00000000000E+00  0.00000000000E+00  0.54594327529E+03  0.54594327529E+03  0.00000000000E+00 0. -1.
          1   -1    0    0  501    0 -0.00000000000E+00 -0.00000000000E+00 -0.15362102578E+04  0.15362102578E+04  0.00000000000E+00 0. -1.
         25    2    1    2    0    0 -0.56070257737E+02  0.46765243425E+02 -0.78763460675E+03  0.80082708630E+03  0.12499954640E+03 0.  0.
          2    1    1    2  501    0  0.19539017301E+02 -0.42511734420E+02 -0.74061339335E+03  0.74208976490E+03  0.00000000000E+00 0. -1.
          1    1    1    2  502    0  0.36531240436E+02 -0.42535090049E+01  0.53798101756E+03  0.53923668192E+03  0.00000000000E+00 0. -1.
         22    1    3    3    0    0 -0.78102133017E+02  0.44904999154E+02 -0.31378683059E+03  0.32646374558E+03  0.00000000000E+00 0.  1.
         22    1    3    3    0    0  0.22031875280E+02  0.18602442706E+01 -0.47384777617E+03  0.47436334072E+03  0.00000000000E+00 0.  1.
</event>
<event>
 7    1  0.4915160E-006  0.5360304E+02  0.7818608E-02  0.1432572E+00
          2   -1    0    0  502    0  0.00000000000E+00  0.00000000000E+00  0.43716944259E+03  0.43716944259E+03  0.00000000000E+00 0. -1.
          1   -1    0    0  501    0 -0.00000000000E+00 -0.00000000000E+00 -0.55232890102E+03  0.55232890102E+03  0.00000000000E+00 0. -1.
         25    2    1    2    0    0  0.78599568058E+02 -0.38515560605E+02  0.21113504025E+02  0.15405169532E+03  0.12499921708E+03 0.  0.
          2    1    1    2  501    0 -0.52929053932E+02 -0.59185168609E+01 -0.48250344666E+03  0.48543391891E+03  0.00000000000E+00 0. -1.
          1    1    1    2  502    0 -0.25670514126E+02  0.44434077466E+02  0.34623048420E+03  0.35001272938E+03  0.00000000000E+00 0. -1.
         22    1    3    3    0    0  0.18485756541E+02  0.40319226110E+02 -0.17466665319E+02  0.47670195996E+02  0.00000000000E+00 0.  1.
         22    1    3    3    0    0  0.60113811517E+02 -0.78834786715E+02  0.38580169344E+02  0.10638149932E+03  0.00000000000E+00 0.  1.
</event>
<event>
 7    1  0.4915160E-006  0.1284922E+03  0.7818608E-02  0.1254755E+00
          2   -1    0    0  502    0  0.00000000000E+00  0.00000000000E+00  0.93603126542E+03  0.93603126542E+03  0.00000000000E+00 0. -1.
          1   -1    0    0  501    0 -0.00000000000E+00 -0.00000000000E+00 -0.16536813187E+04  0.16536813187E+04  0.00000000000E+00 0. -1.
         25    2    1    2    0    0  0.17719241258E+03 -0.97790004878E+02  0.56510100304E+03  0.61312412442E+03  0.12498804813E+03 0.  0.
          2    1    1    2  501    0 -0.93118979975E+02  0.35702789156E+02 -0.16202300745E+04  0.16232964387E+04  0.00000000000E+00 0. -1.
          1    1    1    2  502    0 -0.84073432609E+02  0.62087215721E+02  0.33747901816E+03  0.35329202103E+03  0.00000000000E+00 0. -1.
         22    1    3    3    0    0  0.24649364002E+02  0.74549956068E+01  0.21917032025E+03  0.22067804011E+03  0.00000000000E+00 0. -1.
         22    1    3    3    0    0  0.15254304858E+03 -0.10524500048E+03  0.34593068278E+03  0.39244608431E+03  0.00000000000E+00 0. -1.
</event>
<event>
 7    1  0.4915160E-006  0.3537440E+02  0.7818608E-02  0.1585954E+00
          2   -1    0    0  502    0  0.00000000000E+00  0.00000000000E+00  0.64861074713E+03  0.64861074713E+03  0.00000000000E+00 0. -1.
          1   -1    0    0  501    0 -0.00000000000E+00 -0.00000000000E+00 -0.52965065655E+03  0.52965065655E+03  0.00000000000E+00 0. -1.
         25    2    1    2    0    0  0.25773467802E+01 -0.23396074248E+02  0.10296823174E+03  0.16365037366E+03  0.12499987617E+03 0.  0.
          2    1    1    2  501    0  0.24737414177E+02  0.25421190096E+02 -0.49831476115E+03  0.49957559763E+03  0.00000000000E+00 0. -1.
          1    1    1    2  502    0 -0.27314760957E+02 -0.20251158484E+01  0.51430661998E+03  0.51503543239E+03  0.00000000000E+00 0. -1.
         22    1    3    3    0    0  0.40836937691E+02 -0.72583978349E+01 -0.10531717787E+02  0.42793187526E+02  0.00000000000E+00 0. -1.
         22    1    3    3    0    0 -0.38259590911E+02 -0.16137676413E+02  0.11349994953E+03  0.12085718613E+03  0.00000000000E+00 0. -1.
</event>
<event>
 7    1  0.4915160E-006  0.2837877E+03  0.7818608E-02  0.1211129E+00
          2   -1    0    0  502    0  0.00000000000E+00  0.00000000000E+00  0.14964505701E+03  0.14964505701E+03  0.00000000000E+00 0. -1.
          1   -1    0    0  501    0 -0.00000000000E+00 -0.00000000000E+00 -0.23663675351E+04  0.23663675351E+04  0.00000000000E+00 0. -1.
         25    2    1    2    0    0  0.14842469974E+03  0.18265792978E+03 -0.83890984734E+03  0.88022254489E+03  0.12501274240E+03 0.  0.
          2    1    1    2  501    0  0.69162484687E+02  0.14667311504E+02 -0.13374215649E+04  0.13392889985E+04  0.00000000000E+00 0. -1.
          1    1    1    2  502    0 -0.21758718443E+03 -0.19732524128E+03 -0.40391065857E+02  0.29650104869E+03  0.00000000000E+00 0. -1.
         22    1    3    3    0    0  0.12676443889E+03  0.17861288767E+03 -0.57351736636E+03  0.61391689676E+03  0.00000000000E+00 0.  1.
         22    1    3    3    0    0  0.21660260858E+02  0.40450421044E+01 -0.26539248098E+03  0.26630564813E+03  0.00000000000E+00 0.  1.
</event>
<event>
 7    1  0.4915160E-006  0.5273743E+02  0.7818608E-02  0.1526094E+00
          2   -1    0    0  502    0  0.00000000000E+00  0.00000000000E+00  0.11553802805E+02  0.11553802805E+02  0.00000000000E+00 0. -1.
          1   -1    0    0  501    0 -0.00000000000E+00 -0.00000000000E+00 -0.22829227669E+04  0.22829227669E+04  0.00000000000E+00 0. -1.
         25    2    1    2    0    0  0.54667738093E+02  0.41312068480E+01 -0.91148400919E+03  0.92164748752E+03  0.12500145513E+03 0.  0.
          2    1    1    2  501    0 -0.62259835717E+01 -0.26176969240E+02 -0.12543006405E+04  0.12545892130E+04  0.00000000000E+00 0. -1.
          1    1    1    2  502    0 -0.48441754521E+02  0.22045762392E+02 -0.10558431447E+03  0.11823986926E+03  0.00000000000E+00 0. -1.
         22    1    3    3    0    0  0.31526996653E+02  0.51455491747E+02 -0.73489438994E+03  0.73736787529E+03  0.00000000000E+00 0. -1.
         22    1    3    3    0    0  0.23140741440E+02 -0.47324284899E+02 -0.17658961924E+03  0.18427961222E+03  0.00000000000E+00 0. -1.
</event>
<event>
 7    1  0.4915160E-006  0.6144718E+02  0.7818608E-02  0.1490940E+00
          2   -1    0    0  502    0  0.00000000000E+00  0.00000000000E+00  0.54787082403E+03  0.54787082403E+03  0.00000000000E+00 0. -1.
          1   -1    0    0  501    0 -0.00000000000E+00 -0.00000000000E+00 -0.47799559759E+02  0.47799559759E+02  0.00000000000E+00 0. -1.
         25    2    1    2    0    0 -0.58354330625E+00  0.76746315078E+02  0.22621108881E+03  0.26960361734E+03  0.12499726549E+03 0.  0.
          2    1    1    2  501    0  0.21248265283E+02 -0.55944092518E+02  0.10109583436E+02  0.60691300385E+02  0.00000000000E+00 0. -1.
          1    1    1    2  502    0 -0.20664721977E+02 -0.20802222560E+02  0.26375059202E+03  0.26537546607E+03  0.00000000000E+00 0. -1.
         22    1    3    3    0    0 -0.29336750092E+02  0.68019859320E+02  0.22777185346E+03  0.23951485005E+03  0.00000000000E+00 0.  1.
         22    1    3    3    0    0  0.28753206786E+02  0.87264557583E+01 -0.15607646437E+01  0.30088767287E+02  0.00000000000E+00 0.  1.
</event>
<event>
 7    1  0.4915160E-006  0.5777323E+02  0.7818608E-02  0.1419195E+00
          2   -1    0    0  502    0  0.00000000000E+00  0.00000000000E+00  0.10541258485E+03  0.10541258485E+03  0.00000000000E+00 0. -1.
          1   -1    0    0  501    0 -0.00000000000E+00 -0.00000000000E+00 -0.67029522615E+03  0.67029522615E+03  0.00000000000E+00 0. -1.
         25    2    1    2    0    0  0.56512669628E+01  0.15072305223E+02 -0.37775841779E+03  0.39822885185E+03  0.12500274010E+03 0.  0.
          2    1    1    2  501    0  0.52476391988E+02 -0.51191563671E+01 -0.27036860448E+03  0.27546172105E+03  0.00000000000E+00 0. -1.
          1    1    1    2  502    0 -0.58127658951E+02 -0.99531488562E+01  0.83244380962E+02  0.10201723810E+03  0.00000000000E+00 0. -1.
         22    1    3    3    0    0  0.43027200236E+02 -0.38636143151E+02 -0.21919570069E+03  0.22669549338E+03  0.00000000000E+00 0. -1.
         22    1    3    3    0    0 -0.37375933273E+02  0.53708448375E+02 -0.15856271710E+03  0.17153335847E+03  0.00000000000E+00 0. -1.
</event>
<event>
 7    1  0.4915160E-006  0.1202087E+03  0.7818608E-02  0.1292647E+00
          2   -1    0    0  502    0  0.00000000000E+00  0.00000000000E+00  0.13436226963E+03  0.13436226963E+03  0.00000000000E+00 0. -1.
          1   -1    0    0  501    0 -0.00000000000E+00 -0.00000000000E+00 -0.60943928332E+03  0.60943928332E+03  0.00000000000E+00 0. -1.
         25    2    1    2    0    0 -0.10799932396E+02 -0.12351369350E+03 -0.11550494400E+03  0.21056796412E+03  0.12500081761E+03 0.  0.
          2    1    1    2  501    0 -0.61312432505E+02  0.10666980074E+03 -0.42000245667E+03  0.43765251557E+03  0.00000000000E+00 0. -1.
          1    1    1    2  502    0  0.72112364901E+02  0.16843892762E+02  0.60430386990E+02  0.95581073266E+02  0.00000000000E+00 0. -1.
         22    1    3    3    0    0 -0.35522314855E+02 -0.13898591813E+03 -0.78749144030E+02  0.16364702251E+03  0.00000000000E+00 0.  1.
         22    1    3    3    0    0  0.24722382459E+02  0.15472224634E+02 -0.36755799972E+02  0.46920941605E+02  0.00000000000E+00 0.  1.
</event>
<event>
 7    1  0.4915160E-006  0.6379110E+02  0.7818608E-02  0.1474563E+00
          2   -1    0    0  502    0  0.00000000000E+00  0.00000000000E+00  0.21161889421E+04  0.21161889421E+04  0.00000000000E+00 0. -1.
          1   -1    0    0  501    0 -0.00000000000E+00 -0.00000000000E+00 -0.18552870551E+03  0.18552870551E+03  0.00000000000E+00 0. -1.
         25    2    1    2    0    0  0.42644012884E+02  0.62843017684E+02  0.39515337669E+02  0.15150434405E+03  0.12499739056E+03 0.  0.
          2    1    1    2  501    0 -0.10953704598E+02 -0.62345612354E+02 -0.12166858891E+03  0.13715029913E+03  0.00000000000E+00 0. -1.
          1    1    1    2  502    0 -0.31690308287E+02 -0.49740533047E+00  0.20128134878E+04  0.20130630044E+04  0.00000000000E+00 0. -1.
         22    1    3    3    0    0  0.23251654161E+02 -0.98989847474E+01  0.66807474051E+02  0.71427361070E+02  0.00000000000E+00 0.  1.
         22    1    3    3    0    0  0.19392358724E+02  0.72742002432E+02 -0.27292136382E+02  0.80076982979E+02  0.00000000000E+00 0.  1.
</event>
<event>
 7    1  0.4915160E-006  0.1156534E+03  0.7818608E-02  0.1279732E+00
          2   -1    0    0  502    0  0.00000000000E+00  0.00000000000E+00  0.30647431880E+04  0.30647431880E+04  0.00000000000E+00 0. -1.
          1   -1    0    0  501    0 -0.00000000000E+00 -0.00000000000E+00 -0.24713246119E+03  0.24713246119E+03  0.00000000000E+00 0. -1.
         25    2    1    2    0    0  0.18348258626E+03 -0.12078468777E+02  0.99345624127E+03  0.10180329528E+04  0.12499616323E+03 0.  0.
          2    1    1    2  501    0 -0.82448507252E+02 -0.27552866974E+02 -0.22531423813E+03  0.24150242801E+03  0.00000000000E+00 0. -1.
          1    1    1    2  502    0 -0.10103407901E+03  0.39631335751E+02  0.20494687237E+04  0.20523402684E+04  0.00000000000E+00 0. -1.
         22    1    3    3    0    0  0.10201781057E+03  0.41474732596E+02  0.34122459274E+03  0.35855544872E+03  0.00000000000E+00 0. -1.
         22    1    3    3    0    0  0.81464775691E+02 -0.53553201373E+02  0.65223164853E+03  0.65947750409E+03  0.00000000000E+00 0. -1.
</event>
<event>
 7    1  0.4915160E-006  0.1166898E+03  0.7818608E-02  0.1310521E+00
          2   -1    0    0  502    0  0.00000000000E+00  0.00000000000E+00  0.77518315423E+03  0.77518315423E+03  0.00000000000E+00 0. -1.
          1   -1    0    0  501    0 -0.00000000000E+00 -0.00000000000E+00 -0.80614568631E+03  0.80614568631E+03  0.00000000000E+00 0. -1.
         25    2    1    2    0    0  0.10823059182E+02  0.59847633741E+02  0.44488689679E+02  0.14595185845E+03  0.12499529431E+03 0.  0.
          2    1    1    2  501    0  0.35756304331E+02  0.53952055130E+02 -0.74844679265E+03  0.75124026715E+03  0.00000000000E+00 0. -1.
          1    1    1    2  502    0 -0.46579363513E+02 -0.11379968887E+03  0.67299557090E+03  0.68413671495E+03  0.00000000000E+00 0. -1.
         22    1    3    3    0    0  0.25057881312E+02  0.75097389085E+02 -0.17041888908E+02  0.80981116569E+02  0.00000000000E+00 0. -1.
         22    1    3    3    0    0 -0.14234822130E+02 -0.15249755344E+02  0.61530578586E+02  0.64970741879E+02  0.00000000000E+00 0. -1.
</event>
<event>
 7    1  0.4915160E-006  0.3855531E+03  0.7818608E-02  0.1233666E+00
          2   -1    0    0  502    0  0.00000000000E+00  0.00000000000E+00  0.17086931953E+04  0.17086931953E+04  0.00000000000E+00 0. -1.
          1   -1    0    0  501    0 -0.00000000000E+00 -0.00000000000E+00 -0.90237248931E+03  0.90237248931E+03  0.00000000000E+00 0. -1.
         25    2    1    2    0    0  0.28743508242E+02  0.37487351041E+03 -0.77128075920E+02  0.40364440361E+03  0.12499490549E+03 0.  0.
          2    1    1    2  501    0  0.40738688637E+02  0.55374027676E+01 -0.63712266810E+03  0.63844780349E+03  0.00000000000E+00 0. -1.
          1    1    1    2  502    0 -0.69482196879E+02 -0.38041091317E+03  0.15205714500E+04  0.15689734775E+04  0.00000000000E+00 0. -1.
         22    1    3    3    0    0 -0.33966633652E+02  0.10392247500E+03  0.15686952441E+02  0.11045222265E+03  0.00000000000E+00 0. -1.
         22    1    3    3    0    0  0.62710141895E+02  0.27095103540E+03 -0.92815028361E+02  0.29319218095E+03  0.00000000000E+00 0. -1.
</event>
<event>
 7    1  0.4915160E-006  0.3334137E+02  0.7818608E-02  0.1573253E+00
          2   -1    0    0  502    0  0.00000000000E+00  0.00000000000E+00  0.13411222148E+04  0.13411222148E+04  0.00000000000E+00 0. -1.
          1   -1    0    0  501    0 -0.00000000000E+00 -0.00000000000E+00 -0.57233223098E+03  0.57233223098E+03  0.00000000000E+00 0. -1.
         25    2    1    2    0    0 -0.22672815580E+02 -0.41351946517E+01 -0.18593989048E+02  0.12846582088E+03  0.12500629706E+03 0.  0.
          2    1    1    2  501    0  0.31805823248E+01  0.31270430158E+02 -0.49808989032E+03  0.49908064954E+03  0.00000000000E+00 0. -1.
          1    1    1    2  502    0  0.19492233256E+02 -0.27135235507E+02  0.12854738631E+04  0.12859079753E+04  0.00000000000E+00 0. -1.
         22    1    3    3    0    0 -0.68418181781E+02 -0.28468435651E+02 -0.22651925974E+01  0.74139264389E+02  0.00000000000E+00 0. -1.
         22    1    3    3    0    0  0.45745366201E+02  0.24333240999E+02 -0.16328796451E+02  0.54326556489E+02  0.00000000000E+00 0. -1.
</event>
<event>
 7    1  0.4915160E-006  0.6044377E+02  0.7818608E-02  0.1532943E+00
          2   -1    0    0  502    0  0.00000000000E+00  0.00000000000E+00  0.29003013297E+04  0.29003013297E+04  0.00000000000E+00 0. -1.
          1   -1    0    0  501    0 -0.00000000000E+00 -0.00000000000E+00 -0.19864004938E+02  0.19864004938E+02  0.00000000000E+00 0. -1.
         25    2    1    2    0    0  0.72111002987E+02  0.38031964407E+02  0.69287744532E+03  0.70876635913E+03  0.12499668208E+03 0.  0.
          2    1    1    2  501    0 -0.18219603888E+02 -0.13097645408E+02 -0.58700574003E+00  0.22446533292E+02  0.00000000000E+00 0. -1.
          1    1    1    2  502    0 -0.53891399098E+02 -0.24934318999E+02  0.21881468851E+04  0.21889524422E+04  0.00000000000E+00 0. -1.
         22    1    3    3    0    0 -0.13527048094E+02  0.43811000200E+02  0.10390129447E+03  0.11356876226E+03  0.00000000000E+00 0. -1.
         22    1    3    3    0    0  0.85638051080E+02 -0.57790357937E+01  0.58897615086E+03  0.59519759687E+03  0.00000000000E+00 0. -1.
</event>
<event>
 7    1  0.4915160E-006  0.8190044E+02  0.7818608E-02  0.1336719E+00
          2   -1    0    0  502    0  0.00000000000E+00  0.00000000000E+00  0.56090743199E+03  0.56090743199E+03  0.00000000000E+00 0. -1.
          1   -1    0    0  501    0 -0.00000000000E+00 -0.00000000000E+00 -0.13541223145E+03  0.13541223145E+03  0.00000000000E+00 0. -1.
         25    2    1    2    0    0  0.32854209328E+02 -0.28368665936E+01  0.12525282214E+03  0.18000763469E+03  0.12500812857E+03 0.  0.
          2    1    1    2  501    0 -0.19503457232E+02 -0.79544307130E+02 -0.87406504276E+02  0.11978137848E+03  0.00000000000E+00 0. -1.
          1    1    1    2  502    0 -0.13350752097E+02  0.82381173723E+02  0.38764888268E+03  0.39653065027E+03  0.00000000000E+00 0. -1.
         22    1    3    3    0    0  0.19348692202E+02  0.38493217894E+02 -0.43538145311E+01  0.43301910058E+02  0.00000000000E+00 0. -1.
         22    1    3    3    0    0  0.13505517126E+02 -0.41330084487E+02  0.12960663668E+03  0.13670572463E+03  0.00000000000E+00 0. -1.
</event>
<event>
 7    1  0.4915160E-006  0.1056317E+03  0.7818608E-02  0.1348508E+00
          2   -1    0    0  502    0  0.00000000000E+00  0.00000000000E+00  0.30921899263E+03  0.30921899263E+03  0.00000000000E+00 0. -1.
          1   -1    0    0  501    0 -0.00000000000E+00 -0.00000000000E+00 -0.45680262021E+03  0.45680262021E+03  0.00000000000E+00 0. -1.
         25    2    1    2    0    0 -0.87883745739E+02 -0.12465836045E+03 -0.44299680323E+02  0.20212887327E+03  0.12502143871E+03 0.  0.
          2    1    1    2  501    0  0.29736723617E+02  0.41647249350E+02 -0.32030769184E+03  0.32436982530E+03  0.00000000000E+00 0. -1.
          1    1    1    2  502    0  0.58147022122E+02  0.83011111098E+02  0.21702374459E+03  0.23952291428E+03  0.00000000000E+00 0. -1.
         22    1    3    3    0    0  0.25305733365E+02  0.42345867952E+01 -0.48189314785E+01  0.26106205528E+02  0.00000000000E+00 0.  1.
         22    1    3    3    0    0 -0.11318947910E+03 -0.12889294724E+03 -0.39480748845E+02  0.17602266774E+03  0.00000000000E+00 0.  1.
</event>
<event>
 7    1  0.4915160E-006  0.6675612E+02  0.7818608E-02  0.1474828E+00
          2   -1    0    0  502    0  0.00000000000E+00  0.00000000000E+00  0.12135578233E+04  0.12135578233E+04  0.00000000000E+00 0. -1.
          1   -1    0    0  501    0 -0.00000000000E+00 -0.00000000000E+00 -0.63286746527E+02  0.63286746527E+02  0.00000000000E+00 0. -1.
         25    2    1    2    0    0 -0.44179370940E+02  0.12424217332E+02  0.46470257944E+03  0.48340459726E+03  0.12500135728E+03 0.  0.
          2    1    1    2  501    0  0.54052525679E+02 -0.40995920042E+02 -0.32158468131E+02  0.75076681233E+02  0.00000000000E+00 0. -1.
          1    1    1    2  502    0 -0.98731547388E+01  0.28571702710E+02  0.71772696550E+03  0.71836329137E+03  0.00000000000E+00 0. -1.
         22    1    3    3    0    0 -0.72690664427E+02 -0.29653079969E+02  0.22299212348E+03  0.23640796303E+03  0.00000000000E+00 0.  1.
         22    1    3    3    0    0  0.28511293487E+02  0.42077297301E+02  0.24171045595E+03  0.24699663423E+03  0.00000000000E+00 0.  1.
</event>
<event>
 7    1  0.4915160E-006  0.1214962E+03  0.7818608E-02  0.1256857E+00
          2   -1    0    0  502    0  0.00000000000E+00  0.00000000000E+00  0.10697886612E+04  0.10697886612E+04  0.00000000000E+00 0. -1.
          1   -1    0    0  501    0 -0.00000000000E+00 -0.00000000000E+00 -0.68563608913E+02  0.68563608913E+02  0.00000000000E+00 0. -1.
         25    2    1    2    0    0 -0.20407548489E+02 -0.15519341648E+01  0.26374027567E+03  0.29257934766E+03  0.12499946052E+03 0.  0.
          2    1    1    2  501    0  0.71198829649E+02  0.11192212007E+03  0.41102257615E+02  0.13887127091E+03  0.00000000000E+00 0. -1.
          1    1    1    2  502    0 -0.50791281161E+02 -0.11037018591E+03  0.69638251899E+03  0.70690165152E+03  0.00000000000E+00 0. -1.
         22    1    3    3    0    0 -0.54734790165E+02  0.40007871777E+02  0.18607204543E+03  0.19803871629E+03  0.00000000000E+00 0. -1.
         22    1    3    3    0    0  0.34327241676E+02 -0.41559805942E+02  0.77668230239E+02  0.94540631368E+02  0.00000000000E+00 0. -1.
</event>
<event>
 7    1  0.4915160E-006  0.2859735E+03  0.7818608E-02  0.1259867E+00
          2   -1    0    0  502    0  0.00000000000E+00  0.00000000000E+00  0.10437261605E+04  0.10437261605E+04  0.00000000000E+00 0. -1.
          1   -1    0    0  501    0 -0.00000000000E+00 -0.00000000000E+00 -0.10316517891E+04  0.10316517891E+04  0.00000000000E+00 0. -1.
         25    2    1    2    0    0 -0.84349547318E+01 -0.25431039285E+03 -0.10901913362E+03  0.30373427008E+03  0.12499764377E+03 0.  0.
          2    1    1    2  501    0 -0.56737565301E+01  0.29451120967E+03 -0.79848126983E+03  0.85108247685E+03  0.00000000000E+00 0. -1.
          1    1    1    2  502    0  0.14108711262E+02 -0.40200816814E+02  0.91957477484E+03  0.92056120270E+03  0.00000000000E+00 0. -1.
         22    1    3    3    0    0 -0.18098431879E+02 -0.24635832613E+03 -0.13012296420E+03  0.27919878922E+03  0.00000000000E+00 0.  1.
         22    1    3    3    0    0  0.96634771471E+01 -0.79520667202E+01  0.21103830576E+02  0.24535480853E+02  0.00000000000E+00 0.  1.
</event>
<event>
 7    1  0.4915160E-006  0.1600891E+03  0.7818608E-02  0.1358892E+00
          2   -1    0    0  502    0  0.00000000000E+00  0.00000000000E+00  0.20511150448E+03  0.20511150448E+03  0.00000000000E+00 0. -1.
          1   -1    0    0  501    0 -0.00000000000E+00 -0.00000000000E+00 -0.27276257218E+03  0.27276257218E+03  0.00000000000E+00 0. -1.
         25    2    1    2    0    0  0.14480655813E+03 -0.47816050216E+02 -0.77046523616E+02  0.21170054344E+03  0.12500255740E+03 0.  0.
          2    1    1    2  501    0 -0.14783386977E+03  0.78586103055E+02 -0.69621899414E+02  0.18132246833E+03  0.00000000000E+00 0. -1.
          1    1    1    2  502    0  0.30273116462E+01 -0.30770052839E+02  0.79017355336E+02  0.84851064883E+02  0.00000000000E+00 0. -1.
         22    1    3    3    0    0  0.73749431856E+02  0.14095574048E+02 -0.89289858446E+02  0.11666337355E+03  0.00000000000E+00 0. -1.
         22    1    3    3    0    0  0.71057126269E+02 -0.61911624264E+02  0.12243334830E+02  0.95037169888E+02  0.00000000000E+00 0. -1.
</event>
<event>
 7    1  0.4915160E-006  0.9140600E+02  0.7818608E-02  0.1475579E+00
          2   -1    0    0  502    0  0.00000000000E+00  0.00000000000E+00  0.62957074468E+03  0.62957074468E+03  0.00000000000E+00 0. -1.
          1   -1    0    0  501    0 -0.00000000000E+00 -0.00000000000E+00 -0.15076428077E+04  0.15076428077E+04  0.00000000000E+00 0. -1.
         25    2    1    2    0    0 -0.71347560681E+02  0.76474611128E+02 -0.44934849870E+03  0.47799414225E+03  0.12500194470E+03 0.  0.
          2    1    1    2  501    0 -0.18589824483E+01 -0.21880915635E+02 -0.10404662496E+04  0.10406979614E+04  0.00000000000E+00 0. -1.
          1    1    1    2  502    0  0.73206543129E+02 -0.54593695493E+02  0.61174268528E+03  0.61852144873E+03  0.00000000000E+00 0. -1.
         22    1    3    3    0    0  0.20622335443E+02  0.61122517721E+02 -0.24548428355E+03  0.25381839248E+03  0.00000000000E+00 0. -1.
         22    1    3    3    0    0 -0.91969896124E+02  0.15352093407E+02 -0.20386421515E+03  0.22417574977E+03  0.00000000000E+00 0. -1.
</event>
<event>
 7    1  0.4915160E-006  0.3535016E+03  0.7818608E-02  0.1296257E+00
          2   -1    0    0  502    0  0.00000000000E+00  0.00000000000E+00  0.19426546396E+04  0.19426546396E+04  0.00000000000E+00 0. -1.
          1   -1    0    0  501    0 -0.00000000000E+00 -0.00000000000E+00 -0.43979745880E+03  0.43979745880E+03  0.00000000000E+00 0. -1.
         25    2    1    2    0    0  0.19692275759E+03 -0.30016927713E+03  0.37941883660E+03  0.53708778276E+03  0.12499786173E+03 0.  0.
          2    1    1    2  501    0 -0.23499484932E+02 -0.63820361197E+01 -0.33962878473E+03  0.34050061320E+03  0.00000000000E+00 0. -1.
          1    1    1    2  502    0 -0.17342327266E+03  0.30655131325E+03  0.14630671289E+04  0.15048637024E+04  0.00000000000E+00 0. -1.
         22    1    3    3    0    0  0.16208349459E+03 -0.16930379629E+03  0.17771164005E+03  0.29413646776E+03  0.00000000000E+00 0.  1.
         22    1    3    3    0    0  0.34839263001E+02 -0.13086548083E+03  0.20170719654E+03  0.24295131499E+03  0.00000000000E+00 0.  1.
</event>
<event>
 7    1  0.4915160E-006  0.1351330E+03  0.7818608E-02  0.1432626E+00
          2   -1    0    0  502    0  0.00000000000E+00  0.00000000000E+00  0.39175887886E+03  0.39175887886E+03  0.00000000000E+00 0. -1.
          1   -1    0    0  501    0 -0.00000000000E+00 -0.00000000000E+00 -0.16430857261E+04  0.16430857261E+04  0.00000000000E+00 0. -1.
         25    2    1    2    0    0  0.97506021613E+02 -0.69613493599E+02 -0.73266042443E+02  0.18800573889E+03  0.12499912855E+03 0.  0.
          2    1    1    2  501    0  0.65013098714E+01 -0.19280703062E+02 -0.14983824179E+04  0.14985205647E+04  0.00000000000E+00 0. -1.
          1    1    1    2  502    0 -0.10400733148E+03  0.88894196662E+02  0.32032161314E+03  0.34831830134E+03  0.00000000000E+00 0. -1.
         22    1    3    3    0    0  0.21680079023E+02 -0.79969081787E+02 -0.11691064888E+01  0.82864025235E+02  0.00000000000E+00 0. -1.
         22    1    3    3    0    0  0.75825942590E+02  0.10355588187E+02 -0.72096935955E+02  0.10514171366E+03  0.00000000000E+00 0. -1.
</event>
<event>
 7    1  0.4915160E-006  0.8023128E+02  0.7818608E-02  0.1482106E+00
          2   -1    0    0  502    0  0.00000000000E+00  0.00000000000E+00  0.74910768373E+02  0.74910768373E+02  0.00000000000E+00 0. -1.
          1   -1    0    0  501    0 -0.00000000000E+00 -0.00000000000E+00 -0.73581544021E+03  0.73581544021E+03  0.00000000000E+00 0. -1.
         25    2    1    2    0    0  0.50488067688E+01  0.77185924986E+02 -0.24473978915E+03  0.28549053675E+03  0.12499649879E+03 0.  0.
          2    1    1    2  501    0 -0.23841202043E+02  0.15156902348E+01 -0.44018400647E+03  0.44083178173E+03  0.00000000000E+00 0. -1.
          1    1    1    2  502    0  0.18792395274E+02 -0.78701615221E+02  0.24019123783E+02  0.84403890111E+02  0.00000000000E+00 0. -1.
         22    1    3    3    0    0  0.31480764551E+02 -0.23103712263E+02 -0.39552206164E+02  0.55580545783E+02  0.00000000000E+00 0. -1.
         22    1    3    3    0    0 -0.26431957783E+02  0.10028963725E+03 -0.20518758299E+03  0.22990999096E+03  0.00000000000E+00 0. -1.
</event>
<event>
 7    1  0.5799059E-006  0.9386405E+02  0.7818608E-02  0.1297277E+00
          2   -1    0    0  502    0  0.00000000000E+00  0.00000000000E+00  0.25635151012E+04  0.25635151012E+04  0.00000000000E+00 0. -1.
          1   -1    0    0  501    0 -0.00000000000E+00 -0.00000000000E+00 -0.74823713288E+03  0.74823713288E+03  0.00000000000E+00 0. -1.
         25    2    1    2    0    0 -0.11973439585E+03 -0.74120313255E+02 -0.24137585209E+03  0.30613467593E+03  0.12500396574E+03 0.  0.
          2    1    1    2  501    0  0.90347403378E+02 -0.11840472540E+02 -0.46928308734E+03  0.47804755637E+03  0.00000000000E+00 0. -1.
          1    1    1    2  502    0  0.29386992474E+02  0.85960785795E+02  0.25259369077E+04  0.25275700018E+04  0.00000000000E+00 0. -1.
         22    1    3    3    0    0 -0.73942936098E+02 -0.33775422234E+02 -0.23014584396E+03  0.24408081948E+03  0.00000000000E+00 0.  1.
         22    1    3    3    0    0 -0.45791459754E+02 -0.40344891021E+02 -0.11230008127E+02  0.62053856451E+02  0.00000000000E+00 0.  1.
</event>
<event>
 7    1  0.4915160E-006  0.2030293E+03  0.7818608E-02  0.1342646E+00
          2   -1    0    0  502    0  0.00000000000E+00  0.00000000000E+00  0.39554666628E+04  0.39554666628E+04  0.00000000000E+00 0. -1.
          1   -1    0    0  501    0 -0.00000000000E+00 -0.00000000000E+00 -0.21028423949E+03  0.21028423949E+03  0.00000000000E+00 0. -1.
         25    2    1    2    0    0  0.54880405443E+01  0.22946294882E+03  0.19022308034E+04  0.19201019680E+04  0.12500469872E+03 0.  0.
          2    1    1    2  501    0 -0.11063569465E+02 -0.20202432094E+03 -0.15039796710E+03  0.25210271187E+03  0.00000000000E+00 0. -1.
          1    1    1    2  502    0  0.55755289210E+01 -0.27438627874E+02  0.19933495870E+04  0.19935462224E+04  0.00000000000E+00 0. -1.
         22    1    3    3    0    0 -0.11266430109E+02  0.79675890444E+02  0.29366097966E+03  0.30448637234E+03  0.00000000000E+00 0. -1.
         22    1    3    3    0    0  0.16754470654E+02  0.14978705837E+03  0.16085698237E+04  0.16156155957E+04  0.00000000000E+00 0. -1.
</event>
<event>
 7    1  0.4915160E-006  0.6497581E+02  0.7818608E-02  0.1446397E+00
          2   -1    0    0  502    0  0.00000000000E+00  0.00000000000E+00  0.23919230473E+03  0.23919230473E+03  0.00000000000E+00 0. -1.
          1   -1    0    0  501    0 -0.00000000000E+00 -0.00000000000E+00 -0.29456900188E+03  0.29456900188E+03  0.00000000000E+00 0. -1.
         25    2    1    2    0    0 -0.63112411080E+02 -0.28017854936E+02  0.38855002419E+02  0.14799116977E+03  0.12499399382E+03 0.  0.
          2    1    1    2  501    0 -0.18532476025E+01  0.38131088173E+02 -0.23093948493E+03  0.23407362114E+03  0.00000000000E+00 0. -1.
          1    1    1    2  502    0  0.64965658682E+02 -0.10113233237E+02  0.13670778536E+03  0.15169651569E+03  0.00000000000E+00 0. -1.
         22    1    3    3    0    0 -0.73473673090E+02 -0.77624315732E+01 -0.26732078672E+02  0.78569968891E+02  0.00000000000E+00 0.  1.
         22    1    3    3    0    0  0.10361262011E+02 -0.20255423363E+02  0.65587081091E+02  0.69421200883E+02  0.00000000000E+00 0.  1.
</event>
<event>
 7    1  0.4915160E-006  0.8506561E+02  0.7818608E-02  0.1348922E+00
          2   -1    0    0  502    0  0.00000000000E+00  0.00000000000E+00  0.60337576598E+03  0.60337576598E+03  0.00000000000E+00 0. -1.
          1   -1    0    0  501    0 -0.00000000000E+00 -0.00000000000E+00 -0.18049156501E+03  0.18049156501E+03  0.00000000000E+00 0. -1.
         25    2    1    2    0    0  0.90747711843E+02 -0.67690328610E+02  0.75885012188E+02  0.18493442551E+03  0.12500031548E+03 0.  0.
          2    1    1    2  501    0 -0.83664620300E+02  0.47661436352E+01 -0.10959875612E+03  0.13796511210E+03  0.00000000000E+00 0. -1.
          1    1    1    2  502    0 -0.70830915428E+01  0.62924184975E+02  0.45659794490E+03  0.46096779338E+03  0.00000000000E+00 0. -1.
         22    1    3    3    0    0  0.34716752719E+02 -0.91041860458E+02  0.14332191482E+02  0.98484948026E+02  0.00000000000E+00 0. -1.
         22    1    3    3    0    0  0.56030959124E+02  0.23351531848E+02  0.61552820706E+02  0.86449477481E+02  0.00000000000E+00 0. -1.
</event>
<event>
 7    1  0.4915160E-006  0.8634360E+02  0.7818608E-02  0.1353622E+00
          2   -1    0    0  502    0  0.00000000000E+00  0.00000000000E+00  0.40012286920E+03  0.40012286920E+03  0.00000000000E+00 0. -1.
          1   -1    0    0  501    0 -0.00000000000E+00 -0.00000000000E+00 -0.92337779799E+03  0.92337779799E+03  0.00000000000E+00 0. -1.
         25    2    1    2    0    0 -0.45616861676E+02 -0.68378160905E+02 -0.14221569750E+03  0.20641434671E+03  0.12500042782E+03 0.  0.
          2    1    1    2  501    0  0.85088284762E+02  0.23273301523E+02 -0.74399933058E+03  0.74921069578E+03  0.00000000000E+00 0. -1.
          1    1    1    2  502    0 -0.39471423086E+02  0.45104859382E+02  0.36296009928E+03  0.36787562470E+03  0.00000000000E+00 0. -1.
         22    1    3    3    0    0  0.42636249030E+02 -0.11149185506E+02 -0.35683991646E+02  0.56705390648E+02  0.00000000000E+00 0. -1.
         22    1    3    3    0    0 -0.88253110706E+02 -0.57228975399E+02 -0.10653170585E+03  0.14970895606E+03  0.00000000000E+00 0. -1.
</event>
<event>
 7    1  0.4915160E-006  0.6350928E+02  0.7818608E-02  0.1388734E+00
          2   -1    0    0  502    0  0.00000000000E+00  0.00000000000E+00  0.10258553952E+04  0.10258553952E+04  0.00000000000E+00 0. -1.
          1   -1    0    0  501    0 -0.00000000000E+00 -0.00000000000E+00 -0.10663164643E+04  0.10663164643E+04  0.00000000000E+00 0. -1.
         25    2    1    2    0    0  0.10862268852E+03  0.45158169730E+02  0.16385087238E+03  0.23729704046E+03  0.12499851310E+03 0.  0.
          2    1    1    2  501    0 -0.63107995450E+02 -0.46022212897E+01 -0.10274930164E+04  0.10294395069E+04  0.00000000000E+00 0. -1.
          1    1    1    2  502    0 -0.45514693067E+02 -0.40555948440E+02  0.82318107503E+03  0.82543531214E+03  0.00000000000E+00 0. -1.
         22    1    3    3    0    0  0.79607707815E+02  0.15446172653E+02  0.17620478698E+03  0.19396932322E+03  0.00000000000E+00 0.  1.
         22    1    3    3    0    0  0.29014980702E+02  0.29711997077E+02 -0.12353914605E+02  0.43327717243E+02  0.00000000000E+00 0.  1.
</event>
<event>
 7    1  0.4915160E-006  0.8078751E+02  0.7818608E-02  0.1353061E+00
          2   -1    0    0  502    0  0.00000000000E+00  0.00000000000E+00  0.79621507225E+03  0.79621507225E+03  0.00000000000E+00 0. -1.
          1   -1    0    0  501    0 -0.00000000000E+00 -0.00000000000E+00 -0.55762274259E+03  0.55762274259E+03  0.00000000000E+00 0. -1.
         25    2    1    2    0    0  0.56982915543E+02  0.35596409943E+02  0.14940879665E+03  0.20605451781E+03  0.12498527404E+03 0.  0.
          2    1    1    2  501    0 -0.11060672923E+02 -0.80696195528E+02 -0.52447324797E+03  0.53076021167E+03  0.00000000000E+00 0. -1.
          1    1    1    2  502    0 -0.45922242620E+02  0.45099785585E+02  0.61365678098E+03  0.61702308536E+03  0.00000000000E+00 0. -1.
         22    1    3    3    0    0  0.73199086192E+02 -0.14467899639E+02  0.40030888609E+02  0.84675252477E+02  0.00000000000E+00 0.  1.
         22    1    3    3    0    0 -0.16216170649E+02  0.50064309582E+02  0.10937790805E+03  0.12137926533E+03  0.00000000000E+00 0.  1.
</event>
<event>
 7    1  0.4915160E-006  0.1160094E+03  0.7818608E-02  0.1250092E+00
          2   -1    0    0  502    0  0.00000000000E+00  0.00000000000E+00  0.69514350717E+03  0.69514350717E+03  0.00000000000E+00 0. -1.
          1   -1    0    0  501    0 -0.00000000000E+00 -0.00000000000E+00 -0.42713929295E+03  0.42713929295E+03  0.00000000000E+00 0. -1.
         25    2    1    2    0    0  0.78776568963E+01  0.64433830668E+01  0.88204082724E+02  0.15331832771E+03  0.12499189870E+03 0.  0.
          2    1    1    2  501    0 -0.12083022086E+03 -0.31532337116E+02 -0.37862060039E+03  0.39868256746E+03  0.00000000000E+00 0. -1.
          1    1    1    2  502    0  0.11295256396E+03  0.25088954049E+02  0.55842073188E+03  0.57028190495E+03  0.00000000000E+00 0. -1.
         22    1    3    3    0    0 -0.18074466358E+02 -0.47225072440E+02  0.77822067297E+02  0.92807154678E+02  0.00000000000E+00 0.  1.
         22    1    3    3    0    0  0.25952123254E+02  0.53668455507E+02  0.10382015427E+02  0.60511173036E+02  0.00000000000E+00 0.  1.
</event>
<event>
 7    1  0.4915160E-006  0.7601296E+02  0.7818608E-02  0.1476580E+00
          2   -1    0    0  502    0  0.00000000000E+00  0.00000000000E+00  0.16107108504E+04  0.16107108504E+04  0.00000000000E+00 0. -1.
          1   -1    0    0  501    0 -0.00000000000E+00 -0.00000000000E+00 -0.58778192666E+02  0.58778192666E+02  0.00000000000E+00 0. -1.
         25    2    1    2    0    0 -0.28194272269E+02 -0.92338600686E+02  0.37913172698E+03  0.41071556103E+03  0.12500028601E+03 0.  0.
          2    1    1    2  501    0  0.96502729639E+01  0.73802442526E+02 -0.10512664253E+02  0.75169437944E+02  0.00000000000E+00 0. -1.
          1    1    1    2  502    0  0.18543999305E+02  0.18536158159E+02  0.11833135950E+04  0.11836040440E+04  0.00000000000E+00 0. -1.
         22    1    3    3    0    0  0.38772409553E+02 -0.41530629913E+02  0.25186644143E+03  0.25819526968E+03  0.00000000000E+00 0. -1.
         22    1    3    3    0    0 -0.66966681822E+02 -0.50807970773E+02  0.12726528555E+03  0.15252029135E+03  0.00000000000E+00 0. -1.
</event>
<event>
 7    1  0.4915160E-006  0.1503039E+03  0.7818608E-02  0.1228470E+00
          2   -1    0    0  502    0  0.00000000000E+00  0.00000000000E+00  0.33440124724E+04  0.33440124724E+04  0.00000000000E+00 0. -1.
          1   -1    0    0  501    0 -0.00000000000E+00 -0.00000000000E+00 -0.53728290915E+02  0.53728290915E+02  0.00000000000E+00 0. -1.
         25    2    1    2    0    0  0.15684852532E+03 -0.38401215874E+02  0.76969898090E+03  0.79632782905E+03  0.12500150739E+03 0.  0.
          2    1    1    2  501    0 -0.13737460262E+03 -0.71144385153E+02  0.11378546280E+03  0.19204279869E+03  0.00000000000E+00 0. -1.
          1    1    1    2  502    0 -0.19473922698E+02  0.10954560103E+03  0.24067997378E+04  0.24093701356E+04  0.00000000000E+00 0. -1.
         22    1    3    3    0    0  0.94606077951E+02 -0.26415045949E+02  0.19697876024E+03  0.22011064632E+03  0.00000000000E+00 0. -1.
         22    1    3    3    0    0  0.62242447369E+02 -0.11986169925E+02  0.57272022066E+03  0.57621718274E+03  0.00000000000E+00 0. -1.
</event>
<event>
 7    1  0.4915160E-006  0.2239137E+03  0.7818608E-02  0.1235763E+00
          2   -1    0    0  502    0  0.00000000000E+00  0.00000000000E+00  0.13441695721E+04  0.13441695721E+04  0.00000000000E+00 0. -1.
          1   -1    0    0  501    0 -0.00000000000E+00 -0.00000000000E+00 -0.27262694943E+03  0.27262694943E+03  0.00000000000E+00 0. -1.
         25    2    1    2    0    0 -0.12704266113E+03 -0.11929592749E+03  0.86022558815E+02  0.23107665390E+03  0.12500073315E+03 0.  0.
          2    1    1    2  501    0 -0.69113668016E+02 -0.49134714056E+01 -0.18231075639E+03  0.19503346688E+03  0.00000000000E+00 0. -1.
          1    1    1    2  502    0  0.19615632914E+03  0.12420939889E+03  0.11678308203E+04  0.11906864008E+04  0.00000000000E+00 0. -1.
         22    1    3    3    0    0  0.15046539504E+02  0.11884436352E+02 -0.58768994500E+00  0.19182897538E+02  0.00000000000E+00 0.  1.
         22    1    3    3    0    0 -0.14208920063E+03 -0.13118036384E+03  0.86610248760E+02  0.21189375636E+03  0.00000000000E+00 0.  1.
</event>
<event>
 7    1  0.4915160E-006  0.2549549E+02  0.7818608E-02  0.1658043E+00
          2   -1    0    0  502    0  0.00000000000E+00  0.00000000000E+00  0.24724302683E+04  0.24724302683E+04  0.00000000000E+00 0. -1.
          1   -1    0    0  501    0 -0.00000000000E+00 -0.00000000000E+00 -0.11440706755E+03  0.11440706755E+03  0.00000000000E+00 0. -1.
         25    2    1    2    0    0 -0.14675975143E+02 -0.40191754296E+02  0.12026224302E+04  0.12098582093E+04  0.12500166322E+03 0.  0.
          2    1    1    2  501    0 -0.50610762756E+01  0.24974468668E+02 -0.10919951785E+03  0.11213328354E+03  0.00000000000E+00 0. -1.
          1    1    1    2  502    0  0.19737051418E+02  0.15217285628E+02  0.12646002884E+04  0.12648458430E+04  0.00000000000E+00 0. -1.
         22    1    3    3    0    0 -0.43142475467E+02  0.97595618608E+01  0.93890999075E+03  0.93995132478E+03  0.00000000000E+00 0. -1.
         22    1    3    3    0    0  0.28466500324E+02 -0.49951316157E+02  0.26371243942E+03  0.26990688456E+03  0.00000000000E+00 0. -1.
</event>
<event>
 7    1  0.4915160E-006  0.3425467E+03  0.7818608E-02  0.1177634E+00
          2   -1    0    0  502    0  0.00000000000E+00  0.00000000000E+00  0.11382747481E+04  0.11382747481E+04  0.00000000000E+00 0. -1.
          1   -1    0    0  501    0 -0.00000000000E+00 -0.00000000000E+00 -0.15258577698E+04  0.15258577698E+04  0.00000000000E+00 0. -1.
         25    2    1    2    0    0  0.13346591370E+03 -0.32644016889E+03 -0.31134982257E+03  0.48675587742E+03  0.12496494788E+03 0.  0.
          2    1    1    2  501    0 -0.49723084748E+02  0.33825398576E+03 -0.10990859768E+04  0.11510335045E+04  0.00000000000E+00 0. -1.
          1    1    1    2  502    0 -0.83742828953E+02 -0.11813816877E+02  0.10228527778E+04  0.10263431360E+04  0.00000000000E+00 0. -1.
         22    1    3    3    0    0  0.66541434185E+02 -0.14781533877E+03 -0.22514699226E+03  0.27743162214E+03  0.00000000000E+00 0.  1.
         22    1    3    3    0    0  0.66924479516E+02 -0.17862483012E+03 -0.86202830310E+02  0.20932425527E+03  0.00000000000E+00 0.  1.
</event>
<event>
 7    1  0.4915160E-006  0.4271500E+02  0.7818608E-02  0.1602632E+00
          2   -1    0    0  502    0  0.00000000000E+00  0.00000000000E+00  0.28766566473E+03  0.28766566473E+03  0.00000000000E+00 0. -1.
          1   -1    0    0  501    0 -0.00000000000E+00 -0.00000000000E+00 -0.18287152726E+04  0.18287152726E+04  0.00000000000E+00 0. -1.
         25    2    1    2    0    0 -0.40988880176E+02  0.43267841033E+02 -0.12416962677E+03  0.18599295684E+03  0.12499235744E+03 0.  0.
          2    1    1    2  501    0  0.21561298306E+02 -0.36717749165E+02 -0.16729533744E+04  0.16734951674E+04  0.00000000000E+00 0. -1.
          1    1    1    2  502    0  0.19427581870E+02 -0.65500918683E+01  0.25607339328E+03  0.25689281303E+03  0.00000000000E+00 0. -1.
         22    1    3    3    0    0 -0.63358567683E+02  0.47876275801E+01 -0.11130876210E+02  0.64506789425E+02  0.00000000000E+00 0. -1.
         22    1    3    3    0    0  0.22369687507E+02  0.38480213453E+02 -0.11303875056E+03  0.12148616742E+03  0.00000000000E+00 0. -1.
</event>
<event>
 7    1  0.4915160E-006  0.1163162E+03  0.7818608E-02  0.1385467E+00
          2   -1    0    0  502    0  0.00000000000E+00  0.00000000000E+00  0.70488197086E+03  0.70488197086E+03  0.00000000000E+00 0. -1.
          1   -1    0    0  501    0 -0.00000000000E+00 -0.00000000000E+00 -0.43842303364E+03  0.43842303364E+03  0.00000000000E+00 0. -1.
         25    2    1    2    0    0  0.67630561107E+02 -0.97613292919E+02  0.51662747167E+02  0.17998241056E+03  0.12498952322E+03 0.  0.
          2    1    1    2  501    0 -0.36084676961E+02  0.11075803047E+03 -0.36468345575E+03  0.38283608519E+03  0.00000000000E+00 0. -1.
          1    1    1    2  502    0 -0.31545884145E+02 -0.13144737546E+02  0.57947964581E+03  0.58048650875E+03  0.00000000000E+00 0. -1.
         22    1    3    3    0    0  0.70399519355E+02  0.19979002061E+01  0.69783649685E+01  0.70772745519E+02  0.00000000000E+00 0.  1.
         22    1    3    3    0    0 -0.27689582483E+01 -0.99611193125E+02  0.44684382198E+02  0.10920966504E+03  0.00000000000E+00 0.  1.
</event>
<event>
 7    1  0.4915160E-006  0.1006523E+03  0.7818608E-02  0.1315685E+00
          2   -1    0    0  502    0  0.00000000000E+00  0.00000000000E+00  0.11594830315E+04  0.11594830315E+04  0.00000000000E+00 0. -1.
          1   -1    0    0  501    0 -0.00000000000E+00 -0.00000000000E+00 -0.90265821912E+02  0.90265821912E+02  0.00000000000E+00 0. -1.
         25    2    1    2    0    0 -0.10212519094E+03  0.81323075371E+02  0.20867443254E+03  0.27606630098E+03  0.12499834610E+03 0.  0.
          2    1    1    2  501    0  0.97823259233E+02 -0.98334623671E+01 -0.11245595938E+02  0.98957316339E+02  0.00000000000E+00 0. -1.
          1    1    1    2  502    0  0.43019317095E+01 -0.71489613004E+02  0.87178837302E+03  0.87472523613E+03  0.00000000000E+00 0. -1.
         22    1    3    3    0    0 -0.35786210063E+02 -0.30748178438E+02  0.80688423950E+02  0.93470450237E+02  0.00000000000E+00 0. -1.
         22    1    3    3    0    0 -0.66338980879E+02  0.11207125381E+03  0.12798600859E+03  0.18259585075E+03  0.00000000000E+00 0. -1.
</event>
<event>
 7    1  0.4915160E-006  0.3999158E+02  0.7818608E-02  0.1544415E+00
          2   -1    0    0  502    0  0.00000000000E+00  0.00000000000E+00  0.77502679941E+02  0.77502679941E+02  0.00000000000E+00 0. -1.
          1   -1    0    0  501    0 -0.00000000000E+00 -0.00000000000E+00 -0.37793474957E+03  0.37793474957E+03  0.00000000000E+00 0. -1.
         25    2    1    2    0    0  0.22262567044E+02 -0.62117149936E+02 -0.56706430753E+02  0.15229841259E+03  0.12500009993E+03 0.  0.
          2    1    1    2  501    0 -0.19050230546E+02  0.25049060820E+02 -0.26045119274E+03  0.26234555558E+03  0.00000000000E+00 0. -1.
          1    1    1    2  502    0 -0.32123364984E+01  0.37068089116E+02  0.16725553862E+02  0.40793461345E+02  0.00000000000E+00 0. -1.
         22    1    3    3    0    0  0.22505286355E+02 -0.98086701133E+02 -0.58281289837E+02  0.11629358365E+03  0.00000000000E+00 0.  1.
         22    1    3    3    0    0 -0.24271931068E+00  0.35969551196E+02  0.15748590844E+01  0.36004828941E+02  0.00000000000E+00 0.  1.
</event>
<event>
 7    1  0.4915160E-006  0.8068997E+02  0.7818608E-02  0.1385166E+00
          2   -1    0    0  502    0  0.00000000000E+00  0.00000000000E+00  0.40137157050E+03  0.40137157050E+03  0.00000000000E+00 0. -1.
          1   -1    0    0  501    0 -0.00000000000E+00 -0.00000000000E+00 -0.17871369990E+04  0.17871369990E+04  0.00000000000E+00 0. -1.
         25    2    1    2    0    0 -0.35172285375E+01 -0.58616775835E+02 -0.12196761560E+03  0.18425312951E+03  0.12499927670E+03 0.  0.
          2    1    1    2  501    0 -0.44895085493E+02  0.68364602671E+02 -0.16313507847E+04  0.16333997277E+04  0.00000000000E+00 0. -1.
          1    1    1    2  502    0  0.48412314030E+02 -0.97478268361E+01  0.36755297180E+03  0.37085571232E+03  0.00000000000E+00 0. -1.
         22    1    3    3    0    0  0.14157069150E+02 -0.52802099567E+02  0.59495779396E+01  0.54989833635E+02  0.00000000000E+00 0.  1.
         22    1    3    3    0    0 -0.17674297687E+02 -0.58146762679E+01 -0.12791719354E+03  0.12926329588E+03  0.00000000000E+00 0.  1.
</event>
<event>
 7    1  0.4915160E-006  0.1070503E+03  0.7818608E-02  0.1379186E+00
          2   -1    0    0  502    0  0.00000000000E+00  0.00000000000E+00  0.10841671317E+04  0.10841671317E+04  0.00000000000E+00 0. -1.
          1   -1    0    0  501    0 -0.00000000000E+00 -0.00000000000E+00 -0.16830675052E+03  0.16830675052E+03  0.00000000000E+00 0. -1.
         25    2    1    2    0    0  0.10608625420E+03 -0.67816903222E+02  0.23078129639E+03  0.29109944761E+03  0.12500182377E+03 0.  0.
          2    1    1    2  501    0 -0.47059509656E+01  0.38793314351E+02 -0.13192599588E+03  0.13759191692E+03  0.00000000000E+00 0. -1.
          1    1    1    2  502    0 -0.10138030323E+03  0.29023588871E+02  0.81700508063E+03  0.82378251764E+03  0.00000000000E+00 0. -1.
         22    1    3    3    0    0  0.40930677037E+02 -0.61295685734E+02  0.20975114321E+03  0.22232414060E+03  0.00000000000E+00 0.  1.
         22    1    3    3    0    0  0.65155577160E+02 -0.65212174874E+01  0.21030153176E+02  0.68775307016E+02  0.00000000000E+00 0.  1.
</event>
<event>
 7    1  0.4915160E-006  0.1924004E+03  0.7818608E-02  0.1220524E+00
          2   -1    0    0  502    0  0.00000000000E+00  0.00000000000E+00  0.62571450801E+03  0.62571450801E+03  0.00000000000E+00 0. -1.
          1   -1    0    0  501    0 -0.00000000000E+00 -0.00000000000E+00 -0.73250691011E+03  0.73250691011E+03  0.00000000000E+00 0. -1.
         25    2    1    2    0    0  0.73427864355E+02  0.18579215475E+03  0.19787579047E+03  0.30771690035E+03  0.12499794509E+03 0.  0.
          2    1    1    2  501    0 -0.93955194655E+02  0.93824554470E+01 -0.64810658706E+03  0.65494866765E+03  0.00000000000E+00 0. -1.
          1    1    1    2  502    0  0.20527330300E+02 -0.19517461020E+03  0.34343839448E+03  0.39555585012E+03  0.00000000000E+00 0. -1.
         22    1    3    3    0    0 -0.63573446168E+01  0.36273777669E+02 -0.11283198735E+02  0.38516403656E+02  0.00000000000E+00 0.  1.
         22    1    3    3    0    0  0.79785208972E+02  0.14951837708E+03  0.20915898920E+03  0.26920049669E+03  0.00000000000E+00 0.  1.
</event>
<event>
 7    1  0.4915160E-006  0.4256742E+02  0.7818608E-02  0.1496680E+00
          2   -1    0    0  502    0  0.00000000000E+00  0.00000000000E+00  0.16780102231E+04  0.16780102231E+04  0.00000000000E+00 0. -1.
          1   -1    0    0  501    0 -0.00000000000E+00 -0.00000000000E+00 -0.66887657783E+02  0.66887657783E+02  0.00000000000E+00 0. -1.
         25    2    1    2    0    0  0.31747077983E+02  0.56070187330E+02  0.10994316168E+03  0.17847608936E+03  0.12495788413E+03 0.  0.
          2    1    1    2  501    0  0.61151293727E+01 -0.41204176044E+02 -0.18939356251E+02  0.45758913294E+02  0.00000000000E+00 0. -1.
          1    1    1    2  502    0 -0.37862207356E+02 -0.14866011287E+02  0.15201187599E+04  0.15206628782E+04  0.00000000000E+00 0. -1.
         22    1    3    3    0    0 -0.21204390717E+02  0.54104413714E+02  0.19039356350E+01  0.58142400534E+02  0.00000000000E+00 0. -1.
         22    1    3    3    0    0  0.52951468700E+02  0.19657736164E+01  0.10803922604E+03  0.12033368883E+03  0.00000000000E+00 0. -1.
</event>
<event>
 7    1  0.4915160E-006  0.1735752E+03  0.7818608E-02  0.1218530E+00
          2   -1    0    0  502    0  0.00000000000E+00  0.00000000000E+00  0.82191810404E+03  0.82191810404E+03  0.00000000000E+00 0. -1.
          1   -1    0    0  501    0 -0.00000000000E+00 -0.00000000000E+00 -0.20051537989E+04  0.20051537989E+04  0.00000000000E+00 0. -1.
         25    2    1    2    0    0 -0.20015257046E+03 -0.19407577040E+03 -0.13487228886E+04  0.13828972668E+04  0.12499985658E+03 0.  0.
          2    1    1    2  501    0  0.68546620209E+02  0.82002327607E+02 -0.62547664029E+03  0.63454239292E+03  0.00000000000E+00 0. -1.
          1    1    1    2  502    0  0.13160595025E+03  0.11207344279E+03  0.79096383397E+03  0.80963224329E+03  0.00000000000E+00 0. -1.
         22    1    3    3    0    0 -0.13159345952E+03 -0.18982890220E+03 -0.91145853967E+03  0.94027045058E+03  0.00000000000E+00 0.  1.
         22    1    3    3    0    0 -0.68559110946E+02 -0.42468681954E+01 -0.43726434889E+03  0.44262681617E+03  0.00000000000E+00 0.  1.
</event>
<event>
 7    1  0.4915160E-006  0.1380184E+03  0.7818608E-02  0.1311940E+00
          2   -1    0    0  502    0  0.00000000000E+00  0.00000000000E+00  0.98347252913E+03  0.98347252913E+03  0.00000000000E+00 0. -1.
          1   -1    0    0  501    0 -0.00000000000E+00 -0.00000000000E+00 -0.35076163156E+03  0.35076163156E+03  0.00000000000E+00 0. -1.
         25    2    1    2    0    0 -0.55634401844E+02 -0.12877672885E+03  0.23475946101E+03  0.30069398819E+03  0.12500494967E+03 0.  0.
          2    1    1    2  501    0  0.24802137068E+01  0.13843215740E+03 -0.30162314505E+03  0.33188271316E+03  0.00000000000E+00 0. -1.
          1    1    1    2  502    0  0.53154188138E+02 -0.96554285507E+01  0.69957458161E+03  0.70165745934E+03  0.00000000000E+00 0. -1.
         22    1    3    3    0    0 -0.44473496933E+02 -0.80408924125E+02  0.40899174605E+02  0.10057946854E+03  0.00000000000E+00 0. -1.
         22    1    3    3    0    0 -0.11160904912E+02 -0.48367804724E+02  0.19386028640E+03  0.20011451965E+03  0.00000000000E+00 0. -1.
</event>
<event>
 7    1  0.4915160E-006  0.5741291E+02  0.7818608E-02  0.1416748E+00
          2   -1    0    0  502    0  0.00000000000E+00  0.00000000000E+00  0.38578966295E+03  0.38578966295E+03  0.00000000000E+00 0. -1.
          1   -1    0    0  501    0 -0.00000000000E+00 -0.00000000000E+00 -0.33760905021E+03  0.33760905021E+03  0.00000000000E+00 0. -1.
         25    2    1    2    0    0 -0.71832722492E+01 -0.99510161184E+02  0.13457278409E+03  0.20902141003E+03  0.12500497611E+03 0.  0.
          2    1    1    2  501    0  0.27907712589E+02  0.49572652246E+02 -0.29420072023E+03  0.29965038304E+03  0.00000000000E+00 0. -1.
          1    1    1    2  502    0 -0.20724440340E+02  0.49937508939E+02  0.20780854887E+03  0.21472692009E+03  0.00000000000E+00 0. -1.
         22    1    3    3    0    0  0.27061158506E+02 -0.11435370796E+03  0.77286784969E+02  0.14064964968E+03  0.00000000000E+00 0. -1.
         22    1    3    3    0    0 -0.34244430755E+02  0.14843546771E+02  0.57285999122E+02  0.68371760354E+02  0.00000000000E+00 0. -1.
</event>
<event>
 7    1  0.4915160E-006  0.9354587E+02  0.7818608E-02  0.1328609E+00
          2   -1    0    0  502    0  0.00000000000E+00  0.00000000000E+00  0.76735300262E+02  0.76735300262E+02  0.00000000000E+00 0. -1.
          1   -1    0    0  501    0 -0.00000000000E+00 -0.00000000000E+00 -0.19300807770E+04  0.19300807770E+04  0.00000000000E+00 0. -1.
         25    2    1    2    0    0 -0.10452730587E+03  0.94539004606E+02 -0.83121149676E+03  0.85229089043E+03  0.12499451391E+03 0.  0.
          2    1    1    2  501    0  0.81729298984E+02 -0.29750349223E+02 -0.10682575922E+04  0.10717924449E+04  0.00000000000E+00 0. -1.
          1    1    1    2  502    0  0.22798006886E+02 -0.64788655383E+02  0.46123612233E+02  0.82732741945E+02  0.00000000000E+00 0. -1.
         22    1    3    3    0    0 -0.83485952380E+02  0.50439591075E+02 -0.24000191346E+03  0.25906558061E+03  0.00000000000E+00 0.  1.
         22    1    3    3    0    0 -0.21041353490E+02  0.44099413531E+02 -0.59120958329E+03  0.59322530982E+03  0.00000000000E+00 0.  1.
</event>
<event>
 7    1  0.4915160E-006  0.9510517E+02  0.7818608E-02  0.1353636E+00
          2   -1    0    0  502    0  0.00000000000E+00  0.00000000000E+00  0.14738771292E+04  0.14738771292E+04  0.00000000000E+00 0. -1.
          1   -1    0    0  501    0 -0.00000000000E+00 -0.00000000000E+00 -0.12415247199E+04  0.12415247199E+04  0.00000000000E+00 0. -1.
         25    2    1    2    0    0 -0.74669983890E+02 -0.66513532294E+01  0.68829325618E+03  0.70356103537E+03  0.12502270593E+03 0.  0.
          2    1    1    2  501    0 -0.25272197280E+02  0.48183103097E+02 -0.12295221273E+04  0.12307253784E+04  0.00000000000E+00 0. -1.
          1    1    1    2  502    0  0.99942181169E+02 -0.41531749867E+02  0.77358128051E+03  0.78111543537E+03  0.00000000000E+00 0. -1.
         22    1    3    3    0    0  0.63198263407E+01 -0.37000294106E+02  0.71697569586E+02  0.80929002548E+02  0.00000000000E+00 0.  1.
         22    1    3    3    0    0 -0.80989810230E+02  0.30348940877E+02  0.61659568659E+03  0.62263203282E+03  0.00000000000E+00 0.  1.
</event>
<event>
 7    1  0.4915160E-006  0.3160103E+02  0.7818608E-02  0.1595452E+00
          2   -1    0    0  502    0  0.00000000000E+00  0.00000000000E+00  0.32867830646E+04  0.32867830646E+04  0.00000000000E+00 0. -1.
          1   -1    0    0  501    0 -0.00000000000E+00 -0.00000000000E+00 -0.54084354022E+02  0.54084354022E+02  0.00000000000E+00 0. -1.
         25    2    1    2    0    0 -0.78969557050E+01  0.33371192743E+02  0.18855027121E+04  0.18899526020E+04  0.12499744907E+03 0.  0.
          2    1    1    2  501    0  0.27849222300E+02 -0.78608078525E+01 -0.47620016334E+02  0.55722862798E+02  0.00000000000E+00 0. -1.
          1    1    1    2  502    0 -0.19952266595E+02 -0.25510384890E+02  0.13948160148E+04  0.13951919538E+04  0.00000000000E+00 0. -1.
         22    1    3    3    0    0  0.31546269870E+02  0.67890809270E+02  0.12790719166E+04  0.12812608232E+04  0.00000000000E+00 0.  1.
         22    1    3    3    0    0 -0.39443225575E+02 -0.34519616527E+02  0.60643079548E+03  0.60869177888E+03  0.00000000000E+00 0.  1.
</event>
<event>
 7    1  0.4915160E-006  0.6022684E+02  0.7818608E-02  0.1401681E+00
          2   -1    0    0  502    0  0.00000000000E+00  0.00000000000E+00  0.52723086047E+03  0.52723086047E+03  0.00000000000E+00 0. -1.
          1   -1    0    0  501    0 -0.00000000000E+00 -0.00000000000E+00 -0.15176716864E+04  0.15176716864E+04  0.00000000000E+00 0. -1.
         25    2    1    2    0    0  0.47346421354E+02  0.30526497770E+02 -0.33647903683E+02  0.14117690821E+03  0.12500074923E+03 0.  0.
          2    1    1    2  501    0 -0.54232157779E+02  0.27042183053E+02 -0.14278391800E+04  0.14291246028E+04  0.00000000000E+00 0. -1.
          1    1    1    2  502    0  0.68857364249E+01 -0.57568680823E+02  0.47104625767E+03  0.47460103586E+03  0.00000000000E+00 0. -1.
         22    1    3    3    0    0  0.46742849536E+02  0.22743778637E+02 -0.79323668896E+02  0.94838904974E+02  0.00000000000E+00 0. -1.
         22    1    3    3    0    0  0.60357181825E+00  0.77827191330E+01  0.45675765214E+02  0.46338003236E+02  0.00000000000E+00 0. -1.
</event>
<event>
 7    1  0.4915160E-006  0.1701003E+03  0.7818608E-02  0.1215804E+00
          2   -1    0    0  502    0  0.00000000000E+00  0.00000000000E+00  0.51472996343E+03  0.51472996343E+03  0.00000000000E+00 0. -1.
          1   -1    0    0  501    0 -0.00000000000E+00 -0.00000000000E+00 -0.22340047944E+03  0.22340047944E+03  0.00000000000E+00 0. -1.
         25    2    1    2    0    0  0.24054490267E+03 -0.31490677954E+02  0.59550251011E+02  0.27933000691E+03  0.12500202946E+03 0.  0.
          2    1    1    2  501    0 -0.13394049356E+03  0.66622092035E+02 -0.48193292508E+02  0.15716600270E+03  0.00000000000E+00 0. -1.
          1    1    1    2  502    0 -0.10660440911E+03 -0.35131414080E+02  0.27997252549E+03  0.30163443326E+03  0.00000000000E+00 0. -1.
         22    1    3    3    0    0  0.14893521725E+03  0.37076983571E+02  0.76218597334E+01  0.15367008295E+03  0.00000000000E+00 0. -1.
         22    1    3    3    0    0  0.91609685415E+02 -0.68567661526E+02  0.51928391278E+02  0.12565992396E+03  0.00000000000E+00 0. -1.
</event>
<event>
 7    1  0.4915160E-006  0.3316416E+02  0.7818608E-02  0.1566855E+00
          2   -1    0    0  502    0  0.00000000000E+00  0.00000000000E+00  0.97033187915E+02  0.97033187915E+02  0.00000000000E+00 0. -1.
          1   -1    0    0  501    0 -0.00000000000E+00 -0.00000000000E+00 -0.75453501868E+03  0.75453501868E+03  0.00000000000E+00 0. -1.
         25    2    1    2    0    0  0.15692222233E+02  0.23451821758E+02 -0.37979519981E+03  0.40083183226E+03  0.12500212067E+03 0.  0.
          2    1    1    2  501    0 -0.34157338593E+02  0.40963303030E+01 -0.36019329172E+03  0.36183243512E+03  0.00000000000E+00 0. -1.
          1    1    1    2  502    0  0.18465116359E+02 -0.27548152061E+02  0.82486660765E+02  0.88903939217E+02  0.00000000000E+00 0. -1.
         22    1    3    3    0    0  0.22675906313E+02 -0.48960133664E+02 -0.19203300660E+03  0.19946921326E+03  0.00000000000E+00 0.  1.
         22    1    3    3    0    0 -0.69836840794E+01  0.72411955422E+02 -0.18776219321E+03  0.20136261900E+03  0.00000000000E+00 0.  1.
</event>
<event>
 7    1  0.4915160E-006  0.6547285E+02  0.7818608E-02  0.1396956E+00
          2   -1    0    0  502    0  0.00000000000E+00  0.00000000000E+00  0.10246366469E+03  0.10246366469E+03  0.00000000000E+00 0. -1.
          1   -1    0    0  501    0 -0.00000000000E+00 -0.00000000000E+00 -0.10868011627E+04  0.10868011627E+04  0.00000000000E+00 0. -1.
         25    2    1    2    0    0  0.10366335557E+02  0.84821696257E+02 -0.48158845224E+03  0.50483066318E+03  0.12499752032E+03 0.  0.
          2    1    1    2  501    0 -0.47841353609E+02 -0.44062487663E+02 -0.58317560043E+03  0.58679134185E+03  0.00000000000E+00 0. -1.
          1    1    1    2  502    0  0.37475018052E+02 -0.40759208594E+02  0.80426554662E+02  0.97642822358E+02  0.00000000000E+00 0. -1.
         22    1    3    3    0    0  0.32491349217E+02  0.28295012288E+02 -0.39049033797E+02  0.58147420706E+02  0.00000000000E+00 0.  1.
         22    1    3    3    0    0 -0.22125013660E+02  0.56526683969E+02 -0.44253941844E+03  0.44668324247E+03  0.00000000000E+00 0.  1.
</event>
<event>
 7    1  0.4915160E-006  0.2834257E+03  0.7818608E-02  0.1255317E+00
          2   -1    0    0  502    0  0.00000000000E+00  0.00000000000E+00  0.25294788530E+04  0.25294788530E+04  0.00000000000E+00 0. -1.
          1   -1    0    0  501    0 -0.00000000000E+00 -0.00000000000E+00 -0.53610440022E+03  0.53610440022E+03  0.00000000000E+00 0. -1.
         25    2    1    2    0    0 -0.24771208824E+03  0.21017554093E+03  0.13822603165E+03  0.37452089169E+03  0.12499770328E+03 0.  0.
          2    1    1    2  501    0  0.37962122374E+02 -0.24091428330E+02 -0.40807052514E+03  0.41053997752E+03  0.00000000000E+00 0. -1.
          1    1    1    2  502    0  0.20974996587E+03 -0.18608411260E+03  0.22632189463E+04  0.22805223840E+04  0.00000000000E+00 0. -1.
         22    1    3    3    0    0 -0.41511283788E+02  0.90354194678E+02  0.11368529451E+01  0.99440231357E+02  0.00000000000E+00 0.  1.
         22    1    3    3    0    0 -0.20620080445E+03  0.11982134625E+03  0.13708917870E+03  0.27508066033E+03  0.00000000000E+00 0.  1.
</event>
<event>
 7    1  0.4915160E-006  0.8122917E+02  0.7818608E-02  0.1357041E+00
          2   -1    0    0  502    0  0.00000000000E+00  0.00000000000E+00  0.55210349905E+02  0.55210349905E+02  0.00000000000E+00 0. -1.
          1   -1    0    0  501    0 -0.00000000000E+00 -0.00000000000E+00 -0.12387748587E+04  0.12387748587E+04  0.00000000000E+00 0. -1.
         25    2    1    2    0    0 -0.32167199693E+01 -0.92296712545E+02 -0.24404853733E+03  0.28933247717E+03  0.12499825334E+03 0.  0.
          2    1    1    2  501    0  0.55977860640E+02  0.59937433145E+02 -0.93918391460E+03  0.94275789162E+03  0.00000000000E+00 0. -1.
          1    1    1    2  502    0 -0.52761140671E+02  0.32359279400E+02 -0.33205682088E+00  0.61894839768E+02  0.00000000000E+00 0. -1.
         22    1    3    3    0    0 -0.29510250108E+02 -0.51538758665E+02 -0.24089218204E+02  0.64088914329E+02  0.00000000000E+00 0.  1.
         22    1    3    3    0    0  0.26293530139E+02 -0.40757953880E+02 -0.21995931912E+03  0.22524356284E+03  0.00000000000E+00 0.  1.
</event>
<event>
 7    1  0.4915160E-006  0.1544339E+03  0.7818608E-02  0.1304282E+00
          2   -1    0    0  502    0  0.00000000000E+00  0.00000000000E+00  0.28218555384E+03  0.28218555384E+03  0.00000000000E+00 0. -1.
          1   -1    0    0  501    0 -0.00000000000E+00 -0.00000000000E+00 -0.71613611755E+03  0.71613611755E+03  0.00000000000E+00 0. -1.
         25    2    1    2    0    0  0.95818162178E+02  0.16040522161E+03  0.99119936514E+02  0.24568241849E+03  0.12499653442E+03 0.  0.
          2    1    1    2  501    0 -0.20152588270E+02 -0.47682607927E+02 -0.59933578314E+03  0.60156723553E+03  0.00000000000E+00 0. -1.
          1    1    1    2  502    0 -0.75665573908E+02 -0.11272261368E+03  0.66265282928E+02  0.15107201737E+03  0.00000000000E+00 0. -1.
         22    1    3    3    0    0  0.98267658350E+02  0.63694398512E+02  0.16108540339E+02  0.11820742004E+03  0.00000000000E+00 0. -1.
         22    1    3    3    0    0 -0.24494961719E+01  0.96710823097E+02  0.83011396175E+02  0.12747499845E+03  0.00000000000E+00 0. -1.
</event>
<event>
 7    1  0.4915160E-006  0.7720882E+02  0.7818608E-02  0.1410682E+00
          2   -1    0    0  502    0  0.00000000000E+00  0.00000000000E+00  0.12041759603E+04  0.12041759603E+04  0.00000000000E+00 0. -1.
          1   -1    0    0  501    0 -0.00000000000E+00 -0.00000000000E+00 -0.45539437717E+02  0.45539437717E+02  0.00000000000E+00 0. -1.
         25    2    1    2    0    0  0.80177144618E+02 -0.31933737266E+02  0.39257838139E+03  0.42094329517E+03  0.12500933615E+03 0.  0.
          2    1    1    2  501    0 -0.35574099642E+01  0.41992202435E+02 -0.14371596194E+02  0.44525756683E+02  0.00000000000E+00 0. -1.
          1    1    1    2  502    0 -0.76619734653E+02 -0.10058465170E+02  0.78042973738E+03  0.78424634614E+03  0.00000000000E+00 0. -1.
         22    1    3    3    0    0  0.17836500010E+02  0.34313124882E+02  0.35621789612E+02  0.52577972260E+02  0.00000000000E+00 0. -1.
         22    1    3    3    0    0  0.62340644608E+02 -0.66246862148E+02  0.35695659177E+03  0.36836532291E+03  0.00000000000E+00 0. -1.
</event>
<event>
 7    1  0.4915160E-006  0.1558384E+03  0.7818608E-02  0.1275752E+00
          2   -1    0    0  502    0  0.00000000000E+00  0.00000000000E+00  0.93726325757E+03  0.93726325757E+03  0.00000000000E+00 0. -1.
          1   -1    0    0  501    0 -0.00000000000E+00 -0.00000000000E+00 -0.25355824802E+03  0.25355824802E+03  0.00000000000E+00 0. -1.
         25    2    1    2    0    0 -0.69071649508E+02 -0.15950826287E+03  0.12055763863E+03  0.24570792680E+03  0.12499784947E+03 0.  0.
          2    1    1    2  501    0 -0.42472352461E+02  0.51835535614E+02 -0.17681309981E+03  0.18908647688E+03  0.00000000000E+00 0. -1.
          1    1    1    2  502    0  0.11154400197E+03  0.10767272726E+03  0.73996047073E+03  0.75602710190E+03  0.00000000000E+00 0. -1.
         22    1    3    3    0    0 -0.44694301824E+02 -0.14929467231E+02 -0.11367093629E+02  0.48473502296E+02  0.00000000000E+00 0.  1.
         22    1    3    3    0    0 -0.24377347684E+02 -0.14457879564E+03  0.13192473226E+03  0.19723442451E+03  0.00000000000E+00 0.  1.
</event>
<event>
 7    1  0.4915160E-006  0.1574330E+03  0.7818608E-02  0.1347350E+00
          2   -1    0    0  502    0  0.00000000000E+00  0.00000000000E+00  0.12822421003E+04  0.12822421003E+04  0.00000000000E+00 0. -1.
          1   -1    0    0  501    0 -0.00000000000E+00 -0.00000000000E+00 -0.12949607814E+03  0.12949607814E+03  0.00000000000E+00 0. -1.
         25    2    1    2    0    0 -0.10053894491E+03 -0.11741196964E+03  0.26274092436E+03  0.32947099524E+03  0.12499877325E+03 0.  0.
          2    1    1    2  501    0  0.74421802419E+02  0.14022505860E+03 -0.30041049140E+02  0.16156774545E+03  0.00000000000E+00 0. -1.
          1    1    1    2  502    0  0.26117142491E+02 -0.22813088967E+02  0.92004614690E+03  0.92069943770E+03  0.00000000000E+00 0. -1.
         22    1    3    3    0    0 -0.10380656494E+03 -0.13728911122E+03  0.25549933861E+03  0.30806495259E+03  0.00000000000E+00 0.  1.
         22    1    3    3    0    0  0.32676200272E+01  0.19877141579E+02  0.72415857504E+01  0.21406042656E+02  0.00000000000E+00 0.  1.
</event>
<event>
 7    1  0.4915160E-006  0.1041508E+03  0.7818608E-02  0.1295698E+00
          2   -1    0    0  502    0  0.00000000000E+00  0.00000000000E+00  0.90876458624E+03  0.90876458624E+03  0.00000000000E+00 0. -1.
          1   -1    0    0  501    0 -0.00000000000E+00 -0.00000000000E+00 -0.25529769926E+03  0.25529769926E+03  0.00000000000E+00 0. -1.
         25    2    1    2    0    0 -0.33662610656E+02 -0.13629951373E+03  0.76373530411E+02  0.20289581170E+03  0.12499226160E+03 0.  0.
          2    1    1    2  501    0 -0.45461120419E+02  0.69537157893E+02 -0.17935737400E+03  0.19766435542E+03  0.00000000000E+00 0. -1.
          1    1    1    2  502    0  0.79123731075E+02  0.66762355836E+02  0.75645073057E+03  0.76350211837E+03  0.00000000000E+00 0. -1.
         22    1    3    3    0    0 -0.69018362521E+02 -0.13611768477E+03  0.62255242494E+02  0.16482497897E+03  0.00000000000E+00 0.  1.
         22    1    3    3    0    0  0.35355751864E+02 -0.18182895452E+00  0.14118287917E+02  0.38070832738E+02  0.00000000000E+00 0.  1.
</event>
<event>
 7    1  0.4915160E-006  0.5645242E+02  0.7818608E-02  0.1426478E+00
          2   -1    0    0  502    0  0.00000000000E+00  0.00000000000E+00  0.73890514740E+03  0.73890514740E+03  0.00000000000E+00 0. -1.
          1   -1    0    0  501    0 -0.00000000000E+00 -0.00000000000E+00 -0.11040864452E+03  0.11040864452E+03  0.00000000000E+00 0. -1.
         25    2    1    2    0    0 -0.52909021467E+02 -0.19600281901E+02  0.26443584658E+02  0.13967237760E+03  0.12500229714E+03 0.  0.
          2    1    1    2  501    0  0.37044320648E+02 -0.35098617971E+02 -0.40141093839E+02  0.64926898049E+02  0.00000000000E+00 0. -1.
          1    1    1    2  502    0  0.15864700820E+02  0.54698899872E+02  0.64219401206E+03  0.64471451628E+03  0.00000000000E+00 0. -1.
         22    1    3    3    0    0 -0.73608362105E+02  0.27755477745E+02  0.36982500376E+02  0.86926767171E+02  0.00000000000E+00 0. -1.
         22    1    3    3    0    0  0.20699340638E+02 -0.47355759647E+02 -0.10538915718E+02  0.52745610425E+02  0.00000000000E+00 0. -1.
</event>
<event>
 7    1  0.4915160E-006  0.1431186E+03  0.7818608E-02  0.1239021E+00
          2   -1    0    0  502    0  0.00000000000E+00  0.00000000000E+00  0.81252455410E+02  0.81252455410E+02  0.00000000000E+00 0. -1.
          1   -1    0    0  501    0 -0.00000000000E+00 -0.00000000000E+00 -0.24672820340E+04  0.24672820340E+04  0.00000000000E+00 0. -1.
         25    2    1    2    0    0 -0.22012199922E+03  0.10123059506E+03 -0.28672716413E+03  0.39564952901E+03  0.12499902097E+03 0.  0.
          2    1    1    2  501    0  0.13092804156E+03 -0.46093962922E+02 -0.20110367735E+04  0.20158213487E+04  0.00000000000E+00 0. -1.
          1    1    1    2  502    0  0.89193957659E+02 -0.55136632136E+02 -0.88265641030E+02  0.13706361177E+03  0.00000000000E+00 0. -1.
         22    1    3    3    0    0  0.38108032101E+01 -0.17408654393E+02 -0.30136330645E+02  0.35011168127E+02  0.00000000000E+00 0.  1.
         22    1    3    3    0    0 -0.22393280243E+03  0.11863924945E+03 -0.25659083348E+03  0.36063836088E+03  0.00000000000E+00 0.  1.
</event>
<event>
 7    1  0.4915160E-006  0.5745884E+02  0.7818608E-02  0.1417803E+00
          2   -1    0    0  502    0  0.00000000000E+00  0.00000000000E+00  0.18573476507E+04  0.18573476507E+04  0.00000000000E+00 0. -1.
          1   -1    0    0  501    0 -0.00000000000E+00 -0.00000000000E+00 -0.14485780666E+02  0.14485780666E+02  0.00000000000E+00 0. -1.
         25    2    1    2    0    0 -0.12059746387E+02  0.27946771314E+02  0.98578138454E+03  0.99414096030E+03  0.12499940528E+03 0.  0.
          2    1    1    2  501    0 -0.53560276135E+02 -0.16445163715E+01  0.73661388039E+02  0.91090107594E+02  0.00000000000E+00 0. -1.
          1    1    1    2  502    0  0.65620022522E+02 -0.26302254942E+02  0.78341909749E+03  0.78660236351E+03  0.00000000000E+00 0. -1.
         22    1    3    3    0    0  0.42777882831E+02  0.47320847102E+02  0.67153138980E+03  0.67455438426E+03  0.00000000000E+00 0. -1.
         22    1    3    3    0    0 -0.54837629218E+02 -0.19374075788E+02  0.31424999474E+03  0.31958657604E+03  0.00000000000E+00 0. -1.
</event>
<event>
 7    1  0.4915160E-006  0.5077413E+02  0.7818608E-02  0.1568039E+00
          2   -1    0    0  502    0  0.00000000000E+00  0.00000000000E+00  0.10774148628E+03  0.10774148628E+03  0.00000000000E+00 0. -1.
          1   -1    0    0  501    0 -0.00000000000E+00 -0.00000000000E+00 -0.90861029000E+03  0.90861029000E+03  0.00000000000E+00 0. -1.
         25    2    1    2    0    0  0.25111770665E+02 -0.66141670259E+02 -0.31246072335E+03  0.34390706964E+03  0.12504018291E+03 0.  0.
          2    1    1    2  501    0 -0.18050061591E+02  0.46021199317E+02 -0.57812187288E+03  0.58023155328E+03  0.00000000000E+00 0. -1.
          1    1    1    2  502    0 -0.70617090739E+01  0.20120470943E+02  0.89713792512E+02  0.92213153361E+02  0.00000000000E+00 0. -1.
         22    1    3    3    0    0  0.40415495193E+02 -0.39513238234E+02 -0.30767501262E+03  0.31282362704E+03  0.00000000000E+00 0.  1.
         22    1    3    3    0    0 -0.15303724529E+02 -0.26628432026E+02 -0.47857107346E+01  0.31083442599E+02  0.00000000000E+00 0.  1.
</event>
<event>
 7    1  0.4915160E-006  0.1173096E+03  0.7818608E-02  0.1334963E+00
          2   -1    0    0  502    0  0.00000000000E+00  0.00000000000E+00  0.10691687995E+04  0.10691687995E+04  0.00000000000E+00 0. -1.
          1   -1    0    0  501    0 -0.00000000000E+00 -0.00000000000E+00 -0.27264363686E+03  0.27264363686E+03  0.00000000000E+00 0. -1.
         25    2    1    2    0    0  0.13285314050E+03  0.96840856619E+02  0.21105336303E+03  0.29529211600E+03  0.12500321307E+03 0.  0.
          2    1    1    2  501    0 -0.38803259842E+02 -0.34315525747E+02 -0.22364198779E+03  0.22956259928E+03  0.00000000000E+00 0. -1.
          1    1    1    2  502    0 -0.94049880658E+02 -0.62525330871E+02  0.80911378737E+03  0.81695772103E+03  0.00000000000E+00 0. -1.
         22    1    3    3    0    0  0.10971142188E+03  0.90340096296E+02  0.82123798635E+02  0.16414093759E+03  0.00000000000E+00 0. -1.
         22    1    3    3    0    0  0.23141718621E+02  0.65007603232E+01  0.12892956439E+03  0.13115117842E+03  0.00000000000E+00 0. -1.
</event>
<event>
 7    1  0.4915160E-006  0.7592629E+02  0.7818608E-02  0.1370893E+00
          2   -1    0    0  502    0  0.00000000000E+00  0.00000000000E+00  0.30388154780E+03  0.30388154780E+03  0.00000000000E+00 0. -1.
          1   -1    0    0  501    0 -0.00000000000E+00 -0.00000000000E+00 -0.23169817367E+03  0.23169817367E+03  0.00000000000E+00 0. -1.
         25    2    1    2    0    0 -0.10115370384E+03 -0.27274224372E+02 -0.90279969647E+02  0.18642278282E+03  0.12500810341E+03 0.  0.
          2    1    1    2  501    0  0.67662539757E+02 -0.21275843420E+02 -0.75736411204E+02  0.10376360047E+03  0.00000000000E+00 0. -1.
          1    1    1    2  502    0  0.33491164087E+02  0.48550067792E+02  0.23819975498E+03  0.24539333819E+03  0.00000000000E+00 0. -1.
         22    1    3    3    0    0 -0.85269867802E+02 -0.10937538650E+02  0.72432525543E+01  0.86273082791E+02  0.00000000000E+00 0. -1.
         22    1    3    3    0    0 -0.15883836042E+02 -0.16336685722E+02 -0.97523222201E+02  0.10014970003E+03  0.00000000000E+00 0. -1.
</event>
<event>
 7    1  0.4915160E-006  0.1178099E+03  0.7818608E-02  0.1269830E+00
          2   -1    0    0  502    0  0.00000000000E+00  0.00000000000E+00  0.12527379008E+04  0.12527379008E+04  0.00000000000E+00 0. -1.
          1   -1    0    0  501    0 -0.00000000000E+00 -0.00000000000E+00 -0.33051023606E+03  0.33051023606E+03  0.00000000000E+00 0. -1.
         25    2    1    2    0    0  0.91813163083E+02 -0.10433843703E+03 -0.22011276869E+02  0.18821919435E+03  0.12500320978E+03 0.  0.
          2    1    1    2  501    0 -0.11852063214E+03  0.14373761421E+02 -0.20754182771E+03  0.23943131690E+03  0.00000000000E+00 0. -1.
          1    1    1    2  502    0  0.26707469062E+02  0.89964675606E+02  0.11517807694E+04  0.11555976257E+04  0.00000000000E+00 0. -1.
         22    1    3    3    0    0  0.41428854426E+02 -0.75746564169E+02 -0.71444427156E+02  0.11206336660E+03  0.00000000000E+00 0. -1.
         22    1    3    3    0    0  0.50384308657E+02 -0.28591872858E+02  0.49433150287E+02  0.76155827746E+02  0.00000000000E+00 0. -1.
</event>
<event>
 7    1  0.5184808E-006  0.1739711E+03  0.7818608E-02  0.1371041E+00
          2   -1    0    0  502    0  0.00000000000E+00  0.00000000000E+00  0.12507899092E+04  0.12507899092E+04  0.00000000000E+00 0. -1.
          1   -1    0    0  501    0 -0.00000000000E+00 -0.00000000000E+00 -0.14747101066E+04  0.14747101066E+04  0.00000000000E+00 0. -1.
         25    2    1    2    0    0 -0.34645993952E+02  0.15653687802E+03 -0.27560571010E+03  0.34247208485E+03  0.12499792952E+03 0.  0.
          2    1    1    2  501    0 -0.24638934619E+02  0.73423792327E+01 -0.11592908526E+04  0.11595759003E+04  0.00000000000E+00 0. -1.
          1    1    1    2  502    0  0.59284928571E+02 -0.16387925725E+03  0.12109763653E+04  0.12234520306E+04  0.00000000000E+00 0. -1.
         22    1    3    3    0    0 -0.12542257978E+02  0.10118713506E+03 -0.58967526402E+02  0.11778503176E+03  0.00000000000E+00 0.  1.
         22    1    3    3    0    0 -0.22103735974E+02  0.55349742958E+02 -0.21663818369E+03  0.22468705308E+03  0.00000000000E+00 0.  1.
</event>
<event>
 7    1  0.4915160E-006  0.7850001E+02  0.7818608E-02  0.1343874E+00
          2   -1    0    0  502    0  0.00000000000E+00  0.00000000000E+00  0.17387529341E+04  0.17387529341E+04  0.00000000000E+00 0. -1.
          1   -1    0    0  501    0 -0.00000000000E+00 -0.00000000000E+00 -0.68782221515E+02  0.68782221515E+02  0.00000000000E+00 0. -1.
         25    2    1    2    0    0  0.14439583344E+03  0.70579845138E+01  0.38191640461E+03  0.42706630278E+03  0.12500205996E+03 0.  0.
          2    1    1    2  501    0 -0.70945828304E+02  0.10051423740E+02 -0.16669075626E+02  0.73567654273E+02  0.00000000000E+00 0. -1.
          1    1    1    2  502    0 -0.73450005134E+02 -0.17109408254E+02  0.13047233836E+04  0.13069011986E+04  0.00000000000E+00 0. -1.
         22    1    3    3    0    0  0.29782058260E+02 -0.43425434264E+01  0.21003466632E+01  0.30170186173E+02  0.00000000000E+00 0. -1.
         22    1    3    3    0    0  0.11461377518E+03  0.11400527940E+02  0.37981605795E+03  0.39689611660E+03  0.00000000000E+00 0. -1.
</event>
<event>
 7    1  0.4915160E-006  0.1082890E+03  0.7818608E-02  0.1285408E+00
          2   -1    0    0  502    0  0.00000000000E+00  0.00000000000E+00  0.20893997231E+04  0.20893997231E+04  0.00000000000E+00 0. -1.
          1   -1    0    0  501    0 -0.00000000000E+00 -0.00000000000E+00 -0.19393239344E+03  0.19393239344E+03  0.00000000000E+00 0. -1.
         25    2    1    2    0    0 -0.20428919594E+01 -0.32760950334E+02  0.21974279949E+03  0.25493217204E+03  0.12500424450E+03 0.  0.
          2    1    1    2  501    0 -0.54282054805E+02 -0.69239317648E+02 -0.16340394194E+03  0.18558413947E+03  0.00000000000E+00 0. -1.
          1    1    1    2  502    0  0.56324946764E+02  0.10200026798E+03  0.18391284721E+04  0.18428158050E+04  0.00000000000E+00 0. -1.
         22    1    3    3    0    0  0.53706304721E+02 -0.63070992837E+01  0.16059852646E+03  0.16945805785E+03  0.00000000000E+00 0. -1.
         22    1    3    3    0    0 -0.55749196680E+02 -0.26453851050E+02  0.59144273026E+02  0.85474114197E+02  0.00000000000E+00 0. -1.
</event>
<event>
 7    1  0.6525002E-006  0.1203566E+03  0.7818608E-02  0.1352495E+00
          2   -1    0    0  502    0  0.00000000000E+00  0.00000000000E+00  0.12874888213E+04  0.12874888213E+04  0.00000000000E+00 0. -1.
          1   -1    0    0  501    0 -0.00000000000E+00 -0.00000000000E+00 -0.11700934852E+04  0.11700934852E+04  0.00000000000E+00 0. -1.
         25    2    1    2    0    0  0.15371855463E+03  0.52379393684E+02 -0.88581227145E+03  0.90920772474E+03  0.12498924578E+03 0.  0.
          2    1    1    2  501    0 -0.37371236124E+02 -0.22091129310E+02 -0.26800056815E+03  0.27149388909E+03  0.00000000000E+00 0. -1.
          1    1    1    2  502    0 -0.11634731850E+03 -0.30288264374E+02  0.12712081757E+04  0.12768806927E+04  0.00000000000E+00 0. -1.
         22    1    3    3    0    0  0.75936871485E+02 -0.21937228923E+02 -0.57273336389E+03  0.57816187748E+03  0.00000000000E+00 0. -1.
         22    1    3    3    0    0  0.77781683143E+02  0.74316622607E+02 -0.31307890756E+03  0.33104584726E+03  0.00000000000E+00 0. -1.
</event>
<event>
 7    1  0.4915160E-006  0.4814893E+02  0.7818608E-02  0.1546473E+00
          2   -1    0    0  502    0  0.00000000000E+00  0.00000000000E+00  0.68632263211E+03  0.68632263211E+03  0.00000000000E+00 0. -1.
          1   -1    0    0  501    0 -0.00000000000E+00 -0.00000000000E+00 -0.17133036417E+04  0.17133036417E+04  0.00000000000E+00 0. -1.
         25    2    1    2    0    0  0.17175041178E+02 -0.15016912887E+02 -0.32214820541E+02  0.13108457153E+03  0.12499952207E+03 0.  0.
          2    1    1    2  501    0  0.21988695896E+02 -0.13482595587E+02 -0.16306309144E+04  0.16308348972E+04  0.00000000000E+00 0. -1.
          1    1    1    2  502    0 -0.39163737074E+02  0.28499508474E+02  0.63586472533E+03  0.63770680505E+03  0.00000000000E+00 0. -1.
         22    1    3    3    0    0  0.48788804182E+02 -0.47214873569E+02 -0.48144751559E+02  0.83231657452E+02  0.00000000000E+00 0. -1.
         22    1    3    3    0    0 -0.31613763004E+02  0.32197960682E+02  0.15929931018E+02  0.47852914076E+02  0.00000000000E+00 0. -1.
</event>
<event>
 7    1  0.4915160E-006  0.4823211E+02  0.7818608E-02  0.1472035E+00
          2   -1    0    0  502    0  0.00000000000E+00  0.00000000000E+00  0.11145429548E+04  0.11145429548E+04  0.00000000000E+00 0. -1.
          1   -1    0    0  501    0 -0.00000000000E+00 -0.00000000000E+00 -0.11892586763E+04  0.11892586763E+04  0.00000000000E+00 0. -1.
         25    2    1    2    0    0  0.43843990481E+02 -0.54955209997E+02  0.38389716057E+03  0.40981000726E+03  0.12499936620E+03 0.  0.
          2    1    1    2  501    0  0.21923519570E+01  0.42624532607E+02 -0.11751231909E+04  0.11758980274E+04  0.00000000000E+00 0. -1.
          1    1    1    2  502    0 -0.46036342438E+02  0.12330677391E+02  0.71651030886E+03  0.71809359636E+03  0.00000000000E+00 0. -1.
         22    1    3    3    0    0 -0.43069557432E+02 -0.31403828441E+02  0.13696540646E+03  0.14697179929E+03  0.00000000000E+00 0.  1.
         22    1    3    3    0    0  0.86913547914E+02 -0.23551381557E+02  0.24693175411E+03  0.26283820797E+03  0.00000000000E+00 0.  1.
</event>
<event>
 7    1  0.4915160E-006  0.2841422E+02  0.7818608E-02  0.1643995E+00
          2   -1    0    0  502    0  0.00000000000E+00  0.00000000000E+00  0.66864714654E+03  0.66864714654E+03  0.00000000000E+00 0. -1.
          1   -1    0    0  501    0 -0.00000000000E+00 -0.00000000000E+00 -0.84942456293E+03  0.84942456293E+03  0.00000000000E+00 0. -1.
         25    2    1    2    0    0 -0.25672072562E+02 -0.59988852445E+01  0.15852962324E+03  0.20359843569E+03  0.12500255853E+03 0.  0.
          2    1    1    2  501    0  0.33728994033E+01  0.23969700063E+02 -0.82629222167E+03  0.82664669513E+03  0.00000000000E+00 0. -1.
          1    1    1    2  502    0  0.22299173159E+02 -0.17970814819E+02  0.48698518204E+03  0.48782657865E+03  0.00000000000E+00 0. -1.
         22    1    3    3    0    0  0.46368346032E+02  0.13650458587E+01  0.27603701616E+02  0.53980100101E+02  0.00000000000E+00 0. -1.
         22    1    3    3    0    0 -0.72040418594E+02 -0.73639311032E+01  0.13092592162E+03  0.14961833559E+03  0.00000000000E+00 0. -1.
</event>
<event>
 7    1  0.4915160E-006  0.8984185E+02  0.7818608E-02  0.1340825E+00
          2   -1    0    0  502    0  0.00000000000E+00  0.00000000000E+00  0.35341841819E+03  0.35341841819E+03  0.00000000000E+00 0. -1.
          1   -1    0    0  501    0 -0.00000000000E+00 -0.00000000000E+00 -0.69381603564E+03  0.69381603564E+03  0.00000000000E+00 0. -1.
         25    2    1    2    0    0 -0.36291880585E+02  0.16231651009E+02  0.66151147780E+02  0.14690482218E+03  0.12499794133E+03 0.  0.
          2    1    1    2  501    0  0.89387789824E+02  0.19996773593E+02 -0.64596909210E+03  0.65243092805E+03  0.00000000000E+00 0. -1.
          1    1    1    2  502    0 -0.53095909239E+02 -0.36228424601E+02  0.23942032687E+03  0.24789870360E+03  0.00000000000E+00 0. -1.
         22    1    3    3    0    0 -0.13213573881E+02  0.25475138871E+02 -0.33550772064E+02  0.44150147693E+02  0.00000000000E+00 0. -1.
         22    1    3    3    0    0 -0.23078306704E+02 -0.92434878624E+01  0.99701919844E+02  0.10275467449E+03  0.00000000000E+00 0. -1.
</event>
<event>
 7    1  0.4915160E-006  0.1440390E+03  0.7818608E-02  0.1361555E+00
          2   -1    0    0  502    0  0.00000000000E+00  0.00000000000E+00  0.17300275502E+04  0.17300275502E+04  0.00000000000E+00 0. -1.
          1   -1    0    0  501    0 -0.00000000000E+00 -0.00000000000E+00 -0.13502973268E+04  0.13502973268E+04  0.00000000000E+00 0. -1.
         25    2    1    2    0    0 -0.30367681625E+02 -0.14942206075E+03  0.40689248523E+03  0.45214561498E+03  0.12500005714E+03 0.  0.
          2    1    1    2  501    0  0.58766480773E+02  0.13145783006E+03 -0.13235480676E+04  0.13313580088E+04  0.00000000000E+00 0. -1.
          1    1    1    2  502    0 -0.28398799148E+02  0.17964230688E+02  0.12963858057E+04  0.12968212532E+04  0.00000000000E+00 0. -1.
         22    1    3    3    0    0 -0.22060225764E+01  0.11691874534E+02 -0.17136227059E+01  0.12020938753E+02  0.00000000000E+00 0.  1.
         22    1    3    3    0    0 -0.28161659049E+02 -0.16111393529E+03  0.40860610794E+03  0.44012467623E+03  0.00000000000E+00 0.  1.
</event>
<event>
 7    1  0.4915160E-006  0.8596441E+02  0.7818608E-02  0.1424178E+00
          2   -1    0    0  502    0  0.00000000000E+00  0.00000000000E+00  0.20098579211E+04  0.20098579211E+04  0.00000000000E+00 0. -1.
          1   -1    0    0  501    0 -0.00000000000E+00 -0.00000000000E+00 -0.55747460098E+02  0.55747460098E+02  0.00000000000E+00 0. -1.
         25    2    1    2    0    0  0.10965432443E+03  0.28974577317E+02  0.82788563672E+03  0.84491773097E+03  0.12501099003E+03 0.  0.
          2    1    1    2  501    0 -0.84594481986E+02 -0.58405265321E+01 -0.87086171923E+01  0.85241880236E+02  0.00000000000E+00 0. -1.
          1    1    1    2  502    0 -0.25059842441E+02 -0.23134050785E+02  0.11349334415E+04  0.11354457700E+04  0.00000000000E+00 0. -1.
         22    1    3    3    0    0  0.65467516337E+02 -0.37213210920E+02  0.23645190367E+03  0.24815382631E+03  0.00000000000E+00 0. -1.
         22    1    3    3    0    0  0.44186808091E+02  0.66187788237E+02  0.59143373305E+03  0.59676390467E+03  0.00000000000E+00 0. -1.
</event>
<event>
 7    1  0.4915160E-006  0.1118086E+03  0.7818608E-02  0.1347846E+00
          2   -1    0    0  502    0  0.00000000000E+00  0.00000000000E+00  0.39857989216E+03  0.39857989216E+03  0.00000000000E+00 0. -1.
          1   -1    0    0  501    0 -0.00000000000E+00 -0.00000000000E+00 -0.10975420430E+04  0.10975420430E+04  0.00000000000E+00 0. -1.
         25    2    1    2    0    0  0.36716951312E+02  0.82934466750E+02 -0.90365550191E+03  0.91675799861E+03  0.12500280638E+03 0.  0.
          2    1    1    2  501    0  0.47731732318E+02 -0.92573054414E+01 -0.17596085364E+03  0.18255475339E+03  0.00000000000E+00 0. -1.
          1    1    1    2  502    0 -0.84448683630E+02 -0.73677161309E+02  0.38065420471E+03  0.39680918314E+03  0.00000000000E+00 0. -1.
         22    1    3    3    0    0 -0.13189040289E+02 -0.28988005664E+02 -0.19587098121E+03  0.19844318214E+03  0.00000000000E+00 0.  1.
         22    1    3    3    0    0  0.49905991601E+02  0.11192247241E+03 -0.70778452070E+03  0.71831481648E+03  0.00000000000E+00 0.  1.
</event>
<event>
 7    1  0.4915160E-006  0.6338701E+02  0.7818608E-02  0.1453931E+00
          2   -1    0    0  502    0  0.00000000000E+00  0.00000000000E+00  0.24486311288E+03  0.24486311288E+03  0.00000000000E+00 0. -1.
          1   -1    0    0  501    0 -0.00000000000E+00 -0.00000000000E+00 -0.32511051483E+03  0.32511051483E+03  0.00000000000E+00 0. -1.
         25    2    1    2    0    0 -0.82400111152E+02  0.47597262001E+01 -0.28921103941E+02  0.15255851252E+03  0.12500094470E+03 0.  0.
          2    1    1    2  501    0  0.24197903265E+02 -0.28017526790E+02 -0.22746463033E+03  0.23045754138E+03  0.00000000000E+00 0. -1.
          1    1    1    2  502    0  0.58202207887E+02  0.23257800590E+02  0.17613833232E+03  0.18695757381E+03  0.00000000000E+00 0. -1.
         22    1    3    3    0    0 -0.32035275910E+02 -0.58606512607E+02 -0.25656705884E+02  0.71548925774E+02  0.00000000000E+00 0.  1.
         22    1    3    3    0    0 -0.50364835242E+02  0.63366238807E+02 -0.32643980572E+01  0.81009586743E+02  0.00000000000E+00 0.  1.
</event>
<event>
 7    1  0.4915160E-006  0.5607408E+02  0.7818608E-02  0.1496266E+00
          2   -1    0    0  502    0  0.00000000000E+00  0.00000000000E+00  0.24477620116E+03  0.24477620116E+03  0.00000000000E+00 0. -1.
          1   -1    0    0  501    0 -0.00000000000E+00 -0.00000000000E+00 -0.25324924603E+03  0.25324924603E+03  0.00000000000E+00 0. -1.
         25    2    1    2    0    0  0.23310246692E+02 -0.15672125897E+02 -0.20108969545E+02  0.12968579302E+03  0.12500020449E+03 0.  0.
          2    1    1    2  501    0  0.16437719908E+02 -0.26244025670E+02 -0.17255052097E+03  0.17530724402E+03  0.00000000000E+00 0. -1.
          1    1    1    2  502    0 -0.39747966600E+02  0.41916151567E+02  0.18418644564E+03  0.19303241015E+03  0.00000000000E+00 0. -1.
         22    1    3    3    0    0  0.46760463137E+02 -0.15492969489E+02  0.41089750837E+02  0.64147803082E+02  0.00000000000E+00 0.  1.
         22    1    3    3    0    0 -0.23450216446E+02 -0.17915640811E+00 -0.61198720382E+02  0.65537989935E+02  0.00000000000E+00 0.  1.
</event>
<event>
 7    1  0.4915160E-006  0.6340454E+02  0.7818608E-02  0.1518607E+00
          2   -1    0    0  502    0  0.00000000000E+00  0.00000000000E+00  0.63705299875E+03  0.63705299875E+03  0.00000000000E+00 0. -1.
          1   -1    0    0  501    0 -0.00000000000E+00 -0.00000000000E+00 -0.39576968713E+03  0.39576968713E+03  0.00000000000E+00 0. -1.
         25    2    1    2    0    0  0.62822507014E+01  0.42735937441E+02  0.18706505973E+03  0.22909555781E+03  0.12500244404E+03 0.  0.
          2    1    1    2  501    0 -0.44070582515E+01  0.23109038075E+02 -0.37185176546E+03  0.37259520297E+03  0.00000000000E+00 0. -1.
          1    1    1    2  502    0 -0.18751924499E+01 -0.65844975516E+02  0.42607001736E+03  0.43113192510E+03  0.00000000000E+00 0. -1.
         22    1    3    3    0    0 -0.53479037197E+02  0.47799144811E+02  0.91387950471E+02  0.11617453747E+03  0.00000000000E+00 0.  1.
         22    1    3    3    0    0  0.59761287898E+02 -0.50632073696E+01  0.95677109256E+02  0.11292102034E+03  0.00000000000E+00 0.  1.
</event>
<event>
 7    1  0.4915160E-006  0.6124128E+02  0.7818608E-02  0.1404492E+00
          2   -1    0    0  502    0  0.00000000000E+00  0.00000000000E+00  0.17983413039E+03  0.17983413039E+03  0.00000000000E+00 0. -1.
          1   -1    0    0  501    0 -0.00000000000E+00 -0.00000000000E+00 -0.39574740056E+03  0.39574740056E+03  0.00000000000E+00 0. -1.
         25    2    1    2    0    0  0.75422058110E+02 -0.48069214028E+02  0.16234524732E+02  0.15455642402E+03  0.12499996890E+03 0.  0.
          2    1    1    2  501    0 -0.55208992082E+02 -0.78840271835E+01 -0.31451410313E+03  0.31942027450E+03  0.00000000000E+00 0. -1.
          1    1    1    2  502    0 -0.20213066028E+02  0.55953241212E+02  0.82366308239E+02  0.10160483243E+03  0.00000000000E+00 0. -1.
         22    1    3    3    0    0 -0.19947255344E+02 -0.33866414008E+02  0.39122269478E+02  0.55456099417E+02  0.00000000000E+00 0. -1.
         22    1    3    3    0    0  0.95369313454E+02 -0.14202800020E+02 -0.22887744746E+02  0.99100324604E+02  0.00000000000E+00 0. -1.
</event>
<event>
 7    1  0.4915160E-006  0.7657809E+02  0.7818608E-02  0.1404401E+00
          2   -1    0    0  502    0  0.00000000000E+00  0.00000000000E+00  0.11904258547E+03  0.11904258547E+03  0.00000000000E+00 0. -1.
          1   -1    0    0  501    0 -0.00000000000E+00 -0.00000000000E+00 -0.75184896131E+03  0.75184896131E+03  0.00000000000E+00 0. -1.
         25    2    1    2    0    0  0.27555926198E+02  0.22454007097E+02 -0.34793058036E+03  0.37140839156E+03  0.12499997228E+03 0.  0.
          2    1    1    2  501    0  0.19286326000E+02  0.40249944513E+02 -0.37641097754E+03  0.37904781284E+03  0.00000000000E+00 0. -1.
          1    1    1    2  502    0 -0.46842252198E+02 -0.62703951610E+02  0.91535182061E+02  0.12043534238E+03  0.00000000000E+00 0. -1.
         22    1    3    3    0    0 -0.38026570417E+02  0.26032146850E+02 -0.57728395780E+02  0.73866503955E+02  0.00000000000E+00 0. -1.
         22    1    3    3    0    0  0.65582496614E+02 -0.35781397531E+01 -0.29020218458E+03  0.29754188761E+03  0.00000000000E+00 0. -1.
</event>
<event>
 7    1  0.4915160E-006  0.2015586E+03  0.7818608E-02  0.1266680E+00
          2   -1    0    0  502    0  0.00000000000E+00  0.00000000000E+00  0.25716706751E+04  0.25716706751E+04  0.00000000000E+00 0. -1.
          1   -1    0    0  501    0 -0.00000000000E+00 -0.00000000000E+00 -0.80445157367E+03  0.80445157367E+03  0.00000000000E+00 0. -1.
         25    2    1    2    0    0 -0.18767452784E+03 -0.34279252143E+02  0.59163458994E+03  0.63407669102E+03  0.12499986624E+03 0.  0.
          2    1    1    2  501    0  0.29671081223E+01 -0.56475415925E+02 -0.77679425919E+03  0.77885017651E+03  0.00000000000E+00 0. -1.
          1    1    1    2  502    0  0.18470741972E+03  0.90754668068E+02  0.19523787707E+04  0.19631953812E+04  0.00000000000E+00 0. -1.
         22    1    3    3    0    0 -0.19829256544E+03 -0.47989941030E+02  0.48688706588E+03  0.52790339161E+03  0.00000000000E+00 0.  1.
         22    1    3    3    0    0  0.10618037603E+02  0.13710688887E+02  0.10474752406E+03  0.10617329941E+03  0.00000000000E+00 0.  1.
</event>
<event>
 7    1  0.4915160E-006  0.1953060E+03  0.7818608E-02  0.1206838E+00
          2   -1    0    0  502    0  0.00000000000E+00  0.00000000000E+00  0.12278785527E+04  0.12278785527E+04  0.00000000000E+00 0. -1.
          1   -1    0    0  501    0 -0.00000000000E+00 -0.00000000000E+00 -0.38229720605E+03  0.38229720605E+03  0.00000000000E+00 0. -1.
         25    2    1    2    0    0  0.43108733899E+02 -0.16432726208E+03  0.39116936917E+03  0.44441018233E+03  0.12500049111E+03 0.  0.
          2    1    1    2  501    0  0.10733795222E+03  0.68430268710E+01 -0.33239883921E+03  0.34936692933E+03  0.00000000000E+00 0. -1.
          1    1    1    2  502    0 -0.15044668611E+03  0.15748423521E+03  0.78681081667E+03  0.81639864706E+03  0.00000000000E+00 0. -1.
         22    1    3    3    0    0 -0.21095292095E+02  0.53619482216E+01  0.14018591167E+02  0.25889819149E+02  0.00000000000E+00 0. -1.
         22    1    3    3    0    0  0.64204025993E+02 -0.16968921030E+03  0.37715077801E+03  0.41852036318E+03  0.00000000000E+00 0. -1.
</event>
<event>
 7    1  0.4915160E-006  0.5475194E+02  0.7818608E-02  0.1456075E+00
          2   -1    0    0  502    0  0.00000000000E+00  0.00000000000E+00  0.10206238547E+04  0.10206238547E+04  0.00000000000E+00 0. -1.
          1   -1    0    0  501    0 -0.00000000000E+00 -0.00000000000E+00 -0.14759487848E+02  0.14759487848E+02  0.00000000000E+00 0. -1.
         25    2    1    2    0    0 -0.46315923972E+02 -0.44508758647E+02  0.54813798387E+03  0.56586729120E+03  0.12499738987E+03 0.  0.
          2    1    1    2  501    0  0.40923412571E+02 -0.10269066620E+02  0.28834858103E+03  0.29141908587E+03  0.00000000000E+00 0. -1.
          1    1    1    2  502    0  0.53925114011E+01  0.54777825267E+02  0.16937780194E+03  0.17809696547E+03  0.00000000000E+00 0. -1.
         22    1    3    3    0    0 -0.72164976963E+02  0.85841961903E+01  0.20082425347E+03  0.21356931687E+03  0.00000000000E+00 0.  1.
         22    1    3    3    0    0  0.25849052991E+02 -0.53092954837E+02  0.34731373040E+03  0.35229797433E+03  0.00000000000E+00 0.  1.
</event>
<event>
 7    1  0.4915160E-006  0.5568644E+02  0.7818608E-02  0.1553388E+00
          2   -1    0    0  502    0  0.00000000000E+00  0.00000000000E+00  0.71740162172E+03  0.71740162172E+03  0.00000000000E+00 0. -1.
          1   -1    0    0  501    0 -0.00000000000E+00 -0.00000000000E+00 -0.76535295009E+02  0.76535295009E+02  0.00000000000E+00 0. -1.
         25    2    1    2    0    0 -0.34219403648E+02 -0.66235694724E+02  0.17188551591E+03  0.22522532407E+03  0.12499472462E+03 0.  0.
          2    1    1    2  501    0  0.19704153029E+02  0.50602453190E+02 -0.34788305712E+02  0.64490992625E+02  0.00000000000E+00 0. -1.
          1    1    1    2  502    0  0.14515250619E+02  0.15633241533E+02  0.50376911652E+03  0.50422060003E+03  0.00000000000E+00 0. -1.
         22    1    3    3    0    0 -0.50653990896E+02 -0.20190014476E+02  0.91342347239E+01  0.55289218861E+02  0.00000000000E+00 0.  1.
         22    1    3    3    0    0  0.16434587248E+02 -0.46045680247E+02  0.16275128118E+03  0.16993610521E+03  0.00000000000E+00 0.  1.
</event>
<event>
 7    1  0.4915160E-006  0.1931942E+03  0.7818608E-02  0.1370740E+00
          2   -1    0    0  502    0  0.00000000000E+00  0.00000000000E+00  0.30299719535E+03  0.30299719535E+03  0.00000000000E+00 0. -1.
          1   -1    0    0  501    0 -0.00000000000E+00 -0.00000000000E+00 -0.11393640368E+04  0.11393640368E+04  0.00000000000E+00 0. -1.
         25    2    1    2    0    0  0.58950679592E+02  0.20552128875E+03 -0.75578134394E+02  0.25894441598E+03  0.12500389360E+03 0.  0.
          2    1    1    2  501    0 -0.48372921933E+02 -0.18486265029E+03 -0.96203886826E+03  0.98083277020E+03  0.00000000000E+00 0. -1.
          1    1    1    2  502    0 -0.10577757659E+02 -0.20658638454E+02  0.20125016120E+03  0.20258404598E+03  0.00000000000E+00 0. -1.
         22    1    3    3    0    0 -0.79213677386E+00  0.17289596456E+03 -0.80452678517E+02  0.19069943766E+03  0.00000000000E+00 0.  1.
         22    1    3    3    0    0  0.59742816366E+02  0.32625324184E+02  0.48745441225E+01  0.68244978320E+02  0.00000000000E+00 0.  1.
</event>
<event>
 7    1  0.4915160E-006  0.9372521E+02  0.7818608E-02  0.1466741E+00
          2   -1    0    0  502    0  0.00000000000E+00  0.00000000000E+00  0.11302515379E+03  0.11302515379E+03  0.00000000000E+00 0. -1.
          1   -1    0    0  501    0 -0.00000000000E+00 -0.00000000000E+00 -0.61861501189E+03  0.61861501189E+03  0.00000000000E+00 0. -1.
         25    2    1    2    0    0 -0.56489856647E+02  0.91790977469E+02 -0.32390061350E+03  0.36353679861E+03  0.12502283420E+03 0.  0.
          2    1    1    2  501    0  0.36360281803E+02 -0.81054826816E+02 -0.26616621712E+03  0.28060008941E+03  0.00000000000E+00 0. -1.
          1    1    1    2  502    0  0.20129574844E+02 -0.10736150653E+02  0.84476972516E+02  0.87503277651E+02  0.00000000000E+00 0. -1.
         22    1    3    3    0    0 -0.59186516708E+02 -0.38709390858E+01 -0.67491234224E+02  0.89850401371E+02  0.00000000000E+00 0. -1.
         22    1    3    3    0    0  0.26966600608E+01  0.95661916555E+02 -0.25640937928E+03  0.27368639724E+03  0.00000000000E+00 0. -1.
</event>
<event>
 7    1  0.4915160E-006  0.8104755E+02  0.7818608E-02  0.1384607E+00
          2   -1    0    0  502    0  0.00000000000E+00  0.00000000000E+00  0.13768602700E+03  0.13768602700E+03  0.00000000000E+00 0. -1.
          1   -1    0    0  501    0 -0.00000000000E+00 -0.00000000000E+00 -0.73907375883E+03  0.73907375883E+03  0.00000000000E+00 0. -1.
         25    2    1    2    0    0  0.50682071541E+02 -0.48828601763E+02 -0.14033887151E+03  0.20068007966E+03  0.12499836315E+03 0.  0.
          2    1    1    2  501    0  0.31858494845E+02  0.37740070957E+02 -0.55116503582E+03  0.55337344837E+03  0.00000000000E+00 0. -1.
          1    1    1    2  502    0 -0.82540566386E+02  0.11088530806E+02  0.90116175501E+02  0.12270625779E+03  0.00000000000E+00 0. -1.
         22    1    3    3    0    0  0.86626216947E+02 -0.51430248265E+01 -0.81316531640E+02  0.11892405343E+03  0.00000000000E+00 0. -1.
         22    1    3    3    0    0 -0.35944145406E+02 -0.43685576936E+02 -0.59022339872E+02  0.81756026232E+02  0.00000000000E+00 0. -1.
</event>
<event>
 7    1  0.4915160E-006  0.2314801E+03  0.7818608E-02  0.1282825E+00
          2   -1    0    0  502    0  0.00000000000E+00  0.00000000000E+00  0.27636648226E+04  0.27636648226E+04  0.00000000000E+00 0. -1.
          1   -1    0    0  501    0 -0.00000000000E+00 -0.00000000000E+00 -0.24486164544E+04  0.24486164544E+04  0.00000000000E+00 0. -1.
         25    2    1    2    0    0  0.26769446948E+03  0.10576094835E+01 -0.32984244853E+03  0.44281225457E+03  0.12500081766E+03 0.  0.
          2    1    1    2  501    0 -0.37554092234E+02  0.19195444352E+02 -0.20571435596E+04  0.20575758552E+04  0.00000000000E+00 0. -1.
          1    1    1    2  502    0 -0.23014037725E+03 -0.20253053835E+02  0.27020343763E+04  0.27118931672E+04  0.00000000000E+00 0. -1.
         22    1    3    3    0    0  0.51278084469E+02 -0.28365047361E+02 -0.14603234422E+03  0.15735140106E+03  0.00000000000E+00 0.  1.
         22    1    3    3    0    0  0.21641638501E+03  0.29422656844E+02 -0.18381010431E+03  0.28546085350E+03  0.00000000000E+00 0.  1.
</event>
<event>
 7    1  0.4915160E-006  0.2188283E+03  0.7818608E-02  0.1230866E+00
          2   -1    0    0  502    0  0.00000000000E+00  0.00000000000E+00  0.39369002425E+03  0.39369002425E+03  0.00000000000E+00 0. -1.
          1   -1    0    0  501    0 -0.00000000000E+00 -0.00000000000E+00 -0.85964051837E+03  0.85964051837E+03  0.00000000000E+00 0. -1.
         25    2    1    2    0    0  0.17257622077E+03 -0.21326598406E+03 -0.29807100728E+03  0.42395295312E+03  0.12499939658E+03 0.  0.
          2    1    1    2  501    0 -0.11763771226E+03  0.16286714569E+03 -0.47372972632E+03  0.51457185318E+03  0.00000000000E+00 0. -1.
          1    1    1    2  502    0 -0.54938508513E+02  0.50398838369E+02  0.30585023947E+03  0.31480573631E+03  0.00000000000E+00 0. -1.
         22    1    3    3    0    0  0.40779099787E+02 -0.87875477099E+01 -0.10626752206E+03  0.11416191230E+03  0.00000000000E+00 0.  1.
         22    1    3    3    0    0  0.13179712098E+03 -0.20447843635E+03 -0.19180348522E+03  0.30979104082E+03  0.00000000000E+00 0.  1.
</event>
<event>
 7    1  0.4915160E-006  0.9109188E+02  0.7818608E-02  0.1333048E+00
          2   -1    0    0  502    0  0.00000000000E+00  0.00000000000E+00  0.13759792763E+03  0.13759792763E+03  0.00000000000E+00 0. -1.
          1   -1    0    0  501    0 -0.00000000000E+00 -0.00000000000E+00 -0.20186094116E+04  0.20186094116E+04  0.00000000000E+00 0. -1.
         25    2    1    2    0    0  0.48130334290E+02  0.14078971473E+02 -0.14058280911E+04  0.14122649712E+04  0.12499992283E+03 0.  0.
          2    1    1    2  501    0 -0.62760441470E+01  0.67544725269E+02 -0.59174224898E+03  0.59561780352E+03  0.00000000000E+00 0. -1.
          1    1    1    2  502    0 -0.41854290143E+02 -0.81623696742E+02  0.11655885614E+03  0.14832456445E+03  0.00000000000E+00 0. -1.
         22    1    3    3    0    0  0.16028278812E+01  0.58931775727E+02 -0.95626026376E+03  0.95807578786E+03  0.00000000000E+00 0.  1.
         22    1    3    3    0    0  0.46527506408E+02 -0.44852804255E+02 -0.44956782736E+03  0.45418918338E+03  0.00000000000E+00 0.  1.
</event>
<event>
 7    1  0.4915160E-006  0.6392378E+02  0.7818608E-02  0.1416543E+00
          2   -1    0    0  502    0  0.00000000000E+00  0.00000000000E+00  0.25707055674E+03  0.25707055674E+03  0.00000000000E+00 0. -1.
          1   -1    0    0  501    0 -0.00000000000E+00 -0.00000000000E+00 -0.13878966672E+04  0.13878966672E+04  0.00000000000E+00 0. -1.
         25    2    1    2    0    0  0.40226116720E+02 -0.72561303744E+02 -0.76623536351E+03  0.78078233048E+03  0.12498452717E+03 0.  0.
          2    1    1    2  501    0  0.17593426092E+02  0.45343743007E+02 -0.60931564073E+03  0.61125373922E+03  0.00000000000E+00 0. -1.
          1    1    1    2  502    0 -0.57819542812E+02  0.27217560737E+02  0.24472489379E+03  0.25293115424E+03  0.00000000000E+00 0. -1.
         22    1    3    3    0    0  0.67273665196E+02 -0.93022890332E+02 -0.63108029734E+03  0.64143693832E+03  0.00000000000E+00 0. -1.
         22    1    3    3    0    0 -0.27047548477E+02  0.20461586588E+02 -0.13515506617E+03  0.13934539216E+03  0.00000000000E+00 0. -1.
</event>
<event>
 7    1  0.4915160E-006  0.6993202E+02  0.7818608E-02  0.1434469E+00
          2   -1    0    0  502    0  0.00000000000E+00  0.00000000000E+00  0.24435677609E+03  0.24435677609E+03  0.00000000000E+00 0. -1.
          1   -1    0    0  501    0 -0.00000000000E+00 -0.00000000000E+00 -0.11335077366E+04  0.11335077366E+04  0.00000000000E+00 0. -1.
         25    2    1    2    0    0 -0.83882262246E+02 -0.51217771070E+02 -0.79107177572E+03  0.80689492264E+03  0.12500147138E+03 0.  0.
          2    1    1    2  501    0  0.48073585558E+02  0.36343342642E+02 -0.33018878954E+03  0.33564347889E+03  0.00000000000E+00 0. -1.
          1    1    1    2  502    0  0.35808676689E+02  0.14874428428E+02  0.23210960478E+03  0.23532611113E+03  0.00000000000E+00 0. -1.
         22    1    3    3    0    0 -0.71889420403E+01  0.26681113521E+02 -0.44637171212E+02  0.52497997678E+02  0.00000000000E+00 0. -1.
         22    1    3    3    0    0 -0.76693320206E+02 -0.77898884591E+02 -0.74643460451E+03  0.75439692496E+03  0.00000000000E+00 0. -1.
</event>
<event>
 7    1  0.4915160E-006  0.4901400E+02  0.7818608E-02  0.1511684E+00
          2   -1    0    0  502    0  0.00000000000E+00  0.00000000000E+00  0.69770006198E+03  0.69770006198E+03  0.00000000000E+00 0. -1.
          1   -1    0    0  501    0 -0.00000000000E+00 -0.00000000000E+00 -0.62732966571E+02  0.62732966571E+02  0.00000000000E+00 0. -1.
         25    2    1    2    0    0  0.47245851621E+02 -0.14822185612E+02  0.61193172464E+02  0.14770598685E+03  0.12498234481E+03 0.  0.
          2    1    1    2  501    0 -0.19059914152E+02 -0.25560209864E+02 -0.46403540467E+01  0.32220141860E+02  0.00000000000E+00 0. -1.
          1    1    1    2  502    0 -0.28185937469E+02  0.40382395476E+02  0.57841427699E+03  0.58050689984E+03  0.00000000000E+00 0. -1.
         22    1    3    3    0    0 -0.13527295136E+02  0.35797903663E+02  0.56802379345E+02  0.68490787115E+02  0.00000000000E+00 0. -1.
         22    1    3    3    0    0  0.60773146758E+02 -0.50620089275E+02  0.43907931198E+01  0.79215199736E+02  0.00000000000E+00 0. -1.
</event>
<event>
 7    1  0.4915160E-006  0.1061867E+03  0.7818608E-02  0.1273216E+00
          2   -1    0    0  502    0  0.00000000000E+00  0.00000000000E+00  0.13827595530E+03  0.13827595530E+03  0.00000000000E+00 0. -1.
          1   -1    0    0  501    0 -0.00000000000E+00 -0.00000000000E+00 -0.27516720751E+04  0.27516720751E+04  0.00000000000E+00 0. -1.
         25    2    1    2    0    0 -0.65104692130E+02  0.92736554846E+02 -0.48756370745E+02  0.17561977555E+03  0.12500572920E+03 0.  0.
          2    1    1    2  501    0 -0.51305091278E+02 -0.86733628141E+02 -0.25925185036E+04  0.25944762721E+04  0.00000000000E+00 0. -1.
          1    1    1    2  502    0  0.11640978341E+03 -0.60029267048E+01  0.27878754636E+02  0.11985198272E+03  0.00000000000E+00 0. -1.
         22    1    3    3    0    0 -0.76050773958E+02  0.91116727588E+01  0.30241223605E+01  0.76654341795E+02  0.00000000000E+00 0. -1.
         22    1    3    3    0    0  0.10946081828E+02  0.83624882087E+02 -0.51780493106E+02  0.98965433752E+02  0.00000000000E+00 0. -1.
</event>
<event>
 7    1  0.4915160E-006  0.8185116E+02  0.7818608E-02  0.1425523E+00
          2   -1    0    0  502    0  0.00000000000E+00  0.00000000000E+00  0.51047405491E+03  0.51047405491E+03  0.00000000000E+00 0. -1.
          1   -1    0    0  501    0 -0.00000000000E+00 -0.00000000000E+00 -0.12094685927E+04  0.12094685927E+04  0.00000000000E+00 0. -1.
         25    2    1    2    0    0 -0.10592992500E+02  0.10213975258E+03  0.26524540653E+03  0.31068307697E+03  0.12499643228E+03 0.  0.
          2    1    1    2  501    0 -0.17440930515E+02 -0.30866695724E+02 -0.11798851560E+04  0.11804176889E+04  0.00000000000E+00 0. -1.
          1    1    1    2  502    0  0.28033923015E+02 -0.71273056857E+02  0.21564521172E+03  0.22884188168E+03  0.00000000000E+00 0. -1.
         22    1    3    3    0    0  0.11185195112E+02 -0.22464635341E+02  0.12466206300E+02  0.28020969473E+02  0.00000000000E+00 0.  1.
         22    1    3    3    0    0 -0.21778187612E+02  0.12460438792E+03  0.25277920023E+03  0.28266210750E+03  0.00000000000E+00 0.  1.
</event>
<event>
 7    1  0.4915160E-006  0.7297602E+02  0.7818608E-02  0.1366542E+00
          2   -1    0    0  502    0  0.00000000000E+00  0.00000000000E+00  0.46768179031E+03  0.46768179031E+03  0.00000000000E+00 0. -1.
          1   -1    0    0  501    0 -0.00000000000E+00 -0.00000000000E+00 -0.12918917557E+04  0.12918917557E+04  0.00000000000E+00 0. -1.
         25    2    1    2    0    0 -0.97206104182E+02  0.12907981916E+02 -0.55292706368E+02  0.16822290896E+03  0.12500408407E+03 0.  0.
          2    1    1    2  501    0  0.35971892780E+02 -0.52474904477E+02 -0.11760360066E+04  0.11777556120E+04  0.00000000000E+00 0. -1.
          1    1    1    2  502    0  0.61234211403E+02  0.39566922561E+02  0.40711874767E+03  0.41359502501E+03  0.00000000000E+00 0. -1.
         22    1    3    3    0    0 -0.87201347385E+02 -0.11597526678E+02  0.18441741182E+02  0.89881452083E+02  0.00000000000E+00 0. -1.
         22    1    3    3    0    0 -0.10004756798E+02  0.24505508594E+02 -0.73734447549E+02  0.78341456876E+02  0.00000000000E+00 0. -1.
</event>
<event>
 7    1  0.4915160E-006  0.3569536E+02  0.7818608E-02  0.1551792E+00
          2   -1    0    0  502    0  0.00000000000E+00  0.00000000000E+00  0.63203801566E+03  0.63203801566E+03  0.00000000000E+00 0. -1.
          1   -1    0    0  501    0 -0.00000000000E+00 -0.00000000000E+00 -0.22589849426E+03  0.22589849426E+03  0.00000000000E+00 0. -1.
         25    2    1    2    0    0 -0.37837493627E+01 -0.64507287415E+02 -0.24642284211E+02  0.14285530670E+03  0.12499955837E+03 0.  0.
          2    1    1    2  501    0  0.13105829267E+02  0.32203346204E+02 -0.13952119182E+03  0.14378797320E+03  0.00000000000E+00 0. -1.
          1    1    1    2  502    0 -0.93220799040E+01  0.32303941211E+02  0.57030299743E+03  0.57129323002E+03  0.00000000000E+00 0. -1.
         22    1    3    3    0    0  0.28848448271E+02 -0.61526255370E+02  0.33767957204E+02  0.75881407481E+02  0.00000000000E+00 0.  1.
         22    1    3    3    0    0 -0.32632197634E+02 -0.29810320447E+01 -0.58410241415E+02  0.66973899219E+02  0.00000000000E+00 0.  1.
</event>
<event>
 7    1  0.4915160E-006  0.1451444E+03  0.7818608E-02  0.1237956E+00
          2   -1    0    0  502    0  0.00000000000E+00  0.00000000000E+00  0.84156960471E+03  0.84156960471E+03  0.00000000000E+00 0. -1.
          1   -1    0    0  501    0 -0.00000000000E+00 -0.00000000000E+00 -0.33787074278E+03  0.33787074278E+03  0.00000000000E+00 0. -1.
         25    2    1    2    0    0 -0.41631708937E+02 -0.54431204359E+02  0.18872043202E+03  0.23651012261E+03  0.12500272574E+03 0.  0.
          2    1    1    2  501    0  0.65251396920E+01  0.15288294876E+03 -0.29058436546E+03  0.32841292136E+03  0.00000000000E+00 0. -1.
          1    1    1    2  502    0  0.35106569245E+02 -0.98451744401E+02  0.60556279537E+03  0.61451730352E+03  0.00000000000E+00 0. -1.
         22    1    3    3    0    0 -0.11913970890E+02 -0.68588095218E+01 -0.17809843950E+02  0.22498366873E+02  0.00000000000E+00 0. -1.
         22    1    3    3    0    0 -0.29717738047E+02 -0.47572394837E+02  0.20653027597E+03  0.21401175574E+03  0.00000000000E+00 0. -1.
</event>
<event>
 7    1  0.4915160E-006  0.6258400E+02  0.7818608E-02  0.1506525E+00
          2   -1    0    0  502    0  0.00000000000E+00  0.00000000000E+00  0.17408432610E+03  0.17408432610E+03  0.00000000000E+00 0. -1.
          1   -1    0    0  501    0 -0.00000000000E+00 -0.00000000000E+00 -0.15376264416E+04  0.15376264416E+04  0.00000000000E+00 0. -1.
         25    2    1    2    0    0  0.44112849041E+02  0.26480212915E+02  0.66919109438E+02  0.15083908777E+03  0.12500847197E+03 0.  0.
          2    1    1    2  501    0 -0.31106751397E+00  0.25858815346E+02 -0.14776633902E+04  0.14778896677E+04  0.00000000000E+00 0. -1.
          1    1    1    2  502    0 -0.43801781527E+02 -0.52339028261E+02  0.47202165292E+02  0.82982012223E+02  0.00000000000E+00 0. -1.
         22    1    3    3    0    0 -0.31401302119E+02  0.47010006528E+02  0.22417894825E+02  0.60815659964E+02  0.00000000000E+00 0.  1.
         22    1    3    3    0    0  0.75514151160E+02 -0.20529793613E+02  0.44501214613E+02  0.90023427802E+02  0.00000000000E+00 0.  1.
</event>
<event>
 7    1  0.4915160E-006  0.2518054E+03  0.7818608E-02  0.1300446E+00
          2   -1    0    0  502    0  0.00000000000E+00  0.00000000000E+00  0.30418419308E+03  0.30418419308E+03  0.00000000000E+00 0. -1.
          1   -1    0    0  501    0 -0.00000000000E+00 -0.00000000000E+00 -0.16056338630E+04  0.16056338630E+04  0.00000000000E+00 0. -1.
         25    2    1    2    0    0  0.27133122839E+03  0.43702853126E+02 -0.68372896419E+03  0.74742266794E+03  0.12499909286E+03 0.  0.
          2    1    1    2  501    0 -0.28597438532E+02  0.16240299799E+02 -0.83227926763E+03  0.83292877256E+03  0.00000000000E+00 0. -1.
          1    1    1    2  502    0 -0.24273378985E+03 -0.59943152925E+02  0.21455856187E+03  0.32946661560E+03  0.00000000000E+00 0. -1.
         22    1    3    3    0    0  0.26349158899E+03  0.67091222967E+02 -0.65705633503E+03  0.71109217199E+03  0.00000000000E+00 0. -1.
         22    1    3    3    0    0  0.78396393954E+01 -0.23388369842E+02 -0.26672629160E+02  0.36330495950E+02  0.00000000000E+00 0. -1.
</event>
<event>
 7    1  0.4915160E-006  0.1554120E+03  0.7818608E-02  0.1360119E+00
          2   -1    0    0  502    0  0.00000000000E+00  0.00000000000E+00  0.29927344705E+04  0.29927344705E+04  0.00000000000E+00 0. -1.
          1   -1    0    0  501    0 -0.00000000000E+00 -0.00000000000E+00 -0.27491989196E+03  0.27491989196E+03  0.00000000000E+00 0. -1.
         25    2    1    2    0    0 -0.13355737803E+03 -0.12928828321E+03  0.69162799563E+03  0.72699893678E+03  0.12500054534E+03 0.  0.
          2    1    1    2  501    0  0.10977049459E+03  0.10860410670E+03 -0.23394079349E+03  0.28030823807E+03  0.00000000000E+00 0. -1.
          1    1    1    2  502    0  0.23786883442E+02  0.20684176511E+02  0.22601273764E+04  0.22603471876E+04  0.00000000000E+00 0. -1.
         22    1    3    3    0    0 -0.14726852410E+03 -0.91141381194E+02  0.62891433279E+03  0.65232507812E+03  0.00000000000E+00 0. -1.
         22    1    3    3    0    0  0.13711146071E+02 -0.38146902012E+02  0.62713662840E+02  0.74673858655E+02  0.00000000000E+00 0. -1.
</event>
<event>
 7    1  0.4915160E-006  0.1660049E+03  0.7818608E-02  0.1347295E+00
          2   -1    0    0  502    0  0.00000000000E+00  0.00000000000E+00  0.11904724393E+04  0.11904724393E+04  0.00000000000E+00 0. -1.
          1   -1    0    0  501    0 -0.00000000000E+00 -0.00000000000E+00 -0.88746712403E+03  0.88746712403E+03  0.00000000000E+00 0. -1.
         25    2    1    2    0    0  0.19484299181E+03  0.35738770336E+02  0.45432969400E+03  0.51115999098E+03  0.12501205688E+03 0.  0.
          2    1    1    2  501    0 -0.16342673737E+03 -0.25961150162E+02 -0.85069286473E+03  0.86663754240E+03  0.00000000000E+00 0. -1.
          1    1    1    2  502    0 -0.31416254446E+02 -0.97776201734E+01  0.69936848598E+03  0.70014202994E+03  0.00000000000E+00 0. -1.
         22    1    3    3    0    0  0.16475423157E+03  0.60670972923E+02  0.43162428514E+03  0.46596614394E+03  0.00000000000E+00 0. -1.
         22    1    3    3    0    0  0.30088760241E+02 -0.24932202588E+02  0.22705408861E+02  0.45193847040E+02  0.00000000000E+00 0. -1.
</event>
<event>
 7    1  0.4915160E-006  0.8885076E+02  0.7818608E-02  0.1338716E+00
          2   -1    0    0  502    0  0.00000000000E+00  0.00000000000E+00  0.21548790634E+04  0.21548790634E+04  0.00000000000E+00 0. -1.
          1   -1    0    0  501    0 -0.00000000000E+00 -0.00000000000E+00 -0.90444934702E+03  0.90444934702E+03  0.00000000000E+00 0. -1.
         25    2    1    2    0    0  0.88743051970E+02  0.41876622292E+02  0.25470135939E+03  0.30021144716E+03  0.12500059905E+03 0.  0.
          2    1    1    2  501    0 -0.35710286133E+02 -0.81488495930E+02 -0.87886423166E+03  0.88335606479E+03  0.00000000000E+00 0. -1.
          1    1    1    2  502    0 -0.53032765837E+02  0.39611873638E+02  0.18745925886E+04  0.18757608984E+04  0.00000000000E+00 0. -1.
         22    1    3    3    0    0 -0.95916158632E+01  0.16833290217E+02  0.16078045105E+03  0.16194354632E+03  0.00000000000E+00 0.  1.
         22    1    3    3    0    0  0.98334667833E+02  0.25043332075E+02  0.93920908336E+02  0.13826790084E+03  0.00000000000E+00 0.  1.
</event>
<event>
 7    1  0.4915160E-006  0.6321869E+02  0.7818608E-02  0.1506218E+00
          2   -1    0    0  502    0  0.00000000000E+00  0.00000000000E+00  0.30729833489E+03  0.30729833489E+03  0.00000000000E+00 0. -1.
          1   -1    0    0  501    0 -0.00000000000E+00 -0.00000000000E+00 -0.21691420399E+03  0.21691420399E+03  0.00000000000E+00 0. -1.
         25    2    1    2    0    0  0.15597395697E+01 -0.53246976400E+02 -0.68829856891E+02  0.15231697587E+03  0.12500095462E+03 0.  0.
          2    1    1    2  501    0 -0.25951469613E+02  0.61196922580E+02 -0.95244713977E+02  0.11614687963E+03  0.00000000000E+00 0. -1.
          1    1    1    2  502    0  0.24391730043E+02 -0.79499461802E+01  0.25445870177E+03  0.25574868337E+03  0.00000000000E+00 0. -1.
         22    1    3    3    0    0 -0.93331708115E+01 -0.76052486896E+02 -0.90813745273E+02  0.11882013790E+03  0.00000000000E+00 0.  1.
         22    1    3    3    0    0  0.10892910381E+02  0.22805510496E+02  0.21983888382E+02  0.33496837969E+02  0.00000000000E+00 0.  1.
</event>
<event>
 7    1  0.4915160E-006  0.8018433E+02  0.7818608E-02  0.1468464E+00
          2   -1    0    0  502    0  0.00000000000E+00  0.00000000000E+00  0.10704588920E+04  0.10704588920E+04  0.00000000000E+00 0. -1.
          1   -1    0    0  501    0 -0.00000000000E+00 -0.00000000000E+00 -0.12926832113E+04  0.12926832113E+04  0.00000000000E+00 0. -1.
         25    2    1    2    0    0 -0.13935134436E+02 -0.10460193348E+03 -0.52722825201E+02  0.17187641959E+03  0.12500421935E+03 0.  0.
          2    1    1    2  501    0  0.64283928253E+01  0.79356317467E+02 -0.11788690901E+04  0.11815545189E+04  0.00000000000E+00 0. -1.
          1    1    1    2  502    0  0.75067416110E+01  0.25245616011E+02  0.10093675961E+04  0.10097111648E+04  0.00000000000E+00 0. -1.
         22    1    3    3    0    0  0.41895273939E+02 -0.61175768542E+02  0.13054643309E+02  0.75286867029E+02  0.00000000000E+00 0.  1.
         22    1    3    3    0    0 -0.55830408375E+02 -0.43426164935E+02 -0.65777468510E+02  0.96589552561E+02  0.00000000000E+00 0.  1.
</event>
<event>
 7    1  0.4915160E-006  0.6761689E+02  0.7818608E-02  0.1434039E+00
          2   -1    0    0  502    0  0.00000000000E+00  0.00000000000E+00  0.31916146986E+04  0.31916146986E+04  0.00000000000E+00 0. -1.
          1   -1    0    0  501    0 -0.00000000000E+00 -0.00000000000E+00 -0.48403299748E+03  0.48403299748E+03  0.00000000000E+00 0. -1.
         25    2    1    2    0    0  0.19679985851E+02 -0.47479565095E+02  0.58572450550E+03  0.60111466586E+03  0.12499613683E+03 0.  0.
          2    1    1    2  501    0  0.16156444580E+02  0.65767680904E+02 -0.47377410750E+03  0.47858993250E+03  0.00000000000E+00 0. -1.
          1    1    1    2  502    0 -0.35836430431E+02 -0.18288115809E+02  0.25956313032E+04  0.25959430978E+04  0.00000000000E+00 0. -1.
         22    1    3    3    0    0  0.41557537999E+02 -0.79596679504E+02  0.31263816121E+03  0.32527723590E+03  0.00000000000E+00 0. -1.
         22    1    3    3    0    0 -0.21877552148E+02  0.32117114409E+02  0.27308634429E+03  0.27583742995E+03  0.00000000000E+00 0. -1.
</event>
<event>
 7    1  0.4915160E-006  0.5868189E+02  0.7818608E-02  0.1418589E+00
          2   -1    0    0  502    0  0.00000000000E+00  0.00000000000E+00  0.99627416804E+03  0.99627416804E+03  0.00000000000E+00 0. -1.
          1   -1    0    0  501    0 -0.00000000000E+00 -0.00000000000E+00 -0.17255655057E+03  0.17255655057E+03  0.00000000000E+00 0. -1.
         25    2    1    2    0    0 -0.12059940017E+01  0.79301062839E+02  0.38256267875E+03  0.41020984090E+03  0.12501118915E+03 0.  0.
          2    1    1    2  501    0 -0.37809416341E+02 -0.35919960591E+02 -0.15298150962E+03  0.16162653810E+03  0.00000000000E+00 0. -1.
          1    1    1    2  502    0  0.39015410343E+02 -0.43381102248E+02  0.59413644834E+03  0.59699433961E+03  0.00000000000E+00 0. -1.
         22    1    3    3    0    0  0.40605538437E+02  0.17115900649E+02  0.39887527517E+02  0.59437182455E+02  0.00000000000E+00 0.  1.
         22    1    3    3    0    0 -0.41811532439E+02  0.62185162190E+02  0.34267515123E+03  0.35077265844E+03  0.00000000000E+00 0.  1.
</event>
<event>
 7    1  0.4915160E-006  0.8868490E+02  0.7818608E-02  0.1315596E+00
          2   -1    0    0  502    0  0.00000000000E+00  0.00000000000E+00  0.80392189969E+03  0.80392189969E+03  0.00000000000E+00 0. -1.
          1   -1    0    0  501    0 -0.00000000000E+00 -0.00000000000E+00 -0.93242602103E+02  0.93242602103E+02  0.00000000000E+00 0. -1.
         25    2    1    2    0    0 -0.54730490452E+02  0.10220544634E+03  0.27303018202E+03  0.32188796790E+03  0.12500001496E+03 0.  0.
          2    1    1    2  501    0  0.84848073348E+02 -0.26637806529E+02 -0.35079344716E+02  0.95599836366E+02  0.00000000000E+00 0. -1.
          1    1    1    2  502    0 -0.30117582896E+02 -0.75567639809E+02  0.47272846028E+03  0.47967669752E+03  0.00000000000E+00 0. -1.
         22    1    3    3    0    0 -0.41451565092E+02  0.11312111982E+03  0.12776388941E+03  0.17560817587E+03  0.00000000000E+00 0.  1.
         22    1    3    3    0    0 -0.13278925360E+02 -0.10915673481E+02  0.14526629261E+03  0.14627979203E+03  0.00000000000E+00 0.  1.
</event>
<event>
 7    1  0.4915160E-006  0.4007657E+02  0.7818608E-02  0.1545694E+00
          2   -1    0    0  502    0  0.00000000000E+00  0.00000000000E+00  0.10962107372E+03  0.10962107372E+03  0.00000000000E+00 0. -1.
          1   -1    0    0  501    0 -0.00000000000E+00 -0.00000000000E+00 -0.74818938577E+03  0.74818938577E+03  0.00000000000E+00 0. -1.
         25    2    1    2    0    0  0.26522898157E+02  0.57550000674E+02 -0.10897851862E+03  0.17753247707E+03  0.12500398470E+03 0.  0.
          2    1    1    2  501    0 -0.99069105467E+00 -0.39714800629E+02 -0.60103134365E+03  0.60234286159E+03  0.00000000000E+00 0. -1.
          1    1    1    2  502    0 -0.25532207102E+02 -0.17835200045E+02  0.71441550226E+02  0.77935120830E+02  0.00000000000E+00 0. -1.
         22    1    3    3    0    0  0.60595908785E+02  0.56950260703E+02 -0.24892720632E+02  0.86803478595E+02  0.00000000000E+00 0. -1.
         22    1    3    3    0    0 -0.34073010628E+02  0.59973997111E+00 -0.84085797992E+02  0.90728998480E+02  0.00000000000E+00 0. -1.
</event>
<event>
 7    1  0.4915160E-006  0.2315696E+03  0.7818608E-02  0.1255882E+00
          2   -1    0    0  502    0  0.00000000000E+00  0.00000000000E+00  0.98793975145E+03  0.98793975145E+03  0.00000000000E+00 0. -1.
          1   -1    0    0  501    0 -0.00000000000E+00 -0.00000000000E+00 -0.44866450679E+03  0.44866450679E+03  0.00000000000E+00 0. -1.
         25    2    1    2    0    0  0.26605946042E+03  0.44089488857E+02  0.16123111470E+03  0.33816039745E+03  0.12500185018E+03 0.  0.
          2    1    1    2  501    0 -0.41700247708E+02 -0.35436136217E+02 -0.34089550260E+03  0.34525986460E+03  0.00000000000E+00 0. -1.
          1    1    1    2  502    0 -0.22435921271E+03 -0.86533526404E+01  0.71893963256E+03  0.75318399619E+03  0.00000000000E+00 0. -1.
         22    1    3    3    0    0  0.21971347488E+03  0.24311571734E+02  0.17930029899E+03  0.28462898795E+03  0.00000000000E+00 0. -1.
         22    1    3    3    0    0  0.46345985541E+02  0.19777917123E+02 -0.18069184296E+02  0.53531409496E+02  0.00000000000E+00 0. -1.
</event>
<event>
 7    1  0.4915160E-006  0.5933932E+02  0.7818608E-02  0.1434523E+00
          2   -1    0    0  502    0  0.00000000000E+00  0.00000000000E+00  0.12971888390E+03  0.12971888390E+03  0.00000000000E+00 0. -1.
          1   -1    0    0  501    0 -0.00000000000E+00 -0.00000000000E+00 -0.11215838755E+04  0.11215838755E+04  0.00000000000E+00 0. -1.
         25    2    1    2    0    0 -0.23180694676E+02 -0.49683996471E+02 -0.12439386165E+03  0.18467657130E+03  0.12500303621E+03 0.  0.
          2    1    1    2  501    0  0.56940592429E+02  0.18914283282E+02 -0.96082478968E+03  0.96269634758E+03  0.00000000000E+00 0. -1.
          1    1    1    2  502    0 -0.33759897754E+02  0.30769713189E+02  0.93353659777E+02  0.10392984047E+03  0.00000000000E+00 0. -1.
         22    1    3    3    0    0  0.29302459147E+02 -0.39459204394E+02 -0.12157314151E+03  0.13113234407E+03  0.00000000000E+00 0. -1.
         22    1    3    3    0    0 -0.52483153823E+02 -0.10224792077E+02 -0.28207201384E+01  0.53544227236E+02  0.00000000000E+00 0. -1.
</event>
<event>
 7    1  0.4915160E-006  0.5957015E+02  0.7818608E-02  0.1402707E+00
          2   -1    0    0  502    0  0.00000000000E+00  0.00000000000E+00  0.59231177133E+03  0.59231177133E+03  0.00000000000E+00 0. -1.
          1   -1    0    0  501    0 -0.00000000000E+00 -0.00000000000E+00 -0.13521714133E+03  0.13521714133E+03  0.00000000000E+00 0. -1.
         25    2    1    2    0    0  0.29936819006E+02  0.93269795050E+02  0.11514773708E+03  0.19616294825E+03  0.12500173243E+03 0.  0.
          2    1    1    2  501    0 -0.44978613250E+02 -0.36848811985E+02 -0.83599488020E+02  0.10183214125E+03  0.00000000000E+00 0. -1.
          1    1    1    2  502    0  0.15041794244E+02 -0.56420983065E+02  0.42554638094E+03  0.42953382316E+03  0.00000000000E+00 0. -1.
         22    1    3    3    0    0 -0.42108647696E+02  0.32332062189E+02  0.78859894688E+02  0.95065153691E+02  0.00000000000E+00 0.  1.
         22    1    3    3    0    0  0.72045466701E+02  0.60937732861E+02  0.36287842390E+02  0.10109779455E+03  0.00000000000E+00 0.  1.
</event>
<event>
 7    1  0.4915160E-006  0.6167746E+02  0.7818608E-02  0.1410060E+00
          2   -1    0    0  502    0  0.00000000000E+00  0.00000000000E+00  0.36800836205E+03  0.36800836205E+03  0.00000000000E+00 0. -1.
          1   -1    0    0  501    0 -0.00000000000E+00 -0.00000000000E+00 -0.18982446774E+04  0.18982446774E+04  0.00000000000E+00 0. -1.
         25    2    1    2    0    0  0.11049410676E+03  0.27022981335E+02 -0.11830868921E+03  0.20630329381E+03  0.12499965578E+03 0.  0.
          2    1    1    2  501    0 -0.51755669132E+02 -0.11469831263E+02 -0.17326809925E+04  0.17334917444E+04  0.00000000000E+00 0. -1.
          1    1    1    2  502    0 -0.58738437626E+02 -0.15553150072E+02  0.32075336634E+03  0.32645800120E+03  0.00000000000E+00 0. -1.
         22    1    3    3    0    0  0.27167158945E+02  0.61056950760E+02 -0.89698550775E+02  0.11185631753E+03  0.00000000000E+00 0.  1.
         22    1    3    3    0    0  0.83326947813E+02 -0.34033969424E+02 -0.28610138437E+02  0.94446976277E+02  0.00000000000E+00 0.  1.
</event>
<event>
 7    1  0.4915160E-006  0.1806241E+03  0.7818608E-02  0.1243073E+00
          2   -1    0    0  502    0  0.00000000000E+00  0.00000000000E+00  0.28779081068E+04  0.28779081068E+04  0.00000000000E+00 0. -1.
          1   -1    0    0  501    0 -0.00000000000E+00 -0.00000000000E+00 -0.52535683439E+03  0.52535683439E+03  0.00000000000E+00 0. -1.
         25    2    1    2    0    0  0.20986649116E+03  0.86370865707E+01  0.85077583927E+02  0.25878025891E+03  0.12494192146E+03 0.  0.
          2    1    1    2  501    0 -0.16868903683E+03  0.59651362104E+02 -0.41963743984E+03  0.45619059291E+03  0.00000000000E+00 0. -1.
          1    1    1    2  502    0 -0.41177454328E+02 -0.68288448674E+02  0.26871111283E+04  0.26882940893E+04  0.00000000000E+00 0. -1.
         22    1    3    3    0    0  0.46272372309E+02  0.30502417942E+02 -0.24576211811E+02  0.60626068043E+02  0.00000000000E+00 0. -1.
         22    1    3    3    0    0  0.16359411885E+03 -0.21865331371E+02  0.10965379574E+03  0.19815419087E+03  0.00000000000E+00 0. -1.
</event>
<event>
 7    1  0.4915160E-006  0.3793884E+02  0.7818608E-02  0.1561201E+00
          2   -1    0    0  502    0  0.00000000000E+00  0.00000000000E+00  0.90864170950E+03  0.90864170950E+03  0.00000000000E+00 0. -1.
          1   -1    0    0  501    0 -0.00000000000E+00 -0.00000000000E+00 -0.26846656740E+02  0.26846656740E+02  0.00000000000E+00 0. -1.
         25    2    1    2    0    0 -0.15629351791E+02  0.53944974099E+02  0.44733218603E+03  0.46786212170E+03  0.12503816775E+03 0.  0.
          2    1    1    2  501    0 -0.84658168995E+01 -0.36420249527E+02  0.56926296798E+01  0.37822092275E+02  0.00000000000E+00 0. -1.
          1    1    1    2  502    0  0.24095168690E+02 -0.17524724572E+02  0.42877023705E+03  0.42980415227E+03  0.00000000000E+00 0. -1.
         22    1    3    3    0    0 -0.12750839329E+02 -0.37271936694E+02  0.77510922403E+02  0.86946674808E+02  0.00000000000E+00 0.  1.
         22    1    3    3    0    0 -0.28785124618E+01  0.91216910792E+02  0.36982126363E+03  0.38091544689E+03  0.00000000000E+00 0.  1.
</event>
<event>
 7    1  0.4915160E-006  0.1915578E+03  0.7818608E-02  0.1255643E+00
          2   -1    0    0  502    0  0.00000000000E+00  0.00000000000E+00  0.38522959793E+03  0.38522959793E+03  0.00000000000E+00 0. -1.
          1   -1    0    0  501    0 -0.00000000000E+00 -0.00000000000E+00 -0.17321529379E+04  0.17321529379E+04  0.00000000000E+00 0. -1.
         25    2    1    2    0    0  0.29959159636E+01  0.23871558026E+03 -0.40923750733E+03  0.48999457095E+03  0.12500095352E+03 0.  0.
          2    1    1    2  501    0  0.30895967447E+02 -0.18172142611E+03 -0.12726468362E+04  0.12859265948E+04  0.00000000000E+00 0. -1.
          1    1    1    2  502    0 -0.33891883410E+02 -0.56994154143E+02  0.33496100355E+03  0.34146137009E+03  0.00000000000E+00 0. -1.
         22    1    3    3    0    0 -0.32935037640E+02  0.58296098969E+01 -0.42588434405E+02  0.54152338832E+02  0.00000000000E+00 0. -1.
         22    1    3    3    0    0  0.35930953603E+02  0.23288597036E+03 -0.36664907293E+03  0.43584223212E+03  0.00000000000E+00 0. -1.
</event>
<event>
 7    1  0.4915160E-006  0.1593906E+03  0.7818608E-02  0.1217259E+00
          2   -1    0    0  502    0  0.00000000000E+00  0.00000000000E+00  0.83081250172E+03  0.83081250172E+03  0.00000000000E+00 0. -1.
          1   -1    0    0  501    0 -0.00000000000E+00 -0.00000000000E+00 -0.15313116130E+04  0.15313116130E+04  0.00000000000E+00 0. -1.
         25    2    1    2    0    0 -0.10597835151E+03  0.51746428086E+02 -0.12753219549E+03  0.21400652778E+03  0.12500091694E+03 0.  0.
          2    1    1    2  501    0  0.56005143142E+02 -0.15859758367E+03 -0.13508806353E+04  0.13613112284E+04  0.00000000000E+00 0. -1.
          1    1    1    2  502    0  0.49973208367E+02  0.10685115559E+03  0.77791371948E+03  0.78680635862E+03  0.00000000000E+00 0. -1.
         22    1    3    3    0    0 -0.10109414100E+03  0.47616962672E+02 -0.29243697724E+02  0.11551014820E+03  0.00000000000E+00 0. -1.
         22    1    3    3    0    0 -0.48842105046E+01  0.41294654145E+01 -0.98288497769E+02  0.98496379581E+02  0.00000000000E+00 0. -1.
</event>
<event>
 7    1  0.4915160E-006  0.5244647E+02  0.7818608E-02  0.1433645E+00
          2   -1    0    0  502    0  0.00000000000E+00  0.00000000000E+00  0.70271468030E+03  0.70271468030E+03  0.00000000000E+00 0. -1.
          1   -1    0    0  501    0 -0.00000000000E+00 -0.00000000000E+00 -0.10592594417E+04  0.10592594417E+04  0.00000000000E+00 0. -1.
         25    2    1    2    0    0 -0.11227943751E+02  0.54772202698E+01  0.18458964878E+03  0.22328135082E+03  0.12500062609E+03 0.  0.
          2    1    1    2  501    0  0.15059183141E+02  0.50237964352E+02 -0.10376860039E+04  0.10390105267E+04  0.00000000000E+00 0. -1.
          1    1    1    2  502    0 -0.38312393909E+01 -0.55715184622E+02  0.49655159370E+03  0.49968224443E+03  0.00000000000E+00 0. -1.
         22    1    3    3    0    0  0.23219823296E+02 -0.32431025035E+02  0.16280426967E+03  0.16761909736E+03  0.00000000000E+00 0.  1.
         22    1    3    3    0    0 -0.34447767047E+02  0.37908245305E+02  0.21785379114E+02  0.55662253456E+02  0.00000000000E+00 0.  1.
</event>
<event>
 7    1  0.4915160E-006  0.1061545E+03  0.7818608E-02  0.1282368E+00
          2   -1    0    0  502    0  0.00000000000E+00  0.00000000000E+00  0.30971142992E+04  0.30971142992E+04  0.00000000000E+00 0. -1.
          1   -1    0    0  501    0 -0.00000000000E+00 -0.00000000000E+00 -0.45952933167E+03  0.45952933167E+03  0.00000000000E+00 0. -1.
         25    2    1    2    0    0 -0.12523295878E+03  0.93938475396E+02 -0.90247111883E+02  0.21971910103E+03  0.12499684408E+03 0.  0.
          2    1    1    2  501    0  0.10240267836E+03 -0.44370605267E+01 -0.29519650330E+03  0.31248515421E+03  0.00000000000E+00 0. -1.
          1    1    1    2  502    0  0.22830280417E+02 -0.89501414869E+02  0.30230285828E+04  0.30244393757E+04  0.00000000000E+00 0. -1.
         22    1    3    3    0    0 -0.53306738201E+02  0.10989355762E+03 -0.78297534396E+02  0.14508172261E+03  0.00000000000E+00 0.  1.
         22    1    3    3    0    0 -0.71926220575E+02 -0.15955082223E+02 -0.11949577487E+02  0.74637378418E+02  0.00000000000E+00 0.  1.
</event>
<event>
 7    1  0.4915160E-006  0.5606028E+02  0.7818608E-02  0.1554368E+00
          2   -1    0    0  502    0  0.00000000000E+00  0.00000000000E+00  0.83612724803E+03  0.83612724803E+03  0.00000000000E+00 0. -1.
          1   -1    0    0  501    0 -0.00000000000E+00 -0.00000000000E+00 -0.53129781188E+03  0.53129781188E+03  0.00000000000E+00 0. -1.
         25    2    1    2    0    0 -0.51437500664E+02  0.48026431210E+02  0.58083177093E+02  0.15476175848E+03  0.12500076743E+03 0.  0.
          2    1    1    2  501    0  0.26958765381E+01 -0.20885089606E+02 -0.48166180457E+03  0.48212192306E+03  0.00000000000E+00 0. -1.
          1    1    1    2  502    0  0.48741624126E+02 -0.27141341604E+02  0.72840806362E+03  0.73054137836E+03  0.00000000000E+00 0. -1.
         22    1    3    3    0    0 -0.13549910810E+02  0.87251072451E+02  0.28879319347E+02  0.92899756796E+02  0.00000000000E+00 0. -1.
         22    1    3    3    0    0 -0.37887589855E+02 -0.39224641241E+02  0.29203857747E+02  0.61862001687E+02  0.00000000000E+00 0. -1.
</event>
<event>
 7    1  0.4915160E-006  0.1250505E+03  0.7818608E-02  0.1301858E+00
          2   -1    0    0  502    0  0.00000000000E+00  0.00000000000E+00  0.27203384584E+04  0.27203384584E+04  0.00000000000E+00 0. -1.
          1   -1    0    0  501    0 -0.00000000000E+00 -0.00000000000E+00 -0.55939380940E+03  0.55939380940E+03  0.00000000000E+00 0. -1.
         25    2    1    2    0    0 -0.74072463568E+02 -0.12701792142E+03  0.16586572943E+03  0.25447345366E+03  0.12500006478E+03 0.  0.
          2    1    1    2  501    0  0.87540090488E+01  0.12447542054E+03 -0.50709952486E+03  0.52222666641E+03  0.00000000000E+00 0. -1.
          1    1    1    2  502    0  0.65318454519E+02  0.25425008776E+01  0.25021784445E+04  0.25030321478E+04  0.00000000000E+00 0. -1.
         22    1    3    3    0    0 -0.73892573261E+02 -0.10763925031E+03  0.18552977718E+03  0.22686475886E+03  0.00000000000E+00 0. -1.
         22    1    3    3    0    0 -0.17989030658E+00 -0.19378671107E+02 -0.19664047752E+02  0.27608694797E+02  0.00000000000E+00 0. -1.
</event>
<event>
 7    1  0.4915160E-006  0.3003159E+02  0.7818608E-02  0.1638225E+00
          2   -1    0    0  502    0  0.00000000000E+00  0.00000000000E+00  0.32090639945E+03  0.32090639945E+03  0.00000000000E+00 0. -1.
          1   -1    0    0  501    0 -0.00000000000E+00 -0.00000000000E+00 -0.17595786018E+03  0.17595786018E+03  0.00000000000E+00 0. -1.
         25    2    1    2    0    0 -0.44572000100E+02 -0.33275038002E+01 -0.55630407591E+01  0.13286863382E+03  0.12500156382E+03 0.  0.
          2    1    1    2  501    0  0.19640617274E+02 -0.13209394998E+02 -0.10454474431E+03  0.10719069701E+03  0.00000000000E+00 0. -1.
          1    1    1    2  502    0  0.24931382826E+02  0.16536898798E+02  0.25505632434E+03  0.25680492880E+03  0.00000000000E+00 0. -1.
         22    1    3    3    0    0 -0.87912112427E+01  0.54379152425E+02  0.22361992705E+02  0.59451125568E+02  0.00000000000E+00 0. -1.
         22    1    3    3    0    0 -0.35780788857E+02 -0.57706656225E+02 -0.27925033464E+02  0.73417508252E+02  0.00000000000E+00 0. -1.
</event>
<event>
 7    1  0.4915160E-006  0.1443233E+03  0.7818608E-02  0.1324493E+00
          2   -1    0    0  502    0  0.00000000000E+00  0.00000000000E+00  0.57846452736E+02  0.57846452736E+02  0.00000000000E+00 0. -1.
          1   -1    0    0  501    0 -0.00000000000E+00 -0.00000000000E+00 -0.20855696578E+04  0.20855696578E+04  0.00000000000E+00 0. -1.
         25    2    1    2    0    0 -0.18047760375E+03  0.23679057057E+02 -0.58239414359E+03  0.62284933603E+03  0.12500197482E+03 0.  0.
          2    1    1    2  501    0  0.46161333133E+02  0.79936621183E+00 -0.13573750814E+04  0.13581600124E+04  0.00000000000E+00 0. -1.
          1    1    1    2  502    0  0.13431627062E+03 -0.24478423269E+02 -0.87953980006E+02  0.16240676204E+03  0.00000000000E+00 0. -1.
         22    1    3    3    0    0 -0.72081319662E+02  0.62114065805E+01 -0.42396588064E+03  0.43009460142E+03  0.00000000000E+00 0.  1.
         22    1    3    3    0    0 -0.10839628409E+03  0.17467650477E+02 -0.15842826295E+03  0.19275473462E+03  0.00000000000E+00 0.  1.
</event>
<event>
 7    1  0.4915160E-006  0.3253314E+02  0.7818608E-02  0.1583249E+00
          2   -1    0    0  502    0  0.00000000000E+00  0.00000000000E+00  0.28257755820E+03  0.28257755820E+03  0.00000000000E+00 0. -1.
          1   -1    0    0  501    0 -0.00000000000E+00 -0.00000000000E+00 -0.65335032895E+03  0.65335032895E+03  0.00000000000E+00 0. -1.
         25    2    1    2    0    0  0.50640344617E+02  0.31274674508E+02 -0.20147653195E+03  0.24446125565E+03  0.12500385121E+03 0.  0.
          2    1    1    2  501    0 -0.30703135410E+02 -0.84841917652E+01 -0.42891087031E+03  0.43009208166E+03  0.00000000000E+00 0. -1.
          1    1    1    2  502    0 -0.19937209207E+02 -0.22790482743E+02  0.25961463151E+03  0.26137454985E+03  0.00000000000E+00 0. -1.
         22    1    3    3    0    0  0.87585357752E+02  0.68965865663E+01 -0.96326582872E+02  0.13037472288E+03  0.00000000000E+00 0. -1.
         22    1    3    3    0    0 -0.36945013135E+02  0.24378087942E+02 -0.10514994908E+03  0.11408653277E+03  0.00000000000E+00 0. -1.
</event>
<event>
 7    1  0.4915160E-006  0.2507339E+03  0.7818608E-02  0.1183378E+00
          2   -1    0    0  502    0  0.00000000000E+00  0.00000000000E+00  0.51888721614E+03  0.51888721614E+03  0.00000000000E+00 0. -1.
          1   -1    0    0  501    0 -0.00000000000E+00 -0.00000000000E+00 -0.94790003129E+03  0.94790003129E+03  0.00000000000E+00 0. -1.
         25    2    1    2    0    0  0.22340700920E+03 -0.94599697208E+02 -0.12884299453E+03  0.30180353602E+03  0.12500025059E+03 0.  0.
          2    1    1    2  501    0 -0.25751691128E+03 -0.82126750852E+01 -0.70253631838E+03  0.74829117746E+03  0.00000000000E+00 0. -1.
          1    1    1    2  502    0  0.34109902082E+02  0.10281237229E+03  0.40236649776E+03  0.41669253394E+03  0.00000000000E+00 0. -1.
         22    1    3    3    0    0  0.14865738458E+03 -0.59809900639E+02 -0.14580341477E+02  0.16090005769E+03  0.00000000000E+00 0.  1.
         22    1    3    3    0    0  0.74749624613E+02 -0.34789796569E+02 -0.11426265305E+03  0.14090347834E+03  0.00000000000E+00 0.  1.
</event>
<event>
 7    1  0.4915160E-006  0.1367837E+03  0.7818608E-02  0.1357489E+00
          2   -1    0    0  502    0  0.00000000000E+00  0.00000000000E+00  0.63435082632E+03  0.63435082632E+03  0.00000000000E+00 0. -1.
          1   -1    0    0  501    0 -0.00000000000E+00 -0.00000000000E+00 -0.50055057820E+03  0.50055057820E+03  0.00000000000E+00 0. -1.
         25    2    1    2    0    0 -0.10222422232E+03  0.11273074371E+03  0.23763802596E+03  0.30863422741E+03  0.12500097097E+03 0.  0.
          2    1    1    2  501    0  0.66186702881E+02 -0.11921998477E+03 -0.45408177359E+03  0.47411427052E+03  0.00000000000E+00 0. -1.
          1    1    1    2  502    0  0.36037519435E+02  0.64892410593E+01  0.35024399576E+03  0.35215290659E+03  0.00000000000E+00 0. -1.
         22    1    3    3    0    0 -0.74341770986E+02 -0.51579329371E+01  0.73852544765E+02  0.10491664098E+03  0.00000000000E+00 0.  1.
         22    1    3    3    0    0 -0.27882451331E+02  0.11788867664E+03  0.16378548119E+03  0.20371758643E+03  0.00000000000E+00 0.  1.
</event>
<event>
 7    1  0.4915160E-006  0.3117817E+03  0.7818608E-02  0.1250406E+00
          2   -1    0    0  502    0  0.00000000000E+00  0.00000000000E+00  0.11032875899E+04  0.11032875899E+04  0.00000000000E+00 0. -1.
          1   -1    0    0  501    0 -0.00000000000E+00 -0.00000000000E+00 -0.57646605318E+03  0.57646605318E+03  0.00000000000E+00 0. -1.
         25    2    1    2    0    0 -0.28709734195E+03 -0.19086856066E+03  0.76330976616E+03  0.84683111345E+03  0.12500177754E+03 0.  0.
          2    1    1    2  501    0  0.24417989593E+03  0.19096972743E+03 -0.48780477492E+03  0.57796778181E+03  0.00000000000E+00 0. -1.
          1    1    1    2  502    0  0.42917446014E+02 -0.10116676958E+00  0.25131654544E+03  0.25495474779E+03  0.00000000000E+00 0. -1.
         22    1    3    3    0    0 -0.23079474340E+03 -0.12932431225E+03  0.67674263801E+03  0.72661653533E+03  0.00000000000E+00 0. -1.
         22    1    3    3    0    0 -0.56302598546E+02 -0.61544248411E+02  0.86567128154E+02  0.12021457812E+03  0.00000000000E+00 0. -1.
</event>
<event>
 7    1  0.4915160E-006  0.1477783E+03  0.7818608E-02  0.1311254E+00
          2   -1    0    0  502    0  0.00000000000E+00  0.00000000000E+00  0.99116215075E+03  0.99116215075E+03  0.00000000000E+00 0. -1.
          1   -1    0    0  501    0 -0.00000000000E+00 -0.00000000000E+00 -0.37312394157E+03  0.37312394157E+03  0.00000000000E+00 0. -1.
         25    2    1    2    0    0  0.56203343476E+02 -0.92151408661E+02  0.99837744440E+02  0.19298577504E+03  0.12500094486E+03 0.  0.
          2    1    1    2  501    0 -0.54322393233E+02  0.14288648404E+03 -0.30783809719E+03  0.34370301688E+03  0.00000000000E+00 0. -1.
          1    1    1    2  502    0 -0.18809502436E+01 -0.50735075376E+02  0.82603856193E+03  0.82759730041E+03  0.00000000000E+00 0. -1.
         22    1    3    3    0    0 -0.19044328581E+02 -0.70500775702E+01 -0.19550542858E+02  0.28188894460E+02  0.00000000000E+00 0. -1.
         22    1    3    3    0    0  0.75247672057E+02 -0.85101331091E+02  0.11938828730E+03  0.16479688058E+03  0.00000000000E+00 0. -1.
</event>
<event>
 7    1  0.4915160E-006  0.8833203E+02  0.7818608E-02  0.1321126E+00
          2   -1    0    0  502    0  0.00000000000E+00  0.00000000000E+00  0.15172845428E+04  0.15172845428E+04  0.00000000000E+00 0. -1.
          1   -1    0    0  501    0 -0.00000000000E+00 -0.00000000000E+00 -0.25790884185E+03  0.25790884185E+03  0.00000000000E+00 0. -1.
         25    2    1    2    0    0 -0.36454016098E+02 -0.23299177849E+02  0.15297355475E+03  0.20223022371E+03  0.12499763178E+03 0.  0.
          2    1    1    2  501    0 -0.47951193766E+02  0.61172855790E+02 -0.22515627064E+03  0.23819483932E+03  0.00000000000E+00 0. -1.
          1    1    1    2  502    0  0.84405209864E+02 -0.37873677941E+02  0.13315584169E+04  0.13347683216E+04  0.00000000000E+00 0. -1.
         22    1    3    3    0    0 -0.59844787319E+02 -0.44797619783E+02  0.15319373021E+03  0.17045980254E+03  0.00000000000E+00 0. -1.
         22    1    3    3    0    0  0.23390771222E+02  0.21498441934E+02 -0.22017545786E+00  0.31770421167E+02  0.00000000000E+00 0. -1.
</event>
<event>
 7    1  0.4915160E-006  0.5453636E+02  0.7818608E-02  0.1485248E+00
          2   -1    0    0  502    0  0.00000000000E+00  0.00000000000E+00  0.19802419457E+04  0.19802419457E+04  0.00000000000E+00 0. -1.
          1   -1    0    0  501    0 -0.00000000000E+00 -0.00000000000E+00 -0.71767475899E+03  0.71767475899E+03  0.00000000000E+00 0. -1.
         25    2    1    2    0    0 -0.46498554825E+02  0.64779517377E+02  0.20952397197E+03  0.25667854113E+03  0.12500030870E+03 0.  0.
          2    1    1    2  501    0  0.45146258135E+02 -0.30428854691E+02 -0.69286039691E+03  0.69499613627E+03  0.00000000000E+00 0. -1.
          1    1    1    2  502    0  0.13522966907E+01 -0.34350662686E+02  0.17459036117E+04  0.17462420273E+04  0.00000000000E+00 0. -1.
         22    1    3    3    0    0 -0.56819255488E+02 -0.20481170071E+02  0.10762855857E+03  0.12341723032E+03  0.00000000000E+00 0. -1.
         22    1    3    3    0    0  0.10320700662E+02  0.85260687448E+02  0.10189541340E+03  0.13326131081E+03  0.00000000000E+00 0. -1.
</event>
<event>
 7    1  0.4915160E-006  0.4435930E+02  0.7818608E-02  0.1492082E+00
          2   -1    0    0  502    0  0.00000000000E+00  0.00000000000E+00  0.39962744491E+03  0.39962744491E+03  0.00000000000E+00 0. -1.
          1   -1    0    0  501    0 -0.00000000000E+00 -0.00000000000E+00 -0.22960394427E+04  0.22960394427E+04  0.00000000000E+00 0. -1.
         25    2    1    2    0    0  0.67880294541E+02 -0.14762365680E+01 -0.64385637913E+01  0.14239969318E+03  0.12500521531E+03 0.  0.
          2    1    1    2  501    0 -0.35900243884E+02  0.25992097282E+02 -0.22201743127E+04  0.22206166701E+04  0.00000000000E+00 0. -1.
          1    1    1    2  502    0 -0.31980050657E+02 -0.24515860713E+02  0.33020087870E+03  0.33265052436E+03  0.00000000000E+00 0. -1.
         22    1    3    3    0    0  0.27483874506E+02 -0.54150273470E+02 -0.35050253101E+02  0.70115160395E+02  0.00000000000E+00 0. -1.
         22    1    3    3    0    0  0.40396420035E+02  0.52674036902E+02  0.28611689310E+02  0.72284532788E+02  0.00000000000E+00 0. -1.
</event>
<event>
 7    1  0.4915160E-006  0.7514693E+02  0.7818608E-02  0.1363416E+00
          2   -1    0    0  502    0  0.00000000000E+00  0.00000000000E+00  0.19870198069E+03  0.19870198069E+03  0.00000000000E+00 0. -1.
          1   -1    0    0  501    0 -0.00000000000E+00 -0.00000000000E+00 -0.12091632461E+04  0.12091632461E+04  0.00000000000E+00 0. -1.
         25    2    1    2    0    0 -0.20029080251E+01  0.32410292744E+02 -0.15381518885E+02  0.13006671225E+03  0.12500527908E+03 0.  0.
          2    1    1    2  501    0  0.53887541240E+02  0.33430085172E+02 -0.11230379966E+04  0.11248269999E+04  0.00000000000E+00 0. -1.
          1    1    1    2  502    0 -0.51884633215E+02 -0.65840377917E+02  0.12795825012E+03  0.15297151468E+03  0.00000000000E+00 0. -1.
         22    1    3    3    0    0  0.28659338566E+02 -0.40749549282E+02 -0.51459772550E+01  0.50083575507E+02  0.00000000000E+00 0. -1.
         22    1    3    3    0    0 -0.30662246591E+02  0.73159842026E+02 -0.10235541630E+02  0.79983136746E+02  0.00000000000E+00 0. -1.
</event>
<event>
 7    1  0.4915160E-006  0.3966392E+02  0.7818608E-02  0.1524655E+00
          2   -1    0    0  502    0  0.00000000000E+00  0.00000000000E+00  0.29730896193E+02  0.29730896193E+02  0.00000000000E+00 0. -1.
          1   -1    0    0  501    0 -0.00000000000E+00 -0.00000000000E+00 -0.13987074275E+04  0.13987074275E+04  0.00000000000E+00 0. -1.
         25    2    1    2    0    0  0.14998263940E+02 -0.57217673496E+02 -0.33616718329E+03  0.36349763786E+03  0.12499338993E+03 0.  0.
          2    1    1    2  501    0 -0.29430651773E+02  0.20939110049E+02 -0.10243554075E+04  0.10249920051E+04  0.00000000000E+00 0. -1.
          1    1    1    2  502    0  0.14432387832E+02  0.36278563447E+02 -0.84539405210E+01  0.39948680763E+02  0.00000000000E+00 0. -1.
         22    1    3    3    0    0 -0.51350997508E+02 -0.49427024225E+02 -0.16364380688E+03  0.17849159980E+03  0.00000000000E+00 0. -1.
         22    1    3    3    0    0  0.66349261449E+02 -0.77906492718E+01 -0.17252337641E+03  0.18500603806E+03  0.00000000000E+00 0. -1.
</event>
<event>
 7    1  0.4915160E-006  0.1134961E+03  0.7818608E-02  0.1291784E+00
          2   -1    0    0  502    0  0.00000000000E+00  0.00000000000E+00  0.15860805217E+04  0.15860805217E+04  0.00000000000E+00 0. -1.
          1   -1    0    0  501    0 -0.00000000000E+00 -0.00000000000E+00 -0.25039241912E+04  0.25039241912E+04  0.00000000000E+00 0. -1.
         25    2    1    2    0    0 -0.13788029754E+03 -0.59536713503E+02 -0.17550502230E+03  0.26265772536E+03  0.12502588185E+03 0.  0.
          2    1    1    2  501    0  0.11196197227E+03 -0.15162161357E+02 -0.22824312973E+04  0.22852260284E+04  0.00000000000E+00 0. -1.
          1    1    1    2  502    0  0.25918325273E+02  0.74698874860E+02  0.15400926501E+04  0.15421209591E+04  0.00000000000E+00 0. -1.
         22    1    3    3    0    0 -0.71061591366E+01  0.11380457143E+02 -0.90154287100E+02  0.91147176506E+02  0.00000000000E+00 0.  1.
         22    1    3    3    0    0 -0.13077413840E+03 -0.70917170646E+02 -0.85350735203E+02  0.17151054885E+03  0.00000000000E+00 0.  1.
</event>
<event>
 7    1  0.4915160E-006  0.1506576E+03  0.7818608E-02  0.1241335E+00
          2   -1    0    0  502    0  0.00000000000E+00  0.00000000000E+00  0.20191001457E+04  0.20191001457E+04  0.00000000000E+00 0. -1.
          1   -1    0    0  501    0 -0.00000000000E+00 -0.00000000000E+00 -0.26498853428E+03  0.26498853428E+03  0.00000000000E+00 0. -1.
         25    2    1    2    0    0 -0.18767742004E+02 -0.21766650130E+01 -0.42108532145E+02  0.13324878212E+03  0.12500057378E+03 0.  0.
          2    1    1    2  501    0  0.14793594952E+03  0.79722145458E+02 -0.13388583027E+03  0.21486293581E+03  0.00000000000E+00 0. -1.
          1    1    1    2  502    0 -0.12916820752E+03 -0.77545480445E+02  0.19301059739E+04  0.19359769621E+04  0.00000000000E+00 0. -1.
         22    1    3    3    0    0  0.29105898344E+02 -0.39754891408E+02  0.13202988407E+02  0.51009054218E+02  0.00000000000E+00 0. -1.
         22    1    3    3    0    0 -0.47873640348E+02  0.37578226395E+02 -0.55311520552E+02  0.82239727899E+02  0.00000000000E+00 0. -1.
</event>
<event>
 7    1  0.1548570E-005  0.9730179E+02  0.7818608E-02  0.1335731E+00
          2   -1    0    0  502    0  0.00000000000E+00  0.00000000000E+00  0.28466875501E+04  0.28466875501E+04  0.00000000000E+00 0. -1.
          1   -1    0    0  501    0 -0.00000000000E+00 -0.00000000000E+00 -0.17043325245E+04  0.17043325245E+04  0.00000000000E+00 0. -1.
         25    2    1    2    0    0 -0.51921305986E+02 -0.46821113644E+02 -0.11201853215E+04  0.11293055517E+04  0.12501134331E+03 0.  0.
          2    1    1    2  501    0 -0.45310774288E+02  0.42370644796E+02 -0.57709091625E+03  0.58041559544E+03  0.00000000000E+00 0. -1.
          1    1    1    2  502    0  0.97232080273E+02  0.44504688482E+01  0.28396312632E+04  0.28412989275E+04  0.00000000000E+00 0. -1.
         22    1    3    3    0    0 -0.91795340006E+01 -0.26594623693E+02 -0.44934815655E+02  0.53015804358E+02  0.00000000000E+00 0.  1.
         22    1    3    3    0    0 -0.42741771985E+02 -0.20226489951E+02 -0.10752505058E+04  0.10762897473E+04  0.00000000000E+00 0.  1.
</event>
<event>
 7    1  0.4915160E-006  0.6880017E+02  0.7818608E-02  0.1463607E+00
          2   -1    0    0  502    0  0.00000000000E+00  0.00000000000E+00  0.11945906601E+03  0.11945906601E+03  0.00000000000E+00 0. -1.
          1   -1    0    0  501    0 -0.00000000000E+00 -0.00000000000E+00 -0.15034850883E+03  0.15034850883E+03  0.00000000000E+00 0. -1.
         25    2    1    2    0    0 -0.42417977162E+02 -0.37261787088E+01 -0.52608434056E+02  0.14214615209E+03  0.12499884809E+03 0.  0.
          2    1    1    2  501    0 -0.31616469776E+02 -0.33070122819E+01 -0.24470796313E+02  0.40116796526E+02  0.00000000000E+00 0. -1.
          1    1    1    2  502    0  0.74034446937E+02  0.70331909907E+01  0.46189787551E+02  0.87544626236E+02  0.00000000000E+00 0. -1.
         22    1    3    3    0    0  0.28232988079E+02  0.92399127772E+01  0.23214229539E+02  0.37701167848E+02  0.00000000000E+00 0.  1.
         22    1    3    3    0    0 -0.70650965240E+02 -0.12966091486E+02 -0.75822663595E+02  0.10444498424E+03  0.00000000000E+00 0.  1.
</event>
<event>
 7    1  0.4915160E-006  0.9503090E+02  0.7818608E-02  0.1297387E+00
          2   -1    0    0  502    0  0.00000000000E+00  0.00000000000E+00  0.48808328666E+03  0.48808328666E+03  0.00000000000E+00 0. -1.
          1   -1    0    0  501    0 -0.00000000000E+00 -0.00000000000E+00 -0.25325210879E+03  0.25325210879E+03  0.00000000000E+00 0. -1.
         25    2    1    2    0    0  0.60179271988E+02 -0.14900919876E+03  0.75695535331E+02  0.21721718422E+03  0.12501281917E+03 0.  0.
          2    1    1    2  501    0 -0.68620933214E+02  0.59769079797E+02 -0.16466588073E+03  0.18813832053E+03  0.00000000000E+00 0. -1.
          1    1    1    2  502    0  0.84416612262E+01  0.89240118968E+02  0.32380152327E+03  0.33597989069E+03  0.00000000000E+00 0. -1.
         22    1    3    3    0    0  0.33279139718E+02 -0.15941984813E+03  0.33759007883E+02  0.16631854897E+03  0.00000000000E+00 0. -1.
         22    1    3    3    0    0  0.26900132270E+02  0.10410649362E+02  0.41936527448E+02  0.50898635253E+02  0.00000000000E+00 0. -1.
</event>
<event>
 7    1  0.4915160E-006  0.8751364E+02  0.7818608E-02  0.1437153E+00
          2   -1    0    0  502    0  0.00000000000E+00  0.00000000000E+00  0.91720033456E+03  0.91720033456E+03  0.00000000000E+00 0. -1.
          1   -1    0    0  501    0 -0.00000000000E+00 -0.00000000000E+00 -0.12379807432E+04  0.12379807432E+04  0.00000000000E+00 0. -1.
         25    2    1    2    0    0  0.11363744681E+03 -0.46566611883E-01  0.58041707411E+02  0.17862592499E+03  0.12499963918E+03 0.  0.
          2    1    1    2  501    0 -0.86203785632E+02 -0.12972811867E+02 -0.11757858866E+04  0.11790130778E+04  0.00000000000E+00 0. -1.
          1    1    1    2  502    0 -0.27433661179E+02  0.13019378479E+02  0.79696377048E+03  0.79754207503E+03  0.00000000000E+00 0. -1.
         22    1    3    3    0    0  0.10380058902E+03  0.16202551912E+02  0.92045671519E+02  0.13967637815E+03  0.00000000000E+00 0. -1.
         22    1    3    3    0    0  0.98368577940E+01 -0.16249118524E+02 -0.34003964108E+02  0.38949546841E+02  0.00000000000E+00 0. -1.
</event>
<event>
 7    1  0.4915160E-006  0.4676840E+02  0.7818608E-02  0.1514108E+00
          2   -1    0    0  502    0  0.00000000000E+00  0.00000000000E+00  0.22538131932E+03  0.22538131932E+03  0.00000000000E+00 0. -1.
          1   -1    0    0  501    0 -0.00000000000E+00 -0.00000000000E+00 -0.30555711328E+04  0.30555711328E+04  0.00000000000E+00 0. -1.
         25    2    1    2    0    0 -0.65928106886E+02 -0.28909512355E+02 -0.83588369441E+03  0.84823944270E+03  0.12500530548E+03 0.  0.
          2    1    1    2  501    0  0.32645459048E+02 -0.38605909601E+01 -0.22108978738E+04  0.22111422475E+04  0.00000000000E+00 0. -1.
          1    1    1    2  502    0  0.33282647838E+02  0.32770103315E+02  0.21659175475E+03  0.22157076194E+03  0.00000000000E+00 0. -1.
         22    1    3    3    0    0 -0.70008705383E+01  0.42417368093E+02 -0.14658549120E+03  0.15275978376E+03  0.00000000000E+00 0.  1.
         22    1    3    3    0    0 -0.58927236348E+02 -0.71326880448E+02 -0.68929820321E+03  0.69547965895E+03  0.00000000000E+00 0.  1.
</event>
<event>
 7    1  0.4915160E-006  0.4071034E+02  0.7818608E-02  0.1566573E+00
          2   -1    0    0  502    0  0.00000000000E+00  0.00000000000E+00  0.15891008599E+04  0.15891008599E+04  0.00000000000E+00 0. -1.
          1   -1    0    0  501    0 -0.00000000000E+00 -0.00000000000E+00 -0.24919831604E+03  0.24919831604E+03  0.00000000000E+00 0. -1.
         25    2    1    2    0    0  0.57782659860E+02  0.29521403611E+02  0.39684912994E+03  0.42109974486E+03  0.12500165651E+03 0.  0.
          2    1    1    2  501    0 -0.39364809067E+02 -0.99965747641E+01 -0.23517957871E+03  0.23866075074E+03  0.00000000000E+00 0. -1.
          1    1    1    2  502    0 -0.18417850793E+02 -0.19524828846E+02  0.11782329926E+04  0.11785386804E+04  0.00000000000E+00 0. -1.
         22    1    3    3    0    0  0.41678725156E+01 -0.12726069304E+02 -0.43925891635E+01  0.14093219674E+02  0.00000000000E+00 0. -1.
         22    1    3    3    0    0  0.53614787344E+02  0.42247472914E+02  0.40124171911E+03  0.40700652518E+03  0.00000000000E+00 0. -1.
</event>
<event>
 7    1  0.4915160E-006  0.8970244E+02  0.7818608E-02  0.1472199E+00
          2   -1    0    0  502    0  0.00000000000E+00  0.00000000000E+00  0.10730189039E+04  0.10730189039E+04  0.00000000000E+00 0. -1.
          1   -1    0    0  501    0 -0.00000000000E+00 -0.00000000000E+00 -0.26191555478E+02  0.26191555478E+02  0.00000000000E+00 0. -1.
         25    2    1    2    0    0 -0.78275591292E+02  0.33190945298E+02  0.55200523166E+03  0.57233186548E+03  0.12500112568E+03 0.  0.
          2    1    1    2  501    0  0.90296778450E+02 -0.13673884534E+02  0.11729375282E+03  0.14865499577E+03  0.00000000000E+00 0. -1.
          1    1    1    2  502    0 -0.12021187157E+02 -0.19517060763E+02  0.37752836393E+03  0.37822359812E+03  0.00000000000E+00 0. -1.
         22    1    3    3    0    0 -0.63858693133E+02 -0.33801230289E+02  0.17808048246E+03  0.19217990033E+03  0.00000000000E+00 0.  1.
         22    1    3    3    0    0 -0.14416898159E+02  0.66992175586E+02  0.37392474921E+03  0.38015196516E+03  0.00000000000E+00 0.  1.
</event>
<event>
 7    1  0.4915160E-006  0.1156125E+03  0.7818608E-02  0.1293756E+00
          2   -1    0    0  502    0  0.00000000000E+00  0.00000000000E+00  0.58663796051E+03  0.58663796051E+03  0.00000000000E+00 0. -1.
          1   -1    0    0  501    0 -0.00000000000E+00 -0.00000000000E+00 -0.28020340894E+03  0.28020340894E+03  0.00000000000E+00 0. -1.
         25    2    1    2    0    0  0.78762631615E+02 -0.61784729725E+02  0.19282330910E+03  0.25065117517E+03  0.12499711243E+03 0.  0.
          2    1    1    2  501    0  0.48946169869E+02  0.58409248799E+02 -0.23386777265E+03  0.24597053274E+03  0.00000000000E+00 0. -1.
          1    1    1    2  502    0 -0.12770880148E+03  0.33754809259E+01  0.34747901511E+03  0.37021966154E+03  0.00000000000E+00 0. -1.
         22    1    3    3    0    0  0.31239949165E+02  0.28029030188E+02  0.12711362157E+02  0.43853616555E+02  0.00000000000E+00 0. -1.
         22    1    3    3    0    0  0.47522682450E+02 -0.89813759913E+02  0.18011194695E+03  0.20679755862E+03  0.00000000000E+00 0. -1.
</event>
<event>
 7    1  0.4915160E-006  0.2599711E+02  0.7818608E-02  0.1650159E+00
          2   -1    0    0  502    0  0.00000000000E+00  0.00000000000E+00  0.50829923268E+03  0.50829923268E+03  0.00000000000E+00 0. -1.
          1   -1    0    0  501    0 -0.00000000000E+00 -0.00000000000E+00 -0.15131426418E+03  0.15131426418E+03  0.00000000000E+00 0. -1.
         25    2    1    2    0    0  0.44632848686E+02 -0.21090602403E+02  0.47268549013E+02  0.14249748500E+03  0.12503724571E+03 0.  0.
          2    1    1    2  501    0 -0.19469150294E+02  0.16674716269E+02 -0.10171336431E+03  0.10489376747E+03  0.00000000000E+00 0. -1.
          1    1    1    2  502    0 -0.25163698392E+02  0.44158861347E+01  0.41142978380E+03  0.41222224438E+03  0.00000000000E+00 0. -1.
         22    1    3    3    0    0  0.81264816556E+02 -0.44471252487E+01  0.59073851539E+02  0.10056573606E+03  0.00000000000E+00 0. -1.
         22    1    3    3    0    0 -0.36631967871E+02 -0.16643477155E+02 -0.11805302526E+02  0.41931748945E+02  0.00000000000E+00 0. -1.
</event>
<event>
 7    1  0.4915160E-006  0.1335545E+03  0.7818608E-02  0.1332468E+00
          2   -1    0    0  502    0  0.00000000000E+00  0.00000000000E+00  0.52774251695E+03  0.52774251695E+03  0.00000000000E+00 0. -1.
          1   -1    0    0  501    0 -0.00000000000E+00 -0.00000000000E+00 -0.76673179600E+03  0.76673179600E+03  0.00000000000E+00 0. -1.
         25    2    1    2    0    0  0.85299050910E+02  0.11814200944E+03  0.21082614614E+03  0.28514306447E+03  0.12500176333E+03 0.  0.
          2    1    1    2  501    0 -0.10841443628E+03 -0.77790726857E+02 -0.72147984940E+03  0.73371538097E+03  0.00000000000E+00 0. -1.
          1    1    1    2  502    0  0.23115385373E+02 -0.40351282581E+02  0.27166442421E+03  0.27561586752E+03  0.00000000000E+00 0. -1.
         22    1    3    3    0    0  0.42112049103E+02  0.86450790934E+02  0.21066580639E+03  0.23157557279E+03  0.00000000000E+00 0. -1.
         22    1    3    3    0    0  0.43187001807E+02  0.31691218505E+02  0.16033975301E+00  0.53567491674E+02  0.00000000000E+00 0. -1.
</event>
<event>
 7    1  0.4915160E-006  0.5316522E+02  0.7818608E-02  0.1462168E+00
          2   -1    0    0  502    0  0.00000000000E+00  0.00000000000E+00  0.65021804668E+03  0.65021804668E+03  0.00000000000E+00 0. -1.
          1   -1    0    0  501    0 -0.00000000000E+00 -0.00000000000E+00 -0.22048315393E+03  0.22048315393E+03  0.00000000000E+00 0. -1.
         25    2    1    2    0    0 -0.14869074069E+02 -0.64857181109E+01  0.14851887208E+03  0.19480142578E+03  0.12500634471E+03 0.  0.
          2    1    1    2  501    0 -0.22912338862E+02 -0.34683286027E+02 -0.19349590538E+03  0.19791051261E+03  0.00000000000E+00 0. -1.
          1    1    1    2  502    0  0.37781412931E+02  0.41169004138E+02  0.47471192604E+03  0.47798926222E+03  0.00000000000E+00 0. -1.
         22    1    3    3    0    0  0.47686918748E+01 -0.36929044578E+02 -0.45420068765E+01  0.37511659282E+02  0.00000000000E+00 0. -1.
         22    1    3    3    0    0 -0.19637765943E+02  0.30443326467E+02  0.15306087896E+03  0.15728976650E+03  0.00000000000E+00 0. -1.
</event>
<event>
 7    1  0.4915160E-006  0.5121574E+02  0.7818608E-02  0.1500429E+00
          2   -1    0    0  502    0  0.00000000000E+00  0.00000000000E+00  0.87186291803E+03  0.87186291803E+03  0.00000000000E+00 0. -1.
          1   -1    0    0  501    0 -0.00000000000E+00 -0.00000000000E+00 -0.23528136291E+04  0.23528136291E+04  0.00000000000E+00 0. -1.
         25    2    1    2    0    0 -0.25526342498E+02 -0.42666605362E+02 -0.40454860886E+02  0.14047300084E+03  0.12499613923E+03 0.  0.
          2    1    1    2  501    0 -0.63776524661E+01  0.50887409882E+02 -0.22617287072E+04  0.22623100910E+04  0.00000000000E+00 0. -1.
          1    1    1    2  502    0  0.31903994964E+02 -0.82208045197E+01  0.82123285697E+03  0.82189345531E+03  0.00000000000E+00 0. -1.
         22    1    3    3    0    0  0.79900419912E+01  0.32392255870E+01  0.40583171908E+02  0.41488880384E+02  0.00000000000E+00 0.  1.
         22    1    3    3    0    0 -0.33516384489E+02 -0.45905830949E+02 -0.81038032794E+02  0.98984120461E+02  0.00000000000E+00 0.  1.
</event>
<event>
 7    1  0.4915160E-006  0.4149632E+03  0.7818608E-02  0.1294068E+00
          2   -1    0    0  502    0  0.00000000000E+00  0.00000000000E+00  0.10105441418E+04  0.10105441418E+04  0.00000000000E+00 0. -1.
          1   -1    0    0  501    0 -0.00000000000E+00 -0.00000000000E+00 -0.85705296011E+03  0.85705296011E+03  0.00000000000E+00 0. -1.
         25    2    1    2    0    0  0.60359574646E+02 -0.39357489017E+03  0.76474743275E+03  0.87121090952E+03  0.12500136218E+03 0.  0.
          2    1    1    2  501    0 -0.74465307172E+02  0.40936105200E+03 -0.74911574034E+03  0.85691069855E+03  0.00000000000E+00 0. -1.
          1    1    1    2  502    0  0.14105732526E+02 -0.15786161832E+02  0.13785948925E+03  0.13947549380E+03  0.00000000000E+00 0. -1.
         22    1    3    3    0    0  0.70788885646E+02 -0.38000247543E+03  0.76121474845E+03  0.85373347183E+03  0.00000000000E+00 0.  1.
         22    1    3    3    0    0 -0.10429311000E+02 -0.13572414742E+02  0.35326842972E+01  0.17477437690E+02  0.00000000000E+00 0.  1.
</event>
<event>
 7    1  0.4915160E-006  0.1156324E+03  0.7818608E-02  0.1338174E+00
          2   -1    0    0  502    0  0.00000000000E+00  0.00000000000E+00  0.37533439790E+03  0.37533439790E+03  0.00000000000E+00 0. -1.
          1   -1    0    0  501    0 -0.00000000000E+00 -0.00000000000E+00 -0.67343416998E+03  0.67343416998E+03  0.00000000000E+00 0. -1.
         25    2    1    2    0    0 -0.65775478428E+02  0.10505001813E+03  0.10579693406E+03  0.20537715083E+03  0.12499945182E+03 0.  0.
          2    1    1    2  501    0  0.15584262500E+02 -0.11465802277E+03 -0.61520459084E+03  0.62599202872E+03  0.00000000000E+00 0. -1.
          1    1    1    2  502    0  0.50191215928E+02  0.96080046392E+01  0.21130788470E+03  0.21739938833E+03  0.00000000000E+00 0. -1.
         22    1    3    3    0    0 -0.48327475700E+02 -0.16210502938E+02  0.15807844380E+02  0.53368654255E+02  0.00000000000E+00 0.  1.
         22    1    3    3    0    0 -0.17448002728E+02  0.12126052107E+03  0.89989089684E+02  0.15200849658E+03  0.00000000000E+00 0.  1.
</event>
<event>
 7    1  0.4915160E-006  0.4090044E+02  0.7818608E-02  0.1529507E+00
          2   -1    0    0  502    0  0.00000000000E+00  0.00000000000E+00  0.11608907390E+03  0.11608907390E+03  0.00000000000E+00 0. -1.
          1   -1    0    0  501    0 -0.00000000000E+00 -0.00000000000E+00 -0.84485056562E+03  0.84485056562E+03  0.00000000000E+00 0. -1.
         25    2    1    2    0    0 -0.29501459723E+02  0.34697836658E+02 -0.87026997078E+02  0.15897776706E+03  0.12500382476E+03 0.  0.
          2    1    1    2  501    0  0.40952249391E+02 -0.27693887996E+01 -0.71764492823E+03  0.71881777890E+03  0.00000000000E+00 0. -1.
          1    1    1    2  502    0 -0.11450789668E+02 -0.31928447859E+02  0.75910433588E+02  0.83144093562E+02  0.00000000000E+00 0. -1.
         22    1    3    3    0    0  0.15258412962E+02  0.19990798989E+02  0.26214078328E+02  0.36326699725E+02  0.00000000000E+00 0. -1.
         22    1    3    3    0    0 -0.44759872685E+02  0.14707037669E+02 -0.11324107541E+03  0.12265106734E+03  0.00000000000E+00 0. -1.
</event>
<event>
 7    1  0.4915160E-006  0.1054821E+03  0.7818608E-02  0.1454529E+00
          2   -1    0    0  502    0  0.00000000000E+00  0.00000000000E+00  0.20628621166E+04  0.20628621166E+04  0.00000000000E+00 0. -1.
          1   -1    0    0  501    0 -0.00000000000E+00 -0.00000000000E+00 -0.68870137012E+02  0.68870137012E+02  0.00000000000E+00 0. -1.
         25    2    1    2    0    0 -0.85633581523E+02  0.74830436597E+01  0.21453687405E+03  0.26275835187E+03  0.12500709950E+03 0.  0.
          2    1    1    2  501    0 -0.21128778999E+02 -0.66462774900E+01 -0.40355344421E+02  0.46034249530E+02  0.00000000000E+00 0. -1.
          1    1    1    2  502    0  0.10676236052E+03 -0.83676616973E+00  0.18198104500E+04  0.18229396522E+04  0.00000000000E+00 0. -1.
         22    1    3    3    0    0 -0.10792325638E+03 -0.16188385884E+02  0.11723231022E+03  0.16016525111E+03  0.00000000000E+00 0.  1.
         22    1    3    3    0    0  0.22289674855E+02  0.23671429544E+02  0.97304563830E+02  0.10259310076E+03  0.00000000000E+00 0.  1.
</event>
<event>
 7    1  0.4915160E-006  0.2386120E+03  0.7818608E-02  0.1226594E+00
          2   -1    0    0  502    0  0.00000000000E+00  0.00000000000E+00  0.18661816819E+04  0.18661816819E+04  0.00000000000E+00 0. -1.
          1   -1    0    0  501    0 -0.00000000000E+00 -0.00000000000E+00 -0.12232016328E+03  0.12232016328E+03  0.00000000000E+00 0. -1.
         25    2    1    2    0    0 -0.11379770381E+03  0.18840533147E+03  0.35945766772E+03  0.43963810480E+03  0.12500144797E+03 0.  0.
          2    1    1    2  501    0  0.18306724802E+03 -0.17083730127E+03  0.11174581444E+03  0.27420088958E+03  0.00000000000E+00 0. -1.
          1    1    1    2  502    0 -0.69269544208E+02 -0.17568030199E+02  0.12726580364E+04  0.12746628508E+04  0.00000000000E+00 0. -1.
         22    1    3    3    0    0 -0.67283102343E+02  0.53392578549E+02  0.51417014628E+02  0.10010740581E+03  0.00000000000E+00 0.  1.
         22    1    3    3    0    0 -0.46514601465E+02  0.13501275292E+03  0.30804065309E+03  0.33953069899E+03  0.00000000000E+00 0.  1.
</event>
<event>
 7    1  0.4915160E-006  0.9808528E+02  0.7818608E-02  0.1336627E+00
          2   -1    0    0  502    0  0.00000000000E+00  0.00000000000E+00  0.19560541723E+04  0.19560541723E+04  0.00000000000E+00 0. -1.
          1   -1    0    0  501    0 -0.00000000000E+00 -0.00000000000E+00 -0.18268993052E+04  0.18268993052E+04  0.00000000000E+00 0. -1.
         25    2    1    2    0    0 -0.14227737494E+03  0.25080754819E+02  0.24616260503E+02  0.19262068607E+03  0.12499949095E+03 0.  0.
          2    1    1    2  501    0  0.45964401882E+02 -0.40195431787E+02 -0.17410753317E+04  0.17421457199E+04  0.00000000000E+00 0. -1.
          1    1    1    2  502    0  0.96312973063E+02  0.15114676968E+02  0.18456139382E+04  0.18481870715E+04  0.00000000000E+00 0. -1.
         22    1    3    3    0    0 -0.12632407970E+03 -0.10931596066E+02  0.59448265596E+02  0.14004059835E+03  0.00000000000E+00 0. -1.
         22    1    3    3    0    0 -0.15953295246E+02  0.36012350885E+02 -0.34832005093E+02  0.52580087716E+02  0.00000000000E+00 0. -1.
</event>
<event>
 7    1  0.4915160E-006  0.6075898E+02  0.7818608E-02  0.1487384E+00
          2   -1    0    0  502    0  0.00000000000E+00  0.00000000000E+00  0.12525253465E+04  0.12525253465E+04  0.00000000000E+00 0. -1.
          1   -1    0    0  501    0 -0.00000000000E+00 -0.00000000000E+00 -0.25757176224E+02  0.25757176224E+02  0.00000000000E+00 0. -1.
         25    2    1    2    0    0 -0.81409108397E+02 -0.61472868672E+01  0.68182263882E+03  0.69797520895E+03  0.12498819717E+03 0.  0.
          2    1    1    2  501    0  0.57966812128E+02 -0.13205589381E+02  0.34058243153E+02  0.68516442011E+02  0.00000000000E+00 0. -1.
          1    1    1    2  502    0  0.23442296269E+02  0.19352876248E+02  0.51088728832E+03  0.51179087178E+03  0.00000000000E+00 0. -1.
         22    1    3    3    0    0 -0.10653652390E+03 -0.16561619241E+02  0.38206787165E+03  0.39698888738E+03  0.00000000000E+00 0. -1.
         22    1    3    3    0    0  0.25127415504E+02  0.10414332374E+02  0.29975476717E+03  0.30098632157E+03  0.00000000000E+00 0. -1.
</event>
<event>
 7    1  0.4915160E-006  0.8046633E+02  0.7818608E-02  0.1335902E+00
          2   -1    0    0  502    0  0.00000000000E+00  0.00000000000E+00  0.36228117252E+03  0.36228117252E+03  0.00000000000E+00 0. -1.
          1   -1    0    0  501    0 -0.00000000000E+00 -0.00000000000E+00 -0.66432905574E+03  0.66432905574E+03  0.00000000000E+00 0. -1.
         25    2    1    2    0    0  0.34965642423E+02 -0.18907034224E+02 -0.89606138157E+02  0.15885223719E+03  0.12499880469E+03 0.  0.
          2    1    1    2  501    0 -0.38639388676E+02 -0.64166501124E+02 -0.53215871393E+03  0.53740416730E+03  0.00000000000E+00 0. -1.
          1    1    1    2  502    0  0.36737462521E+01  0.83073535348E+02  0.31971696887E+03  0.33035382376E+03  0.00000000000E+00 0. -1.
         22    1    3    3    0    0  0.57430965244E+02 -0.14036118383E+02  0.70133777308E+01  0.59535836732E+02  0.00000000000E+00 0. -1.
         22    1    3    3    0    0 -0.22465322821E+02 -0.48709158408E+01 -0.96619515888E+02  0.99316400463E+02  0.00000000000E+00 0. -1.
</event>
<event>
 7    1  0.4915160E-006  0.5829543E+02  0.7818608E-02  0.1449593E+00
          2   -1    0    0  502    0  0.00000000000E+00  0.00000000000E+00  0.13936917259E+04  0.13936917259E+04  0.00000000000E+00 0. -1.
          1   -1    0    0  501    0 -0.00000000000E+00 -0.00000000000E+00 -0.15656169396E+02  0.15656169396E+02  0.00000000000E+00 0. -1.
         25    2    1    2    0    0  0.35722724376E+02  0.28104887490E+02  0.55561137930E+03  0.57130965121E+03  0.12499886007E+03 0.  0.
          2    1    1    2  501    0 -0.63845339673E+02  0.24923339106E+01  0.13497592284E+03  0.14933498877E+03  0.00000000000E+00 0. -1.
          1    1    1    2  502    0  0.28122615297E+02 -0.30597221401E+02  0.68744825439E+03  0.68870325533E+03  0.00000000000E+00 0. -1.
         22    1    3    3    0    0 -0.29788388217E+02  0.52773368033E+02  0.20458764845E+03  0.21337404328E+03  0.00000000000E+00 0.  1.
         22    1    3    3    0    0  0.65511112593E+02 -0.24668480543E+02  0.35102373085E+03  0.35793560793E+03  0.00000000000E+00 0.  1.
</event>
<event>
 7    1  0.6357042E-006  0.1240449E+03  0.7818608E-02  0.1255265E+00
          2   -1    0    0  502    0  0.00000000000E+00  0.00000000000E+00  0.36550280021E+04  0.36550280021E+04  0.00000000000E+00 0. -1.
          1   -1    0    0  501    0 -0.00000000000E+00 -0.00000000000E+00 -0.14440009512E+04  0.14440009512E+04  0.00000000000E+00 0. -1.
         25    2    1    2    0    0 -0.11161032648E+02  0.40731162700E+02 -0.20615297470E+03  0.24476009697E+03  0.12499943931E+03 0.  0.
          2    1    1    2  501    0  0.78620535573E+02 -0.11827951972E+03 -0.12136762893E+04  0.12219580061E+04  0.00000000000E+00 0. -1.
          1    1    1    2  502    0 -0.67459502925E+02  0.77548357020E+02  0.36308563150E+04  0.36323108502E+04  0.00000000000E+00 0. -1.
         22    1    3    3    0    0 -0.39546101707E+02 -0.30679273528E+02 -0.11576377307E+03  0.12612043109E+03  0.00000000000E+00 0. -1.
         22    1    3    3    0    0  0.28385069059E+02  0.71410436228E+02 -0.90389201632E+02  0.11863966588E+03  0.00000000000E+00 0. -1.
</event>
<event>
 7    1  0.4915160E-006  0.1063437E+03  0.7818608E-02  0.1415503E+00
          2   -1    0    0  502    0  0.00000000000E+00  0.00000000000E+00  0.24312460799E+04  0.24312460799E+04  0.00000000000E+00 0. -1.
          1   -1    0    0  501    0 -0.00000000000E+00 -0.00000000000E+00 -0.24668469542E+03  0.24668469542E+03  0.00000000000E+00 0. -1.
         25    2    1    2    0    0  0.39872051881E+01 -0.11565413751E+03  0.21227236670E+04  0.21295474050E+04  0.12499842589E+03 0.  0.
          2    1    1    2  501    0 -0.11699970940E+02  0.27050367163E+02 -0.23585479396E+03  0.23768907320E+03  0.00000000000E+00 0. -1.
          1    1    1    2  502    0  0.77127657516E+01  0.88603770351E+02  0.29769251141E+03  0.31069429706E+03  0.00000000000E+00 0. -1.
         22    1    3    3    0    0  0.61218268447E+02 -0.33118860132E+02  0.93200566790E+03  0.93460103803E+03  0.00000000000E+00 0.  1.
         22    1    3    3    0    0 -0.57231063259E+02 -0.82535277383E+02  0.11907179991E+04  0.11949463670E+04  0.00000000000E+00 0.  1.
</event>
<event>
 7    1  0.4915160E-006  0.1701923E+03  0.7818608E-02  0.1397593E+00
          2   -1    0    0  502    0  0.00000000000E+00  0.00000000000E+00  0.47850434763E+03  0.47850434763E+03  0.00000000000E+00 0. -1.
          1   -1    0    0  501    0 -0.00000000000E+00 -0.00000000000E+00 -0.70103038692E+03  0.70103038692E+03  0.00000000000E+00 0. -1.
         25    2    1    2    0    0  0.16937879857E+03  0.84933741931E+02  0.36525489290E+02  0.22991764210E+03  0.12500037144E+03 0.  0.
          2    1    1    2  501    0 -0.14935391209E+03 -0.77995667986E+02 -0.59224682315E+03  0.61574849964E+03  0.00000000000E+00 0. -1.
          1    1    1    2  502    0 -0.20024886478E+02 -0.69380739448E+01  0.33319529457E+03  0.33386859282E+03  0.00000000000E+00 0. -1.
         22    1    3    3    0    0  0.39003419855E+02  0.82142142467E+02  0.40290257382E+02  0.99458047283E+02  0.00000000000E+00 0. -1.
         22    1    3    3    0    0  0.13037537871E+03  0.27915994643E+01 -0.37647680918E+01  0.13045959482E+03  0.00000000000E+00 0. -1.
</event>
<event>
 7    1  0.4915160E-006  0.9511178E+02  0.7818608E-02  0.1391659E+00
          2   -1    0    0  502    0  0.00000000000E+00  0.00000000000E+00  0.33650421370E+03  0.33650421370E+03  0.00000000000E+00 0. -1.
          1   -1    0    0  501    0 -0.00000000000E+00 -0.00000000000E+00 -0.77909628440E+03  0.77909628440E+03  0.00000000000E+00 0. -1.
         25    2    1    2    0    0  0.11459364341E+03  0.29794045345E+02  0.18404823691E+03  0.25202887096E+03  0.12500164015E+03 0.  0.
          2    1    1    2  501    0 -0.29312542681E+02 -0.26864915518E+02 -0.72912756570E+03  0.73021089824E+03  0.00000000000E+00 0. -1.
          1    1    1    2  502    0 -0.85281100728E+02 -0.29291298263E+01  0.10248725809E+03  0.13336072890E+03  0.00000000000E+00 0. -1.
         22    1    3    3    0    0  0.41830997975E+02 -0.43658886126E+02  0.10766905870E+03  0.12348504740E+03  0.00000000000E+00 0. -1.
         22    1    3    3    0    0  0.72762645434E+02  0.73452931471E+02  0.76379178206E+02  0.12854382356E+03  0.00000000000E+00 0. -1.
</event>
<event>
 7    1  0.4915160E-006  0.6859911E+02  0.7818608E-02  0.1472313E+00
          2   -1    0    0  502    0  0.00000000000E+00  0.00000000000E+00  0.11393286023E+04  0.11393286023E+04  0.00000000000E+00 0. -1.
          1   -1    0    0  501    0 -0.00000000000E+00 -0.00000000000E+00 -0.19575662230E+03  0.19575662230E+03  0.00000000000E+00 0. -1.
         25    2    1    2    0    0  0.38729960012E+02 -0.15777738516E+02  0.65414684395E+03  0.66729513144E+03  0.12500300858E+03 0.  0.
          2    1    1    2  501    0 -0.55758995881E+02  0.40414571616E+02 -0.18242498362E+03  0.19499045584E+03  0.00000000000E+00 0. -1.
          1    1    1    2  502    0  0.17029035869E+02 -0.24636833100E+02  0.47185011967E+03  0.47279963731E+03  0.00000000000E+00 0. -1.
         22    1    3    3    0    0  0.38833442798E+01  0.41108189048E+02  0.46307868637E+03  0.46491594223E+03  0.00000000000E+00 0.  1.
         22    1    3    3    0    0  0.34846615732E+02 -0.56885927565E+02  0.19106815758E+03  0.20237918921E+03  0.00000000000E+00 0.  1.
</event>
<event>
 7    1  0.4915160E-006  0.8343589E+02  0.7818608E-02  0.1323744E+00
          2   -1    0    0  502    0  0.00000000000E+00  0.00000000000E+00  0.14741127369E+04  0.14741127369E+04  0.00000000000E+00 0. -1.
          1   -1    0    0  501    0 -0.00000000000E+00 -0.00000000000E+00 -0.30573669268E+02  0.30573669268E+02  0.00000000000E+00 0. -1.
         25    2    1    2    0    0  0.68119948508E+02  0.87729822698E+01  0.67467742193E+03  0.68959171210E+03  0.12501925108E+03 0.  0.
          2    1    1    2  501    0 -0.47992661138E+02  0.72198869917E+02  0.70431690232E+02  0.11169868096E+03  0.00000000000E+00 0. -1.
          1    1    1    2  502    0 -0.20127287371E+02 -0.80971852186E+02  0.69842995544E+03  0.70339601307E+03  0.00000000000E+00 0. -1.
         22    1    3    3    0    0 -0.21019152330E+02 -0.32759938140E+02  0.11684668192E+03  0.12315910598E+03  0.00000000000E+00 0.  1.
         22    1    3    3    0    0  0.89139100839E+02  0.41532920410E+02  0.55783074001E+03  0.56643260612E+03  0.00000000000E+00 0.  1.
</event>
<event>
 7    1  0.4915160E-006  0.1424388E+03  0.7818608E-02  0.1421212E+00
          2   -1    0    0  502    0  0.00000000000E+00  0.00000000000E+00  0.26220684050E+03  0.26220684050E+03  0.00000000000E+00 0. -1.
          1   -1    0    0  501    0 -0.00000000000E+00 -0.00000000000E+00 -0.28655378310E+03  0.28655378310E+03  0.00000000000E+00 0. -1.
         25    2    1    2    0    0 -0.14924508763E+03  0.53280833129E+02 -0.41502509245E+02  0.20605614516E+03  0.12499493320E+03 0.  0.
          2    1    1    2  501    0  0.16026032147E+02 -0.13657773498E+02 -0.13499599201E+03  0.13662827797E+03  0.00000000000E+00 0. -1.
          1    1    1    2  502    0  0.13321905549E+03 -0.39623059630E+02  0.15215155865E+03  0.20607620047E+03  0.00000000000E+00 0. -1.
         22    1    3    3    0    0 -0.11476561038E+03  0.74949933675E+02 -0.72326074900E+02  0.15498289904E+03  0.00000000000E+00 0.  1.
         22    1    3    3    0    0 -0.34479477253E+02 -0.21669100546E+02  0.30823565655E+02  0.51073246126E+02  0.00000000000E+00 0.  1.
</event>
<event>
 7    1  0.4915160E-006  0.1147507E+03  0.7818608E-02  0.1353777E+00
          2   -1    0    0  502    0  0.00000000000E+00  0.00000000000E+00  0.15738988283E+03  0.15738988283E+03  0.00000000000E+00 0. -1.
          1   -1    0    0  501    0 -0.00000000000E+00 -0.00000000000E+00 -0.10844745943E+04  0.10844745943E+04  0.00000000000E+00 0. -1.
         25    2    1    2    0    0 -0.11307936530E+02  0.25785297157E+01 -0.69657165668E+03  0.70779332395E+03  0.12499919316E+03 0.  0.
          2    1    1    2  501    0 -0.10178295639E+02 -0.11529975031E+03 -0.34985829508E+03  0.36850842156E+03  0.00000000000E+00 0. -1.
          1    1    1    2  502    0  0.21486232169E+02  0.11272122059E+03  0.11934524026E+03  0.16556273167E+03  0.00000000000E+00 0. -1.
         22    1    3    3    0    0  0.49377088876E+02  0.22082769040E+02 -0.20144772861E+03  0.20858315598E+03  0.00000000000E+00 0. -1.
         22    1    3    3    0    0 -0.60685025406E+02 -0.19504239324E+02 -0.49512392806E+03  0.49921016797E+03  0.00000000000E+00 0. -1.
</event>
<event>
 7    1  0.4915160E-006  0.5562433E+02  0.7818608E-02  0.1538631E+00
          2   -1    0    0  502    0  0.00000000000E+00  0.00000000000E+00  0.54007153659E+03  0.54007153659E+03  0.00000000000E+00 0. -1.
          1   -1    0    0  501    0 -0.00000000000E+00 -0.00000000000E+00 -0.11446729031E+03  0.11446729031E+03  0.00000000000E+00 0. -1.
         25    2    1    2    0    0 -0.36133057590E+02 -0.37547571595E+02  0.19754140751E+03  0.23950620515E+03  0.12500078657E+03 0.  0.
          2    1    1    2  501    0  0.52113622537E+02  0.20328566188E+02 -0.84636794507E+02  0.10145179763E+03  0.00000000000E+00 0. -1.
          1    1    1    2  502    0 -0.15980564947E+02  0.17219005407E+02  0.31269963328E+03  0.31358082412E+03  0.00000000000E+00 0. -1.
         22    1    3    3    0    0 -0.61598899431E+02  0.48864463150E+01  0.17411083189E+03  0.18475086888E+03  0.00000000000E+00 0.  1.
         22    1    3    3    0    0  0.25465841841E+02 -0.42434017910E+02  0.23430575614E+02  0.54755336272E+02  0.00000000000E+00 0.  1.
</event>
<event>
 7    1  0.4915160E-006  0.1355143E+03  0.7818608E-02  0.1224530E+00
          2   -1    0    0  502    0  0.00000000000E+00  0.00000000000E+00  0.91231546408E+03  0.91231546408E+03  0.00000000000E+00 0. -1.
          1   -1    0    0  501    0 -0.00000000000E+00 -0.00000000000E+00 -0.36893253639E+03  0.36893253639E+03  0.00000000000E+00 0. -1.
         25    2    1    2    0    0 -0.13266503802E+03 -0.17055565754E+03  0.45256305676E+02  0.25369812215E+03  0.12500143738E+03 0.  0.
          2    1    1    2  501    0  0.67006217231E+01  0.12838593522E+03 -0.24283970065E+03  0.27477075337E+03  0.00000000000E+00 0. -1.
          1    1    1    2  502    0  0.12596441629E+03  0.42169722322E+02  0.74096632266E+03  0.75277912496E+03  0.00000000000E+00 0. -1.
         22    1    3    3    0    0 -0.10477049385E+03 -0.38949823872E+02  0.50173593602E-01  0.11177632880E+03  0.00000000000E+00 0.  1.
         22    1    3    3    0    0 -0.27894544163E+02 -0.13160583367E+03  0.45206132082E+02  0.14192179335E+03  0.00000000000E+00 0.  1.
</event>
<event>
 7    1  0.4915160E-006  0.1998769E+03  0.7818608E-02  0.1191510E+00
          2   -1    0    0  502    0  0.00000000000E+00  0.00000000000E+00  0.26991197936E+04  0.26991197936E+04  0.00000000000E+00 0. -1.
          1   -1    0    0  501    0 -0.00000000000E+00 -0.00000000000E+00 -0.11372754684E+04  0.11372754684E+04  0.00000000000E+00 0. -1.
         25    2    1    2    0    0  0.14423722969E+02  0.13133689987E+03  0.43984143871E+03  0.47596819303E+03  0.12501121757E+03 0.  0.
          2    1    1    2  501    0  0.10220066810E+03 -0.17393560817E+03 -0.11083805409E+04  0.11265904295E+04  0.00000000000E+00 0. -1.
          1    1    1    2  502    0 -0.11662439107E+03  0.42598708303E+02  0.22303834274E+04  0.22338366395E+04  0.00000000000E+00 0. -1.
         22    1    3    3    0    0 -0.39193037080E+02  0.25590738823E+02  0.49975500148E+02  0.68472846327E+02  0.00000000000E+00 0.  1.
         22    1    3    3    0    0  0.53616760049E+02  0.10574616104E+03  0.38986593856E+03  0.40749534670E+03  0.00000000000E+00 0.  1.
</event>
<event>
 7    1  0.4915160E-006  0.4866846E+02  0.7818608E-02  0.1456665E+00
          2   -1    0    0  502    0  0.00000000000E+00  0.00000000000E+00  0.18490205737E+04  0.18490205737E+04  0.00000000000E+00 0. -1.
          1   -1    0    0  501    0 -0.00000000000E+00 -0.00000000000E+00 -0.19590966340E+04  0.19590966340E+04  0.00000000000E+00 0. -1.
         25    2    1    2    0    0 -0.46870424704E+02 -0.57284961804E+02  0.18539263604E+02  0.14644707013E+03  0.12499854596E+03 0.  0.
          2    1    1    2  501    0 -0.70492688652E+00  0.47256995034E+02 -0.18945134080E+04  0.18951028398E+04  0.00000000000E+00 0. -1.
          1    1    1    2  502    0  0.47575351590E+02  0.10027966770E+02  0.17658980841E+04  0.17665672978E+04  0.00000000000E+00 0. -1.
         22    1    3    3    0    0 -0.19669078004E+02 -0.43427057211E+02 -0.51418355374E+02  0.70118679373E+02  0.00000000000E+00 0.  1.
         22    1    3    3    0    0 -0.27201346700E+02 -0.13857904592E+02  0.69957618979E+02  0.76328390754E+02  0.00000000000E+00 0.  1.
</event>
<event>
 7    1  0.4915160E-006  0.4768162E+02  0.7818608E-02  0.1473491E+00
          2   -1    0    0  502    0  0.00000000000E+00  0.00000000000E+00  0.97587945930E+02  0.97587945930E+02  0.00000000000E+00 0. -1.
          1   -1    0    0  501    0 -0.00000000000E+00 -0.00000000000E+00 -0.44877856755E+03  0.44877856755E+03  0.00000000000E+00 0. -1.
         25    2    1    2    0    0 -0.26890516849E+02  0.36269905446E+02 -0.18980917633E+03  0.23171241068E+03  0.12499804761E+03 0.  0.
          2    1    1    2  501    0 -0.21561299752E+02 -0.36888049842E+02 -0.22817185900E+03  0.23213792259E+03  0.00000000000E+00 0. -1.
          1    1    1    2  502    0  0.48451816601E+02  0.61814439540E+00  0.66790413702E+02  0.82516180212E+02  0.00000000000E+00 0. -1.
         22    1    3    3    0    0  0.11421761763E+00  0.41774134334E+02 -0.19847383658E+03  0.20282247201E+03  0.00000000000E+00 0.  1.
         22    1    3    3    0    0 -0.27004734466E+02 -0.55042288883E+01  0.86646602473E+01  0.28889938672E+02  0.00000000000E+00 0.  1.
</event>
<event>
 7    1  0.4915160E-006  0.9847270E+02  0.7818608E-02  0.1390927E+00
          2   -1    0    0  502    0  0.00000000000E+00  0.00000000000E+00  0.14276071519E+04  0.14276071519E+04  0.00000000000E+00 0. -1.
          1   -1    0    0  501    0 -0.00000000000E+00 -0.00000000000E+00 -0.98873348273E+02  0.98873348273E+02  0.00000000000E+00 0. -1.
         25    2    1    2    0    0  0.58774397620E+02 -0.35432730128E+02  0.30128717227E+03  0.33332808725E+03  0.12499498149E+03 0.  0.
          2    1    1    2  501    0  0.16782498097E+02 -0.34794181660E+02 -0.75809453035E+02  0.85084431533E+02  0.00000000000E+00 0. -1.
          1    1    1    2  502    0 -0.75556895718E+02  0.70226911789E+02  0.11032560844E+04  0.11080679814E+04  0.00000000000E+00 0. -1.
         22    1    3    3    0    0 -0.59298727302E+01  0.23734779027E+02  0.19040077895E+03  0.19196603802E+03  0.00000000000E+00 0.  1.
         22    1    3    3    0    0  0.64704270350E+02 -0.59167509156E+02  0.11088639332E+03  0.14136204923E+03  0.00000000000E+00 0.  1.
</event>
<event>
 7    1  0.5796382E-006  0.1109054E+03  0.7818608E-02  0.1286921E+00
          2   -1    0    0  502    0  0.00000000000E+00  0.00000000000E+00  0.82212390189E+03  0.82212390189E+03  0.00000000000E+00 0. -1.
          1   -1    0    0  501    0 -0.00000000000E+00 -0.00000000000E+00 -0.93718571054E+03  0.93718571054E+03  0.00000000000E+00 0. -1.
         25    2    1    2    0    0  0.19618806667E+02  0.12424488002E+03 -0.14888539870E+03  0.23154381557E+03  0.12499595512E+03 0.  0.
          2    1    1    2  501    0  0.59856224193E+02 -0.94988576731E+02 -0.74043015707E+03  0.74889412789E+03  0.00000000000E+00 0. -1.
          1    1    1    2  502    0 -0.79475030860E+02 -0.29256303287E+02  0.77425374712E+03  0.77887166898E+03  0.00000000000E+00 0. -1.
         22    1    3    3    0    0 -0.53085831669E+02  0.47809662270E+02 -0.67780421992E+02  0.98478702955E+02  0.00000000000E+00 0. -1.
         22    1    3    3    0    0  0.72704638336E+02  0.76435217749E+02 -0.81104976703E+02  0.13306511261E+03  0.00000000000E+00 0. -1.
</event>
<event>
 7    1  0.4915160E-006  0.3113099E+02  0.7818608E-02  0.1606588E+00
          2   -1    0    0  502    0  0.00000000000E+00  0.00000000000E+00  0.61860922204E+03  0.61860922204E+03  0.00000000000E+00 0. -1.
          1   -1    0    0  501    0 -0.00000000000E+00 -0.00000000000E+00 -0.13748980640E+04  0.13748980640E+04  0.00000000000E+00 0. -1.
         25    2    1    2    0    0  0.35975202362E+02 -0.18159898839E+02  0.16131437195E+03  0.20800894182E+03  0.12498558384E+03 0.  0.
          2    1    1    2  501    0 -0.25147937420E+02 -0.11061331324E+02 -0.13508514662E+04  0.13511308062E+04  0.00000000000E+00 0. -1.
          1    1    1    2  502    0 -0.10827264942E+02  0.29221230163E+02  0.43324825228E+03  0.43436753799E+03  0.00000000000E+00 0. -1.
         22    1    3    3    0    0  0.24055868070E+01  0.24553149778E+02  0.15063656500E+03  0.15264343657E+03  0.00000000000E+00 0.  1.
         22    1    3    3    0    0  0.33569615555E+02 -0.42713048617E+02  0.10677806952E+02  0.55365505253E+02  0.00000000000E+00 0.  1.
</event>
<event>
 7    1  0.4915160E-006  0.1062010E+03  0.7818608E-02  0.1339264E+00
          2   -1    0    0  502    0  0.00000000000E+00  0.00000000000E+00  0.21642997621E+04  0.21642997621E+04  0.00000000000E+00 0. -1.
          1   -1    0    0  501    0 -0.00000000000E+00 -0.00000000000E+00 -0.30167101695E+02  0.30167101695E+02  0.00000000000E+00 0. -1.
         25    2    1    2    0    0  0.83385835506E+02 -0.42923125332E+02  0.54831416403E+03  0.57014820144E+03  0.12499982752E+03 0.  0.
          2    1    1    2  501    0 -0.11282507532E+03 -0.36727561936E+01  0.15145066608E+03  0.18889227358E+03  0.00000000000E+00 0. -1.
          1    1    1    2  502    0  0.29439239819E+02  0.46595881526E+02  0.14343678303E+04  0.14354263888E+04  0.00000000000E+00 0. -1.
         22    1    3    3    0    0  0.56094627839E+02 -0.25106908878E+01  0.71817868985E+02  0.91163134800E+02  0.00000000000E+00 0.  1.
         22    1    3    3    0    0  0.27291207666E+02 -0.40412434445E+02  0.47649629504E+03  0.47898506664E+03  0.00000000000E+00 0.  1.
</event>
<event>
 7    1  0.4915160E-006  0.1253881E+03  0.7818608E-02  0.1249170E+00
          2   -1    0    0  502    0  0.00000000000E+00  0.00000000000E+00  0.22573031869E+04  0.22573031869E+04  0.00000000000E+00 0. -1.
          1   -1    0    0  501    0 -0.00000000000E+00 -0.00000000000E+00 -0.20166514888E+04  0.20166514888E+04  0.00000000000E+00 0. -1.
         25    2    1    2    0    0 -0.58842859334E+02 -0.85618753694E+02  0.33370468473E+03  0.37118260920E+03  0.12499863874E+03 0.  0.
          2    1    1    2  501    0 -0.44330680542E+02  0.11768551839E+03 -0.19943984498E+04  0.19983593939E+04  0.00000000000E+00 0. -1.
          1    1    1    2  502    0  0.10317353988E+03 -0.32066764701E+02  0.19013454633E+04  0.19044126726E+04  0.00000000000E+00 0. -1.
         22    1    3    3    0    0  0.14921288273E+02 -0.14862677668E+02 -0.11334672173E+01  0.21090964395E+02  0.00000000000E+00 0.  1.
         22    1    3    3    0    0 -0.73764147607E+02 -0.70756076026E+02  0.33483815194E+03  0.35009164481E+03  0.00000000000E+00 0.  1.
</event>
<event>
 7    1  0.4915160E-006  0.1581561E+03  0.7818608E-02  0.1374694E+00
          2   -1    0    0  502    0  0.00000000000E+00  0.00000000000E+00  0.61979812987E+03  0.61979812987E+03  0.00000000000E+00 0. -1.
          1   -1    0    0  501    0 -0.00000000000E+00 -0.00000000000E+00 -0.21654764254E+03  0.21654764254E+03  0.00000000000E+00 0. -1.
         25    2    1    2    0    0 -0.15022674672E+03  0.71624330285E+02  0.94397852083E+00  0.20814365125E+03  0.12499907337E+03 0.  0.
          2    1    1    2  501    0  0.20771408672E+02  0.17933103026E+02 -0.99015120801E+02  0.10274746590E+03  0.00000000000E+00 0. -1.
          1    1    1    2  502    0  0.12945533805E+03 -0.89557433311E+02  0.50132162961E+03  0.52545465525E+03  0.00000000000E+00 0. -1.
         22    1    3    3    0    0 -0.65979536145E+01 -0.29951780230E+02 -0.89474227901E+01  0.31948372500E+02  0.00000000000E+00 0.  1.
         22    1    3    3    0    0 -0.14362879310E+03  0.10157611051E+03  0.98914013109E+01  0.17619527875E+03  0.00000000000E+00 0.  1.
</event>
<event>
 7    1  0.4915160E-006  0.5377236E+02  0.7818608E-02  0.1494641E+00
          2   -1    0    0  502    0  0.00000000000E+00  0.00000000000E+00  0.15703540279E+04  0.15703540279E+04  0.00000000000E+00 0. -1.
          1   -1    0    0  501    0 -0.00000000000E+00 -0.00000000000E+00 -0.11204417006E+04  0.11204417006E+04  0.00000000000E+00 0. -1.
         25    2    1    2    0    0 -0.72919131719E+01  0.24842305718E+02  0.14827759770E+03  0.19565804059E+03  0.12500204285E+03 0.  0.
          2    1    1    2  501    0 -0.90308619682E+01 -0.53127695260E+02 -0.10958986285E+04  0.10972228180E+04  0.00000000000E+00 0. -1.
          1    1    1    2  502    0  0.16322775140E+02  0.28285389542E+02  0.13975333582E+04  0.13979148699E+04  0.00000000000E+00 0. -1.
         22    1    3    3    0    0  0.36264340355E+02 -0.34878895500E+02  0.38686070126E+02  0.63468509944E+02  0.00000000000E+00 0.  1.
         22    1    3    3    0    0 -0.43556253527E+02  0.59721201217E+02  0.10959152758E+03  0.13218953065E+03  0.00000000000E+00 0.  1.
</event>
<event>
 7    1  0.4915160E-006  0.1006345E+03  0.7818608E-02  0.1308295E+00
          2   -1    0    0  502    0  0.00000000000E+00  0.00000000000E+00  0.19077813361E+04  0.19077813361E+04  0.00000000000E+00 0. -1.
          1   -1    0    0  501    0 -0.00000000000E+00 -0.00000000000E+00 -0.13503323267E+03  0.13503323267E+03  0.00000000000E+00 0. -1.
         25    2    1    2    0    0  0.11318294533E+03 -0.47605136196E+02  0.57989986730E+03  0.60579022829E+03  0.12498526512E+03 0.  0.
          2    1    1    2  501    0 -0.48364847042E+02  0.88393833104E+02 -0.99970545596E+02  0.14193920581E+03  0.00000000000E+00 0. -1.
          1    1    1    2  502    0 -0.64818098286E+02 -0.40788696908E+02  0.12928187817E+04  0.12950851347E+04  0.00000000000E+00 0. -1.
         22    1    3    3    0    0  0.90593868514E+02  0.27624197601E+02  0.27154362872E+03  0.28758700875E+03  0.00000000000E+00 0. -1.
         22    1    3    3    0    0  0.22589076814E+02 -0.75229333797E+02  0.30835623858E+03  0.31820321954E+03  0.00000000000E+00 0. -1.
</event>
<event>
 7    1  0.4915160E-006  0.1808702E+03  0.7818608E-02  0.1355021E+00
          2   -1    0    0  502    0  0.00000000000E+00  0.00000000000E+00  0.40296595976E+03  0.40296595976E+03  0.00000000000E+00 0. -1.
          1   -1    0    0  501    0 -0.00000000000E+00 -0.00000000000E+00 -0.81717822791E+03  0.81717822791E+03  0.00000000000E+00 0. -1.
         25    2    1    2    0    0 -0.10340670294E+02  0.17945631238E+03 -0.57672083788E+02  0.22641305283E+03  0.12500121490E+03 0.  0.
          2    1    1    2  501    0 -0.28190965106E+02 -0.21834282333E+01 -0.64897827741E+03  0.64959395196E+03  0.00000000000E+00 0. -1.
          1    1    1    2  502    0  0.38531635399E+02 -0.17727288414E+03  0.29243809304E+03  0.34413718288E+03  0.00000000000E+00 0. -1.
         22    1    3    3    0    0 -0.26838880477E+02 -0.94680293539E+00  0.15534098530E+02  0.31024670154E+02  0.00000000000E+00 0.  1.
         22    1    3    3    0    0  0.16498210183E+02  0.18040311531E+03 -0.73206182317E+02  0.19538838267E+03  0.00000000000E+00 0.  1.
</event>
<event>
 7    1  0.4915160E-006  0.4758803E+02  0.7818608E-02  0.1523965E+00
          2   -1    0    0  502    0  0.00000000000E+00  0.00000000000E+00  0.16551323908E+04  0.16551323908E+04  0.00000000000E+00 0. -1.
          1   -1    0    0  501    0 -0.00000000000E+00 -0.00000000000E+00 -0.30475462062E+03  0.30475462062E+03  0.00000000000E+00 0. -1.
         25    2    1    2    0    0 -0.64619894620E+02 -0.22445206776E+02 -0.14363577688E+03  0.20232631903E+03  0.12500073953E+03 0.  0.
          2    1    1    2  501    0  0.35031565893E+02  0.28705655579E+02 -0.12773684575E+03  0.13552832557E+03  0.00000000000E+00 0. -1.
          1    1    1    2  502    0  0.29588328727E+02 -0.62604488023E+01  0.16217503929E+04  0.16220323669E+04  0.00000000000E+00 0. -1.
         22    1    3    3    0    0 -0.31682769570E+02  0.56730795625E+01 -0.15438562947E+03  0.15770511820E+03  0.00000000000E+00 0. -1.
         22    1    3    3    0    0 -0.32937125050E+02 -0.28118286339E+02  0.10749852584E+02  0.44621200833E+02  0.00000000000E+00 0. -1.
</event>
<event>
 7    1  0.4915160E-006  0.9368402E+02  0.7818608E-02  0.1364851E+00
          2   -1    0    0  502    0  0.00000000000E+00  0.00000000000E+00  0.93827658912E+03  0.93827658912E+03  0.00000000000E+00 0. -1.
          1   -1    0    0  501    0 -0.00000000000E+00 -0.00000000000E+00 -0.18049956649E+04  0.18049956649E+04  0.00000000000E+00 0. -1.
         25    2    1    2    0    0  0.67832769986E+02 -0.11091448234E+03 -0.42870669280E+02  0.18538611014E+03  0.12500723369E+03 0.  0.
          2    1    1    2  501    0 -0.21890811183E+02  0.90530830527E+02 -0.16888546073E+04  0.16914209776E+04  0.00000000000E+00 0. -1.
          1    1    1    2  502    0 -0.45941958802E+02  0.20383651809E+02  0.86500620083E+03  0.86646516624E+03  0.00000000000E+00 0. -1.
         22    1    3    3    0    0  0.53189185893E+02  0.13652453421E+02 -0.11694187121E+02  0.56144750359E+02  0.00000000000E+00 0. -1.
         22    1    3    3    0    0  0.14643584092E+02 -0.12456693576E+03 -0.31176482158E+02  0.12924135978E+03  0.00000000000E+00 0. -1.
</event>
<event>
 7    1  0.4915160E-006  0.9564021E+02  0.7818608E-02  0.1428607E+00
          2   -1    0    0  502    0  0.00000000000E+00  0.00000000000E+00  0.11782313187E+03  0.11782313187E+03  0.00000000000E+00 0. -1.
          1   -1    0    0  501    0 -0.00000000000E+00 -0.00000000000E+00 -0.29982295813E+04  0.29982295813E+04  0.00000000000E+00 0. -1.
         25    2    1    2    0    0  0.10735134692E+03  0.51003940334E+01 -0.56124448724E+03  0.58495396467E+03  0.12500176249E+03 0.  0.
          2    1    1    2  501    0 -0.92709803415E+02  0.20668323291E+02 -0.24221087846E+04  0.24239705551E+04  0.00000000000E+00 0. -1.
          1    1    1    2  502    0 -0.14641543503E+02 -0.25768717324E+02  0.10294682241E+03  0.10712819345E+03  0.00000000000E+00 0. -1.
         22    1    3    3    0    0  0.11831926563E+03  0.31892340796E+02 -0.52197649091E+03  0.53616790941E+03  0.00000000000E+00 0.  1.
         22    1    3    3    0    0 -0.10967918714E+02 -0.26791946762E+02 -0.39267996333E+02  0.48786055264E+02  0.00000000000E+00 0.  1.
</event>
<event>
 7    1  0.4915160E-006  0.1889242E+03  0.7818608E-02  0.1171342E+00
          2   -1    0    0  502    0  0.00000000000E+00  0.00000000000E+00  0.14781947932E+04  0.14781947932E+04  0.00000000000E+00 0. -1.
          1   -1    0    0  501    0 -0.00000000000E+00 -0.00000000000E+00 -0.11710171607E+04  0.11710171607E+04  0.00000000000E+00 0. -1.
         25    2    1    2    0    0 -0.43687597668E+02  0.24586524591E+03 -0.49429277152E+03  0.56772276426E+03  0.12500187097E+03 0.  0.
          2    1    1    2  501    0  0.14245619448E+03 -0.11407930137E+03 -0.62215432965E+03  0.64837015990E+03  0.00000000000E+00 0. -1.
          1    1    1    2  502    0 -0.98768596812E+02 -0.13178594454E+03  0.14236247337E+04  0.14331190297E+04  0.00000000000E+00 0. -1.
         22    1    3    3    0    0  0.36865507052E+02  0.13834718677E+03 -0.22333638434E+03  0.26528880540E+03  0.00000000000E+00 0.  1.
         22    1    3    3    0    0 -0.80553104720E+02  0.10751805914E+03 -0.27095638718E+03  0.30243395887E+03  0.00000000000E+00 0.  1.
</event>
<event>
 7    1  0.4915160E-006  0.8918420E+02  0.7818608E-02  0.1415198E+00
          2   -1    0    0  502    0  0.00000000000E+00  0.00000000000E+00  0.30632299126E+04  0.30632299126E+04  0.00000000000E+00 0. -1.
          1   -1    0    0  501    0 -0.00000000000E+00 -0.00000000000E+00 -0.19776586854E+03  0.19776586854E+03  0.00000000000E+00 0. -1.
         25    2    1    2    0    0 -0.42689006502E+02  0.43260733467E+02  0.61500613996E+03  0.63051743661E+03  0.12500337336E+03 0.  0.
          2    1    1    2  501    0  0.77893354072E+02 -0.44493559083E+02 -0.17928777781E+03  0.20047732710E+03  0.00000000000E+00 0. -1.
          1    1    1    2  502    0 -0.35204347570E+02  0.12328256167E+01  0.24297456819E+04  0.24300010174E+04  0.00000000000E+00 0. -1.
         22    1    3    3    0    0 -0.57226764919E+02  0.80604488376E+02  0.42853071123E+03  0.43978467076E+03  0.00000000000E+00 0. -1.
         22    1    3    3    0    0  0.14537758417E+02 -0.37343754909E+02  0.18647542872E+03  0.19073276585E+03  0.00000000000E+00 0. -1.
</event>
<event>
 7    1  0.4915160E-006  0.5069567E+02  0.7818608E-02  0.1491899E+00
          2   -1    0    0  502    0  0.00000000000E+00  0.00000000000E+00  0.25041527862E+04  0.25041527862E+04  0.00000000000E+00 0. -1.
          1   -1    0    0  501    0 -0.00000000000E+00 -0.00000000000E+00 -0.80976891192E+03  0.80976891192E+03  0.00000000000E+00 0. -1.
         25    2    1    2    0    0  0.38175539646E+02 -0.19937322092E+02  0.28344843164E+03  0.31277204024E+03  0.12501386771E+03 0.  0.
          2    1    1    2  501    0  0.11063365473E+02  0.33525903124E+02 -0.79441933860E+03  0.79520341409E+03  0.00000000000E+00 0. -1.
          1    1    1    2  502    0 -0.49238905118E+02 -0.13588581033E+02  0.22053547813E+04  0.22059462438E+04  0.00000000000E+00 0. -1.
         22    1    3    3    0    0  0.60767246848E+02 -0.19302211504E+02  0.57998105915E+02  0.86191727841E+02  0.00000000000E+00 0.  1.
         22    1    3    3    0    0 -0.22591707203E+02 -0.63511058771E+00  0.22545032572E+03  0.22658031240E+03  0.00000000000E+00 0.  1.
</event>
<event>
 7    1  0.4915160E-006  0.4669166E+02  0.7818608E-02  0.1532197E+00
          2   -1    0    0  502    0  0.00000000000E+00  0.00000000000E+00  0.27664002474E+04  0.27664002474E+04  0.00000000000E+00 0. -1.
          1   -1    0    0  501    0 -0.00000000000E+00 -0.00000000000E+00 -0.92068815098E+02  0.92068815098E+02  0.00000000000E+00 0. -1.
         25    2    1    2    0    0  0.56125170108E+02  0.48781535806E+02  0.99483366419E+03  0.10054098793E+04  0.12500133231E+03 0.  0.
          2    1    1    2  501    0 -0.22354471174E+02 -0.18771478263E+02 -0.84028476220E+02  0.88954345558E+02  0.00000000000E+00 0. -1.
          1    1    1    2  502    0 -0.33770698934E+02 -0.30010057543E+02  0.17635262443E+04  0.17641048376E+04  0.00000000000E+00 0. -1.
         22    1    3    3    0    0  0.41154406964E+02 -0.38294144647E+02  0.44200199508E+03  0.44556244274E+03  0.00000000000E+00 0.  1.
         22    1    3    3    0    0  0.14970763144E+02  0.87075680454E+02  0.55283166911E+03  0.55984743658E+03  0.00000000000E+00 0.  1.
</event>
<event>
 7    1  0.4915160E-006  0.7860296E+02  0.7818608E-02  0.1448939E+00
          2   -1    0    0  502    0  0.00000000000E+00  0.00000000000E+00  0.24118215777E+03  0.24118215777E+03  0.00000000000E+00 0. -1.
          1   -1    0    0  501    0 -0.00000000000E+00 -0.00000000000E+00 -0.87822009750E+02  0.87822009750E+02  0.00000000000E+00 0. -1.
         25    2    1    2    0    0  0.56453915427E+02  0.94921382033E+01  0.59851003292E+02  0.14995046772E+03  0.12500341963E+03 0.  0.
          2    1    1    2  501    0  0.24177592825E+02  0.19354639607E+02 -0.19997961892E+02  0.36865655412E+02  0.00000000000E+00 0. -1.
          1    1    1    2  502    0 -0.80631508251E+02 -0.28846777810E+02  0.11350710661E+03  0.14218804438E+03  0.00000000000E+00 0. -1.
         22    1    3    3    0    0  0.66991220823E+01  0.16710680187E+02  0.89695112194E+02  0.91484087252E+02  0.00000000000E+00 0. -1.
         22    1    3    3    0    0  0.49754793344E+02 -0.72185419833E+01 -0.29844108901E+02  0.58466380469E+02  0.00000000000E+00 0. -1.
</event>
<event>
 7    1  0.4915160E-006  0.5772154E+02  0.7818608E-02  0.1490497E+00
          2   -1    0    0  502    0  0.00000000000E+00  0.00000000000E+00  0.22690467465E+04  0.22690467465E+04  0.00000000000E+00 0. -1.
          1   -1    0    0  501    0 -0.00000000000E+00 -0.00000000000E+00 -0.18954526021E+04  0.18954526021E+04  0.00000000000E+00 0. -1.
         25    2    1    2    0    0 -0.19141182693E+02 -0.18545483507E+02  0.32872029463E+02  0.13194494097E+03  0.12497430654E+03 0.  0.
          2    1    1    2  501    0 -0.22549782902E+02 -0.21722513465E+02 -0.18453992100E+04  0.18456648137E+04  0.00000000000E+00 0. -1.
          1    1    1    2  502    0  0.41690965595E+02  0.40267996972E+02  0.21861213250E+04  0.21868895939E+04  0.00000000000E+00 0. -1.
         22    1    3    3    0    0  0.31229620743E+02 -0.75201651140E+01  0.64074679407E+02  0.71675704644E+02  0.00000000000E+00 0.  1.
         22    1    3    3    0    0 -0.50370803435E+02 -0.11025318393E+02 -0.31202649944E+02  0.60269236331E+02  0.00000000000E+00 0.  1.
</event>
<event>
 7    1  0.4915160E-006  0.7297137E+02  0.7818608E-02  0.1381713E+00
          2   -1    0    0  502    0  0.00000000000E+00  0.00000000000E+00  0.49196931708E+03  0.49196931708E+03  0.00000000000E+00 0. -1.
          1   -1    0    0  501    0 -0.00000000000E+00 -0.00000000000E+00 -0.96391251826E+02  0.96391251826E+02  0.00000000000E+00 0. -1.
         25    2    1    2    0    0 -0.72082486572E+01 -0.10110936540E+03  0.23688590684E+03  0.28638361619E+03  0.12500232055E+03 0.  0.
          2    1    1    2  501    0  0.39564924670E+02  0.39855632540E+02 -0.54230016475E+02  0.78068875976E+02  0.00000000000E+00 0. -1.
          1    1    1    2  502    0 -0.32356676013E+02  0.61253732855E+02  0.21292217489E+03  0.22390807674E+03  0.00000000000E+00 0. -1.
         22    1    3    3    0    0 -0.81112465568E+00  0.65895637072E+01 -0.12781141129E+02  0.14402702581E+02  0.00000000000E+00 0.  1.
         22    1    3    3    0    0 -0.63971240015E+01 -0.10769892910E+03  0.24966704797E+03  0.27198091361E+03  0.00000000000E+00 0.  1.
</event>
<event>
 7    1  0.4915160E-006  0.5836058E+02  0.7818608E-02  0.1505973E+00
          2   -1    0    0  502    0  0.00000000000E+00  0.00000000000E+00  0.20424609702E+04  0.20424609702E+04  0.00000000000E+00 0. -1.
          1   -1    0    0  501    0 -0.00000000000E+00 -0.00000000000E+00 -0.43741182257E+02  0.43741182257E+02  0.00000000000E+00 0. -1.
         25    2    1    2    0    0 -0.41869751203E+02 -0.62810996272E+02  0.64960868662E+03  0.66581924549E+03  0.12500209843E+03 0.  0.
          2    1    1    2  501    0  0.45899186506E+02  0.35267696191E+02 -0.11893925743E+02  0.59093241459E+02  0.00000000000E+00 0. -1.
          1    1    1    2  502    0 -0.40294353023E+01  0.27543300081E+02  0.13610050270E+04  0.13612896655E+04  0.00000000000E+00 0. -1.
         22    1    3    3    0    0 -0.56843163831E+02 -0.16927627885E+02  0.11842032936E+03  0.13244268294E+03  0.00000000000E+00 0.  1.
         22    1    3    3    0    0  0.14973412628E+02 -0.45883368387E+02  0.53118835727E+03  0.53337656255E+03  0.00000000000E+00 0.  1.
</event>
<event>
 7    1  0.4915160E-006  0.4320535E+02  0.7818608E-02  0.1543924E+00
          2   -1    0    0  502    0  0.00000000000E+00  0.00000000000E+00  0.22389936607E+03  0.22389936607E+03  0.00000000000E+00 0. -1.
          1   -1    0    0  501    0 -0.00000000000E+00 -0.00000000000E+00 -0.68538197353E+02  0.68538197353E+02  0.00000000000E+00 0. -1.
         25    2    1    2    0    0 -0.29136961111E+02  0.19362954059E+02  0.68322910193E+02  0.14668569820E+03  0.12499915002E+03 0.  0.
          2    1    1    2  501    0  0.45738640985E+02  0.46850887796E+01 -0.76919326195E+01  0.46616940735E+02  0.00000000000E+00 0. -1.
          1    1    1    2  502    0 -0.16601679874E+02 -0.24048042839E+02  0.94730191141E+02  0.99134924485E+02  0.00000000000E+00 0. -1.
         22    1    3    3    0    0 -0.16871199009E+01 -0.49998441140E+02  0.48095236965E+02  0.69396270136E+02  0.00000000000E+00 0. -1.
         22    1    3    3    0    0 -0.27449841210E+02  0.69361395199E+02  0.20227673227E+02  0.77289428065E+02  0.00000000000E+00 0. -1.
</event>
<event>
 7    1  0.4915160E-006  0.1308344E+03  0.7818608E-02  0.1428133E+00
          2   -1    0    0  502    0  0.00000000000E+00  0.00000000000E+00  0.18387561415E+03  0.18387561415E+03  0.00000000000E+00 0. -1.
          1   -1    0    0  501    0 -0.00000000000E+00 -0.00000000000E+00 -0.17333335506E+04  0.17333335506E+04  0.00000000000E+00 0. -1.
         25    2    1    2    0    0 -0.10400416059E+03  0.10892453558E+03 -0.29358979048E+03  0.35284876283E+03  0.12500345788E+03 0.  0.
          2    1    1    2  501    0  0.89410164559E+02 -0.92806432533E+02 -0.14063871475E+04  0.14122790164E+04  0.00000000000E+00 0. -1.
          1    1    1    2  502    0  0.14593996031E+02 -0.16118103052E+02  0.15051900160E+03  0.15208138548E+03  0.00000000000E+00 0. -1.
         22    1    3    3    0    0 -0.97339468000E+01  0.80895554100E+02 -0.65786232998E+02  0.10472186422E+03  0.00000000000E+00 0.  1.
         22    1    3    3    0    0 -0.94270213790E+02  0.28028981485E+02 -0.22780355749E+03  0.24812689861E+03  0.00000000000E+00 0.  1.
</event>
<event>
 7    1  0.4915160E-006  0.1029234E+03  0.7818608E-02  0.1454304E+00
          2   -1    0    0  502    0  0.00000000000E+00  0.00000000000E+00  0.46889928162E+03  0.46889928162E+03  0.00000000000E+00 0. -1.
          1   -1    0    0  501    0 -0.00000000000E+00 -0.00000000000E+00 -0.83724232123E+03  0.83724232123E+03  0.00000000000E+00 0. -1.
         25    2    1    2    0    0 -0.10214854875E+03  0.12821652687E+02 -0.37092982393E+02  0.16613186194E+03  0.12500074168E+03 0.  0.
          2    1    1    2  501    0  0.96945447938E+02 -0.34955753584E+02 -0.73169655475E+03  0.73891824502E+03  0.00000000000E+00 0. -1.
          1    1    1    2  502    0  0.52031008086E+01  0.22134100897E+02  0.40044649754E+03  0.40109149589E+03  0.00000000000E+00 0. -1.
         22    1    3    3    0    0 -0.33534167975E+02  0.22284979595E+02 -0.76495337616E+02  0.86444765106E+02  0.00000000000E+00 0. -1.
         22    1    3    3    0    0 -0.68614380772E+02 -0.94633269083E+01  0.39402355223E+02  0.79687096835E+02  0.00000000000E+00 0. -1.
</event>
<event>
 7    1  0.4915160E-006  0.1228840E+03  0.7818608E-02  0.1343584E+00
          2   -1    0    0  502    0  0.00000000000E+00  0.00000000000E+00  0.17927172297E+04  0.17927172297E+04  0.00000000000E+00 0. -1.
          1   -1    0    0  501    0 -0.00000000000E+00 -0.00000000000E+00 -0.22677076395E+02  0.22677076395E+02  0.00000000000E+00 0. -1.
         25    2    1    2    0    0 -0.13887194622E+03  0.35701605977E+01  0.90779804610E+03  0.92683374912E+03  0.12500137002E+03 0.  0.
          2    1    1    2  501    0  0.11420128293E+03  0.35122182660E+02  0.27888377032E+03  0.30340016164E+03  0.00000000000E+00 0. -1.
          1    1    1    2  502    0  0.24670663294E+02 -0.38692343258E+02  0.58335833693E+03  0.58516039538E+03  0.00000000000E+00 0. -1.
         22    1    3    3    0    0 -0.36302501788E+02  0.26900934220E+02  0.59720343357E+03  0.59891023782E+03  0.00000000000E+00 0.  1.
         22    1    3    3    0    0 -0.10256944443E+03 -0.23330773623E+02  0.31059461254E+03  0.32792351130E+03  0.00000000000E+00 0.  1.
</event>
<event>
 7    1  0.4915160E-006  0.1353011E+03  0.7818608E-02  0.1301471E+00
          2   -1    0    0  502    0  0.00000000000E+00  0.00000000000E+00  0.13190570244E+04  0.13190570244E+04  0.00000000000E+00 0. -1.
          1   -1    0    0  501    0 -0.00000000000E+00 -0.00000000000E+00 -0.28959046123E+03  0.28959046123E+03  0.00000000000E+00 0. -1.
         25    2    1    2    0    0  0.79155217093E+02 -0.52815702491E+01  0.17288322169E+02  0.14905800111E+03  0.12500383287E+03 0.  0.
          2    1    1    2  501    0  0.59297489698E+02  0.12643212880E+02 -0.21562278957E+03  0.22398488900E+03  0.00000000000E+00 0. -1.
          1    1    1    2  502    0 -0.13845270679E+03 -0.73616426307E+01  0.12278010306E+04  0.12356045955E+04  0.00000000000E+00 0. -1.
         22    1    3    3    0    0  0.47524154215E+02 -0.36900229280E+02 -0.43027351457E+02  0.73969758199E+02  0.00000000000E+00 0. -1.
         22    1    3    3    0    0  0.31631062879E+02  0.31618659030E+02  0.60315673626E+02  0.75088242906E+02  0.00000000000E+00 0. -1.
</event>
<event>
 7    1  0.4915160E-006  0.1802873E+03  0.7818608E-02  0.1174005E+00
          2   -1    0    0  502    0  0.00000000000E+00  0.00000000000E+00  0.25362200879E+03  0.25362200879E+03  0.00000000000E+00 0. -1.
          1   -1    0    0  501    0 -0.00000000000E+00 -0.00000000000E+00 -0.45960644361E+03  0.45960644361E+03  0.00000000000E+00 0. -1.
         25    2    1    2    0    0 -0.89141392760E+02 -0.16858285570E+03 -0.77119844663E+02  0.24070505821E+03  0.12500034987E+03 0.  0.
          2    1    1    2  501    0  0.19568800768E+03  0.39434459699E+02 -0.20716619918E+03  0.28769203507E+03  0.00000000000E+00 0. -1.
          1    1    1    2  502    0 -0.10654661492E+03  0.12914839600E+03  0.78301609024E+02  0.18483135912E+03  0.00000000000E+00 0. -1.
         22    1    3    3    0    0  0.80098380117E+01 -0.11727804538E+03 -0.31142710278E+02  0.12160660277E+03  0.00000000000E+00 0.  1.
         22    1    3    3    0    0 -0.97151230772E+02 -0.51304810319E+02 -0.45977134385E+02  0.11909845544E+03  0.00000000000E+00 0.  1.
</event>
<event>
 7    1  0.4915160E-006  0.5884573E+02  0.7818608E-02  0.1433431E+00
          2   -1    0    0  502    0  0.00000000000E+00  0.00000000000E+00  0.15657735522E+04  0.15657735522E+04  0.00000000000E+00 0. -1.
          1   -1    0    0  501    0 -0.00000000000E+00 -0.00000000000E+00 -0.92439730984E+03  0.92439730984E+03  0.00000000000E+00 0. -1.
         25    2    1    2    0    0  0.80723633330E+02  0.54733363895E+02  0.38167819894E+02  0.16307723640E+03  0.12500142582E+03 0.  0.
          2    1    1    2  501    0 -0.24163913778E+02 -0.39660846829E+02 -0.86073172820E+03  0.86198375010E+03  0.00000000000E+00 0. -1.
          1    1    1    2  502    0 -0.56559719552E+02 -0.15072517066E+02  0.14639401507E+04  0.14651098756E+04  0.00000000000E+00 0. -1.
         22    1    3    3    0    0  0.51393756573E+02 -0.75675161793E+01  0.70037714645E+02  0.87200154751E+02  0.00000000000E+00 0. -1.
         22    1    3    3    0    0  0.29329876757E+02  0.62300880075E+02 -0.31869894752E+02  0.75877081653E+02  0.00000000000E+00 0. -1.
</event>
<event>
 7    1  0.4915160E-006  0.9244719E+02  0.7818608E-02  0.1334456E+00
          2   -1    0    0  502    0  0.00000000000E+00  0.00000000000E+00  0.15035723545E+03  0.15035723545E+03  0.00000000000E+00 0. -1.
          1   -1    0    0  501    0 -0.00000000000E+00 -0.00000000000E+00 -0.22517490874E+04  0.22517490874E+04  0.00000000000E+00 0. -1.
         25    2    1    2    0    0 -0.10304780597E+03 -0.73729133740E+02 -0.21931553874E+03  0.28245228257E+03  0.12500060368E+03 0.  0.
          2    1    1    2  501    0  0.65371118625E+02 -0.92560200987E+01 -0.19827537338E+04  0.19838526724E+04  0.00000000000E+00 0. -1.
          1    1    1    2  502    0  0.37676687348E+02  0.82985153839E+02  0.10067742051E+03  0.13580136792E+03  0.00000000000E+00 0. -1.
         22    1    3    3    0    0  0.74910650148E+01 -0.42182752883E+02 -0.10536909679E+02  0.44119464654E+02  0.00000000000E+00 0.  1.
         22    1    3    3    0    0 -0.11053887099E+03 -0.31546380858E+02 -0.20877862906E+03  0.23833281792E+03  0.00000000000E+00 0.  1.
</event>
<event>
 7    1  0.4915160E-006  0.5704620E+02  0.7818608E-02  0.1461547E+00
          2   -1    0    0  502    0  0.00000000000E+00  0.00000000000E+00  0.14828679027E+04  0.14828679027E+04  0.00000000000E+00 0. -1.
          1   -1    0    0  501    0 -0.00000000000E+00 -0.00000000000E+00 -0.10267380546E+04  0.10267380546E+04  0.00000000000E+00 0. -1.
         25    2    1    2    0    0 -0.14317947011E+02  0.85942072096E+02  0.35732617973E+03  0.38845324058E+03  0.12499151185E+03 0.  0.
          2    1    1    2  501    0 -0.12438683186E+02 -0.36873148249E+02 -0.10100960776E+04  0.10108454065E+04  0.00000000000E+00 0. -1.
          1    1    1    2  502    0  0.26756630198E+02 -0.49068923848E+02  0.11088997459E+04  0.11103073102E+04  0.00000000000E+00 0. -1.
         22    1    3    3    0    0 -0.58324936278E+02  0.90970529300E+02  0.25495333832E+03  0.27690908276E+03  0.00000000000E+00 0. -1.
         22    1    3    3    0    0  0.44006989267E+02 -0.50284572033E+01  0.10237284141E+03  0.11154415782E+03  0.00000000000E+00 0. -1.
</event>
<event>
 7    1  0.4915160E-006  0.7154797E+02  0.7818608E-02  0.1509651E+00
          2   -1    0    0  502    0  0.00000000000E+00  0.00000000000E+00  0.10887310572E+04  0.10887310572E+04  0.00000000000E+00 0. -1.
          1   -1    0    0  501    0 -0.00000000000E+00 -0.00000000000E+00 -0.46765410427E+02  0.46765410427E+02  0.00000000000E+00 0. -1.
         25    2    1    2    0    0 -0.51113159294E+02 -0.36338866078E+00  0.57189871008E+03  0.58762619978E+03  0.12499491577E+03 0.  0.
          2    1    1    2  501    0  0.72588875277E+02 -0.50403611831E+01 -0.43907889899E+01  0.72896015548E+02  0.00000000000E+00 0. -1.
          1    1    1    2  502    0 -0.21475715983E+02  0.54037498439E+01  0.47445772566E+03  0.47497425228E+03  0.00000000000E+00 0. -1.
         22    1    3    3    0    0 -0.85748147838E+02  0.20557358789E+02  0.46581693266E+03  0.47408940571E+03  0.00000000000E+00 0.  1.
         22    1    3    3    0    0  0.34634988543E+02 -0.20920747450E+02  0.10608177742E+03  0.11353679406E+03  0.00000000000E+00 0.  1.
</event>
<event>
 7    1  0.4915160E-006  0.6686318E+02  0.7818608E-02  0.1376346E+00
          2   -1    0    0  502    0  0.00000000000E+00  0.00000000000E+00  0.22181186304E+03  0.22181186304E+03  0.00000000000E+00 0. -1.
          1   -1    0    0  501    0 -0.00000000000E+00 -0.00000000000E+00 -0.50864242184E+03  0.50864242184E+03  0.00000000000E+00 0. -1.
         25    2    1    2    0    0 -0.45838574504E+01 -0.80107715811E+01 -0.13442145954E+03  0.18378516893E+03  0.12499070094E+03 0.  0.
          2    1    1    2  501    0  0.31290851960E+02 -0.55869890520E+02 -0.34038030236E+03  0.34635142892E+03  0.00000000000E+00 0. -1.
          1    1    1    2  502    0 -0.26706994510E+02  0.63880662101E+02  0.18797120309E+03  0.20031768703E+03  0.00000000000E+00 0. -1.
         22    1    3    3    0    0  0.44451085961E+02 -0.36452686803E+02 -0.10550343294E+03  0.12014854049E+03  0.00000000000E+00 0. -1.
         22    1    3    3    0    0 -0.49034943411E+02  0.28441915222E+02 -0.28918026597E+02  0.63636628439E+02  0.00000000000E+00 0. -1.
</event>
<event>
 7    1  0.4915160E-006  0.3344886E+03  0.7818608E-02  0.1071903E+00
          2   -1    0    0  502    0  0.00000000000E+00  0.00000000000E+00  0.13772293844E+04  0.13772293844E+04  0.00000000000E+00 0. -1.
          1   -1    0    0  501    0 -0.00000000000E+00 -0.00000000000E+00 -0.44785699802E+03  0.44785699802E+03  0.00000000000E+00 0. -1.
         25    2    1    2    0    0 -0.59221644340E+02  0.25768999807E+02 -0.85082220272E+02  0.16442632318E+03  0.12500314812E+03 0.  0.
          2    1    1    2  501    0 -0.15397299174E+03  0.29694263565E+03 -0.19752813244E+03  0.38845845872E+03  0.00000000000E+00 0. -1.
          1    1    1    2  502    0  0.21319463608E+03 -0.32271163546E+03  0.12119827391E+04  0.12722016005E+04  0.00000000000E+00 0. -1.
         22    1    3    3    0    0 -0.80378260190E+02  0.14858054151E+02 -0.10522511063E+03  0.13324320017E+03  0.00000000000E+00 0.  1.
         22    1    3    3    0    0  0.21156615850E+02  0.10910945656E+02  0.20142890354E+02  0.31183123018E+02  0.00000000000E+00 0.  1.
</event>
<event>
 7    1  0.4915160E-006  0.7753344E+02  0.7818608E-02  0.1435713E+00
          2   -1    0    0  502    0  0.00000000000E+00  0.00000000000E+00  0.80549830220E+03  0.80549830220E+03  0.00000000000E+00 0. -1.
          1   -1    0    0  501    0 -0.00000000000E+00 -0.00000000000E+00 -0.58952896320E+02  0.58952896320E+02  0.00000000000E+00 0. -1.
         25    2    1    2    0    0  0.54589484134E+02 -0.81931618554E+02  0.32698191095E+03  0.36364138526E+03  0.12500034035E+03 0.  0.
          2    1    1    2  501    0 -0.58983128434E+02  0.47563519084E+02 -0.39568333895E+01  0.75874595998E+02  0.00000000000E+00 0. -1.
          1    1    1    2  502    0  0.43936442996E+01  0.34368099470E+02  0.42352032832E+03  0.42493521727E+03  0.00000000000E+00 0. -1.
         22    1    3    3    0    0  0.56397197303E+02 -0.77134692042E+02  0.33812954101E+03  0.35137158548E+03  0.00000000000E+00 0. -1.
         22    1    3    3    0    0 -0.18077131689E+01 -0.47969265123E+01 -0.11147630054E+02  0.12269799782E+02  0.00000000000E+00 0. -1.
</event>
<event>
 7    1  0.4915160E-006  0.5845626E+02  0.7818608E-02  0.1539525E+00
          2   -1    0    0  502    0  0.00000000000E+00  0.00000000000E+00  0.29585682121E+04  0.29585682121E+04  0.00000000000E+00 0. -1.
          1   -1    0    0  501    0 -0.00000000000E+00 -0.00000000000E+00 -0.29970058930E+02  0.29970058930E+02  0.00000000000E+00 0. -1.
         25    2    1    2    0    0 -0.42919602709E+02 -0.39372770079E+02  0.21267260691E+04  0.21311925131E+04  0.12500179012E+03 0.  0.
          2    1    1    2  501    0  0.54782062482E+02  0.20579584374E+02  0.34576544768E+01  0.58622086599E+02  0.00000000000E+00 0. -1.
          1    1    1    2  502    0 -0.11862459773E+02  0.18793185705E+02  0.79841442962E+03  0.79872367137E+03  0.00000000000E+00 0. -1.
         22    1    3    3    0    0 -0.44423546019E+02 -0.51203271067E+02  0.51734531372E+03  0.52176757281E+03  0.00000000000E+00 0. -1.
         22    1    3    3    0    0  0.15039433103E+01  0.11830500989E+02  0.16093807554E+04  0.16094249403E+04  0.00000000000E+00 0. -1.
</event>
<event>
 7    1  0.4915160E-006  0.2182182E+03  0.7818608E-02  0.1317584E+00
          2   -1    0    0  502    0  0.00000000000E+00  0.00000000000E+00  0.12326720938E+03  0.12326720938E+03  0.00000000000E+00 0. -1.
          1   -1    0    0  501    0 -0.00000000000E+00 -0.00000000000E+00 -0.14336811480E+04  0.14336811480E+04  0.00000000000E+00 0. -1.
         25    2    1    2    0    0  0.46216260021E+02 -0.22352836271E+03 -0.11585275576E+03  0.28486430494E+03  0.12499975835E+03 0.  0.
          2    1    1    2  501    0 -0.26110810433E+02  0.19309756604E+02 -0.95951551682E+03  0.96006492912E+03  0.00000000000E+00 0. -1.
          1    1    1    2  502    0 -0.20105449589E+02  0.20421860610E+03 -0.23504566603E+03  0.31201912329E+03  0.00000000000E+00 0. -1.
         22    1    3    3    0    0  0.54595698728E+02 -0.24879700051E+02 -0.39757691819E+02  0.71974744550E+02  0.00000000000E+00 0.  1.
         22    1    3    3    0    0 -0.83794387065E+01 -0.19864866266E+03 -0.76095063943E+02  0.21288956039E+03  0.00000000000E+00 0.  1.
</event>
<event>
 7    1  0.4915160E-006  0.1110197E+03  0.7818608E-02  0.1385645E+00
          2   -1    0    0  502    0  0.00000000000E+00  0.00000000000E+00  0.22588617322E+04  0.22588617322E+04  0.00000000000E+00 0. -1.
          1   -1    0    0  501    0 -0.00000000000E+00 -0.00000000000E+00 -0.16263735565E+03  0.16263735565E+03  0.00000000000E+00 0. -1.
         25    2    1    2    0    0 -0.70515755970E+02 -0.52498770959E+02  0.73636845393E+03  0.75205971606E+03  0.12500689498E+03 0.  0.
          2    1    1    2  501    0  0.68589256721E+02  0.88200703909E+02 -0.13438764997E+03  0.17476810571E+03  0.00000000000E+00 0. -1.
          1    1    1    2  502    0  0.19264992495E+01 -0.35701932950E+02  0.14942435726E+04  0.14946712661E+04  0.00000000000E+00 0. -1.
         22    1    3    3    0    0 -0.29439215732E+02 -0.81851998126E+02  0.60679360774E+03  0.61299665531E+03  0.00000000000E+00 0.  1.
         22    1    3    3    0    0 -0.41076540238E+02  0.29353227167E+02  0.12957484618E+03  0.13906306075E+03  0.00000000000E+00 0.  1.
</event>
<event>
 7    1  0.4915160E-006  0.6165493E+02  0.7818608E-02  0.1394837E+00
          2   -1    0    0  502    0  0.00000000000E+00  0.00000000000E+00  0.29040031959E+03  0.29040031959E+03  0.00000000000E+00 0. -1.
          1   -1    0    0  501    0 -0.00000000000E+00 -0.00000000000E+00 -0.11720155772E+03  0.11720155772E+03  0.00000000000E+00 0. -1.
         25    2    1    2    0    0  0.13483473553E+02 -0.24692882549E+02  0.18899592876E+02  0.12950293021E+03  0.12498908678E+03 0.  0.
          2    1    1    2  501    0 -0.72885329142E+02  0.81777395162E+01 -0.33358399041E+02  0.80572510290E+02  0.00000000000E+00 0. -1.
          1    1    1    2  502    0  0.59401855589E+02  0.16515143032E+02  0.18765756804E+03  0.19752643681E+03  0.00000000000E+00 0. -1.
         22    1    3    3    0    0 -0.37470004405E+02  0.14191235153E+02 -0.29021640074E+02  0.49473709966E+02  0.00000000000E+00 0. -1.
         22    1    3    3    0    0  0.50953477958E+02 -0.38884117702E+02  0.47921232950E+02  0.80029220244E+02  0.00000000000E+00 0. -1.
</event>
<event>
 7    1  0.4915160E-006  0.6771414E+02  0.7818608E-02  0.1508785E+00
          2   -1    0    0  502    0  0.00000000000E+00  0.00000000000E+00  0.83813541472E+03  0.83813541472E+03  0.00000000000E+00 0. -1.
          1   -1    0    0  501    0 -0.00000000000E+00 -0.00000000000E+00 -0.86494097507E+02  0.86494097507E+02  0.00000000000E+00 0. -1.
         25    2    1    2    0    0  0.62744981603E+02  0.18757663803E+02  0.38083795668E+03  0.40614007656E+03  0.12499371933E+03 0.  0.
          2    1    1    2  501    0 -0.54379301242E+02 -0.40757671613E+02 -0.57815975775E+02  0.89224342271E+02  0.00000000000E+00 0. -1.
          1    1    1    2  502    0 -0.83656803615E+01  0.22000007811E+02  0.42861933631E+03  0.42926509340E+03  0.00000000000E+00 0. -1.
         22    1    3    3    0    0  0.68634255206E+01 -0.16766557291E+02 -0.14357015142E+01  0.18173752835E+02  0.00000000000E+00 0.  1.
         22    1    3    3    0    0  0.55881556083E+02  0.35524221093E+02  0.38227365819E+03  0.38796632372E+03  0.00000000000E+00 0.  1.
</event>
<event>
 7    1  0.4915160E-006  0.7590622E+02  0.7818608E-02  0.1442996E+00
          2   -1    0    0  502    0  0.00000000000E+00  0.00000000000E+00  0.12528094224E+04  0.12528094224E+04  0.00000000000E+00 0. -1.
          1   -1    0    0  501    0 -0.00000000000E+00 -0.00000000000E+00 -0.18025266625E+04  0.18025266625E+04  0.00000000000E+00 0. -1.
         25    2    1    2    0    0 -0.92449908725E+02 -0.47947620105E+02  0.37220104671E+03  0.40620877650E+03  0.12500396410E+03 0.  0.
          2    1    1    2  501    0  0.72982321620E+02  0.20667115949E+02 -0.17843916113E+04  0.17860030715E+04  0.00000000000E+00 0. -1.
          1    1    1    2  502    0  0.19467587105E+02  0.27280504156E+02  0.86247332446E+03  0.86312423686E+03  0.00000000000E+00 0. -1.
         22    1    3    3    0    0 -0.10901353407E+03 -0.29234694752E+02  0.18047637340E+03  0.21286225439E+03  0.00000000000E+00 0. -1.
         22    1    3    3    0    0  0.16563625343E+02 -0.18712925353E+02  0.19172467330E+03  0.19334652211E+03  0.00000000000E+00 0. -1.
</event>
<event>
 7    1  0.4915160E-006  0.1285700E+03  0.7818608E-02  0.1267760E+00
          2   -1    0    0  502    0  0.00000000000E+00  0.00000000000E+00  0.15920354308E+04  0.15920354308E+04  0.00000000000E+00 0. -1.
          1   -1    0    0  501    0 -0.00000000000E+00 -0.00000000000E+00 -0.41994487331E+03  0.41994487331E+03  0.00000000000E+00 0. -1.
         25    2    1    2    0    0 -0.38446536598E+02 -0.48699474475E+02  0.70148825561E+03  0.71523477630E+03  0.12500094991E+03 0.  0.
          2    1    1    2  501    0  0.12502607559E+03  0.34519668404E+02 -0.40063219190E+03  0.42110483288E+03  0.00000000000E+00 0. -1.
          1    1    1    2  502    0 -0.86579538996E+02  0.14179806071E+02  0.87123449378E+03  0.87564069493E+03  0.00000000000E+00 0. -1.
         22    1    3    3    0    0  0.15538967598E+02 -0.76594040352E+02  0.36051067357E+03  0.36888487674E+03  0.00000000000E+00 0. -1.
         22    1    3    3    0    0 -0.53985504197E+02  0.27894565876E+02  0.34097758204E+03  0.34634989956E+03  0.00000000000E+00 0. -1.
</event>
<event>
 7    1  0.4915160E-006  0.5509852E+02  0.7818608E-02  0.1457252E+00
          2   -1    0    0  502    0  0.00000000000E+00  0.00000000000E+00  0.94974924009E+02  0.94974924009E+02  0.00000000000E+00 0. -1.
          1   -1    0    0  501    0 -0.00000000000E+00 -0.00000000000E+00 -0.14737632352E+04  0.14737632352E+04  0.00000000000E+00 0. -1.
         25    2    1    2    0    0 -0.93476551057E+02  0.17950032903E+02 -0.92818632872E+03  0.94138998646E+03  0.12500070600E+03 0.  0.
          2    1    1    2  501    0  0.41563947397E+02 -0.58729678230E+00 -0.52960531628E+03  0.53123412698E+03  0.00000000000E+00 0. -1.
          1    1    1    2  502    0  0.51912603660E+02 -0.17362736120E+02  0.79003333856E+02  0.96114045720E+02  0.00000000000E+00 0. -1.
         22    1    3    3    0    0 -0.82798466679E+02  0.18618021717E+02 -0.92671216235E+03  0.93058994657E+03  0.00000000000E+00 0. -1.
         22    1    3    3    0    0 -0.10678084378E+02 -0.66798881477E+00 -0.14741663731E+01  0.10800039886E+02  0.00000000000E+00 0. -1.
</event>
<event>
 7    1  0.4915160E-006  0.1154926E+03  0.7818608E-02  0.1370504E+00
          2   -1    0    0  502    0  0.00000000000E+00  0.00000000000E+00  0.17706233112E+04  0.17706233112E+04  0.00000000000E+00 0. -1.
          1   -1    0    0  501    0 -0.00000000000E+00 -0.00000000000E+00 -0.12123795058E+03  0.12123795058E+03  0.00000000000E+00 0. -1.
         25    2    1    2    0    0  0.83041348929E+02 -0.18648054203E+02  0.15941364363E+04  0.16012927519E+04  0.12499553715E+03 0.  0.
          2    1    1    2  501    0 -0.11607732707E+03 -0.18903600785E+01 -0.85733274493E+02  0.14431809892E+03  0.00000000000E+00 0. -1.
          1    1    1    2  502    0  0.33035978144E+02  0.20538414281E+02  0.14098219882E+03  0.14625041093E+03  0.00000000000E+00 0. -1.
         22    1    3    3    0    0  0.62474830298E+02  0.49620117932E+02  0.80752530145E+03  0.81145694464E+03  0.00000000000E+00 0.  1.
         22    1    3    3    0    0  0.20566518631E+02 -0.68268172135E+02  0.78661113484E+03  0.78983580728E+03  0.00000000000E+00 0.  1.
</event>
<event>
 7    1  0.4915160E-006  0.3111852E+02  0.7818608E-02  0.1609935E+00
          2   -1    0    0  502    0  0.00000000000E+00  0.00000000000E+00  0.84647998401E+03  0.84647998401E+03  0.00000000000E+00 0. -1.
          1   -1    0    0  501    0 -0.00000000000E+00 -0.00000000000E+00 -0.17431209911E+03  0.17431209911E+03  0.00000000000E+00 0. -1.
         25    2    1    2    0    0 -0.33446206016E+02 -0.13627516320E+02  0.44678224877E+03  0.46534206480E+03  0.12499800621E+03 0.  0.
          2    1    1    2  501    0  0.47139486717E+01  0.26526372947E+02 -0.16329137385E+03  0.16549907114E+03  0.00000000000E+00 0. -1.
          1    1    1    2  502    0  0.28732257344E+02 -0.12898856627E+02  0.38867700999E+03  0.38995094718E+03  0.00000000000E+00 0. -1.
         22    1    3    3    0    0 -0.39590587435E+02  0.12869899810E+02  0.40267176003E+02  0.57917997184E+02  0.00000000000E+00 0.  1.
         22    1    3    3    0    0  0.61443814189E+01 -0.26497416131E+02  0.40651507277E+03  0.40742406761E+03  0.00000000000E+00 0.  1.
</event>
<event>
 7    1  0.4915160E-006  0.1274192E+03  0.7818608E-02  0.1394366E+00
          2   -1    0    0  502    0  0.00000000000E+00  0.00000000000E+00  0.55360459506E+03  0.55360459506E+03  0.00000000000E+00 0. -1.
          1   -1    0    0  501    0 -0.00000000000E+00 -0.00000000000E+00 -0.96574417188E+03  0.96574417188E+03  0.00000000000E+00 0. -1.
         25    2    1    2    0    0  0.12441921609E+03 -0.33874315279E+02 -0.37275422306E+03  0.41376410536E+03  0.12500965364E+03 0.  0.
          2    1    1    2  501    0  0.29358479720E+01  0.28894934013E+02 -0.56448856898E+03  0.56523524388E+03  0.00000000000E+00 0. -1.
          1    1    1    2  502    0 -0.12735506407E+03  0.49793812662E+01  0.52510321522E+03  0.54034941770E+03  0.00000000000E+00 0. -1.
         22    1    3    3    0    0  0.13112195171E+03  0.19701331127E+01 -0.21489100837E+03  0.25174390385E+03  0.00000000000E+00 0. -1.
         22    1    3    3    0    0 -0.67027356201E+01 -0.35844448392E+02 -0.15786321469E+03  0.16202020151E+03  0.00000000000E+00 0. -1.
</event>
<event>
 7    1  0.4915160E-006  0.2050283E+03  0.7818608E-02  0.1197660E+00
          2   -1    0    0  502    0  0.00000000000E+00  0.00000000000E+00  0.44290018633E+03  0.44290018633E+03  0.00000000000E+00 0. -1.
          1   -1    0    0  501    0 -0.00000000000E+00 -0.00000000000E+00 -0.88278225101E+03  0.88278225101E+03  0.00000000000E+00 0. -1.
         25    2    1    2    0    0 -0.17677462782E+03 -0.97002441814E+02  0.63184337353E+02  0.24551209697E+03  0.12500074605E+03 0.  0.
          2    1    1    2  501    0 -0.38964299502E+02  0.10622960631E+03 -0.74634961789E+03  0.75487793584E+03  0.00000000000E+00 0. -1.
          1    1    1    2  502    0  0.21573892732E+03 -0.92271644940E+01  0.24328321585E+03  0.32529240452E+03  0.00000000000E+00 0. -1.
         22    1    3    3    0    0 -0.88181846596E+02 -0.10025497558E+03  0.79466185986E+02  0.15537687380E+03  0.00000000000E+00 0.  1.
         22    1    3    3    0    0 -0.88592781220E+02  0.32525337674E+01 -0.16281848633E+02  0.90135223165E+02  0.00000000000E+00 0.  1.
</event>
<event>
 7    1  0.4915160E-006  0.9787172E+02  0.7818608E-02  0.1465502E+00
          2   -1    0    0  502    0  0.00000000000E+00  0.00000000000E+00  0.15773385346E+04  0.15773385346E+04  0.00000000000E+00 0. -1.
          1   -1    0    0  501    0 -0.00000000000E+00 -0.00000000000E+00 -0.44431489351E+03  0.44431489351E+03  0.00000000000E+00 0. -1.
         25    2    1    2    0    0 -0.55492409639E+02 -0.72907023434E+02  0.32861086984E+03  0.36332948346E+03  0.12501347199E+03 0.  0.
          2    1    1    2  501    0  0.75144354211E+02  0.62922397903E+02 -0.42123052983E+03  0.43248244056E+03  0.00000000000E+00 0. -1.
          1    1    1    2  502    0 -0.19651944573E+02  0.99846255311E+01  0.12256433011E+04  0.12258415041E+04  0.00000000000E+00 0. -1.
         22    1    3    3    0    0 -0.49618023906E+02 -0.65651654993E+02  0.33930047003E+03  0.34913736131E+03  0.00000000000E+00 0.  1.
         22    1    3    3    0    0 -0.58743857327E+01 -0.72553684413E+01 -0.10689600188E+02  0.14192122151E+02  0.00000000000E+00 0.  1.
</event>
<event>
 7    1  0.4915160E-006  0.9229203E+02  0.7818608E-02  0.1458295E+00
          2   -1    0    0  502    0  0.00000000000E+00  0.00000000000E+00  0.52406773643E+03  0.52406773643E+03  0.00000000000E+00 0. -1.
          1   -1    0    0  501    0 -0.00000000000E+00 -0.00000000000E+00 -0.33576657540E+03  0.33576657540E+03  0.00000000000E+00 0. -1.
         25    2    1    2    0    0  0.85114920917E+02 -0.28484180692E+02  0.74722200801E+02  0.17108578055E+03  0.12502415248E+03 0.  0.
          2    1    1    2  501    0 -0.92497343188E+02  0.49882330903E+01 -0.27973038304E+03  0.29466884491E+03  0.00000000000E+00 0. -1.
          1    1    1    2  502    0  0.73824222710E+01  0.23495947602E+02  0.39330934327E+03  0.39407968637E+03  0.00000000000E+00 0. -1.
         22    1    3    3    0    0  0.76191662686E+01 -0.49184070991E+02 -0.13779292379E+02  0.51642941748E+02  0.00000000000E+00 0.  1.
         22    1    3    3    0    0  0.77495754648E+02  0.20699890300E+02  0.88501493180E+02  0.11944283881E+03  0.00000000000E+00 0.  1.
</event>
<event>
 7    1  0.4915160E-006  0.4624995E+02  0.7818608E-02  0.1479826E+00
          2   -1    0    0  502    0  0.00000000000E+00  0.00000000000E+00  0.12860604997E+03  0.12860604997E+03  0.00000000000E+00 0. -1.
          1   -1    0    0  501    0 -0.00000000000E+00 -0.00000000000E+00 -0.21000121799E+03  0.21000121799E+03  0.00000000000E+00 0. -1.
         25    2    1    2    0    0  0.11348358752E+02  0.36874964443E+02 -0.12174030521E+03  0.17869636032E+03  0.12499255589E+03 0.  0.
          2    1    1    2  501    0  0.29659377066E+02 -0.46461713599E+02 -0.40739221777E+02  0.68542349460E+02  0.00000000000E+00 0. -1.
          1    1    1    2  502    0 -0.41007735818E+02  0.95867491556E+01  0.81084358967E+02  0.91368558188E+02  0.00000000000E+00 0. -1.
         22    1    3    3    0    0  0.57110927149E+02  0.29418094164E+02 -0.20649354070E+02  0.67479464192E+02  0.00000000000E+00 0. -1.
         22    1    3    3    0    0 -0.45762568397E+02  0.74568702790E+01 -0.10109095114E+03  0.11121689613E+03  0.00000000000E+00 0. -1.
</event>
<event>
 7    1  0.4915160E-006  0.2145743E+03  0.7818608E-02  0.1363554E+00
          2   -1    0    0  502    0  0.00000000000E+00  0.00000000000E+00  0.10099584751E+04  0.10099584751E+04  0.00000000000E+00 0. -1.
          1   -1    0    0  501    0 -0.00000000000E+00 -0.00000000000E+00 -0.36004978058E+03  0.36004978058E+03  0.00000000000E+00 0. -1.
         25    2    1    2    0    0  0.23525884176E+03 -0.35546509755E+01  0.47360637815E+03  0.54340409141E+03  0.12500258786E+03 0.  0.
          2    1    1    2  501    0 -0.21314275503E+03  0.18316168035E+01 -0.28992646557E+03  0.35984794605E+03  0.00000000000E+00 0. -1.
          1    1    1    2  502    0 -0.22116086738E+02  0.17230341720E+01  0.46622878194E+03  0.46675621822E+03  0.00000000000E+00 0. -1.
         22    1    3    3    0    0  0.22815848691E+03 -0.37842967536E+02  0.40521784152E+03  0.46657248571E+03  0.00000000000E+00 0.  1.
         22    1    3    3    0    0  0.71003548488E+01  0.34288316560E+02  0.68388536634E+02  0.76831605700E+02  0.00000000000E+00 0.  1.
</event>
<event>
 7    1  0.4915160E-006  0.2448326E+03  0.7818608E-02  0.1234532E+00
          2   -1    0    0  502    0  0.00000000000E+00  0.00000000000E+00  0.11305519042E+04  0.11305519042E+04  0.00000000000E+00 0. -1.
          1   -1    0    0  501    0 -0.00000000000E+00 -0.00000000000E+00 -0.15123695931E+04  0.15123695931E+04  0.00000000000E+00 0. -1.
         25    2    1    2    0    0  0.17557379136E+03 -0.12054671715E+03  0.10397342835E+02  0.24716574843E+03  0.12500054092E+03 0.  0.
          2    1    1    2  501    0 -0.71499572347E+01 -0.63771415450E+02 -0.13776695285E+04  0.13791632409E+04  0.00000000000E+00 0. -1.
          1    1    1    2  502    0 -0.16842383413E+03  0.18431813260E+03  0.98545449684E+03  0.10165925080E+04  0.00000000000E+00 0. -1.
         22    1    3    3    0    0  0.17371107939E+03 -0.81778383264E+02  0.42676815419E+02  0.19668389270E+03  0.00000000000E+00 0. -1.
         22    1    3    3    0    0  0.18627119738E+01 -0.38768333882E+02 -0.32279472584E+02  0.50481855732E+02  0.00000000000E+00 0. -1.
</event>
<event>
 7    1  0.4915160E-006  0.1029566E+03  0.7818608E-02  0.1344850E+00
          2   -1    0    0  502    0  0.00000000000E+00  0.00000000000E+00  0.15861640936E+03  0.15861640936E+03  0.00000000000E+00 0. -1.
          1   -1    0    0  501    0 -0.00000000000E+00 -0.00000000000E+00 -0.54239998970E+03  0.54239998970E+03  0.00000000000E+00 0. -1.
         25    2    1    2    0    0  0.14877393808E+03 -0.32054060816E+02 -0.86100800054E+02  0.21494888542E+03  0.12501411163E+03 0.  0.
          2    1    1    2  501    0 -0.95222159815E+02  0.23850962775E+02 -0.37724717683E+03  0.38980964659E+03  0.00000000000E+00 0. -1.
          1    1    1    2  502    0 -0.53551778267E+02  0.82030980416E+01  0.79564396540E+02  0.96257867055E+02  0.00000000000E+00 0. -1.
         22    1    3    3    0    0  0.77629866995E+02  0.23301453480E+02  0.11757821335E+02  0.81899941065E+02  0.00000000000E+00 0.  1.
         22    1    3    3    0    0  0.71144071087E+02 -0.55355514296E+02 -0.97858621389E+02  0.13304894436E+03  0.00000000000E+00 0.  1.
</event>
<event>
 7    1  0.4915160E-006  0.8044120E+02  0.7818608E-02  0.1500544E+00
          2   -1    0    0  502    0  0.00000000000E+00  0.00000000000E+00  0.11201056598E+04  0.11201056598E+04  0.00000000000E+00 0. -1.
          1   -1    0    0  501    0 -0.00000000000E+00 -0.00000000000E+00 -0.69561284312E+02  0.69561284312E+02  0.00000000000E+00 0. -1.
         25    2    1    2    0    0  0.42326582696E+02 -0.74456825884E+02  0.92461710501E+02  0.17750678170E+03  0.12499652442E+03 0.  0.
          2    1    1    2  501    0 -0.20754227338E+02 -0.29275127295E+01 -0.21068765433E+02  0.29718700511E+02  0.00000000000E+00 0. -1.
          1    1    1    2  502    0 -0.21572355358E+02  0.77384338613E+02  0.97915143046E+03  0.98244146195E+03  0.00000000000E+00 0. -1.
         22    1    3    3    0    0  0.48315976968E+00  0.33231306370E+02  0.74267190537E+01  0.34054505169E+02  0.00000000000E+00 0.  1.
         22    1    3    3    0    0  0.41843422926E+02 -0.10768813225E+03  0.85034991447E+02  0.14345227653E+03  0.00000000000E+00 0.  1.
</event>
<event>
 7    1  0.4915160E-006  0.1269372E+03  0.7818608E-02  0.1301987E+00
          2   -1    0    0  502    0  0.00000000000E+00  0.00000000000E+00  0.44801180654E+03  0.44801180654E+03  0.00000000000E+00 0. -1.
          1   -1    0    0  501    0 -0.00000000000E+00 -0.00000000000E+00 -0.18322145436E+03  0.18322145436E+03  0.00000000000E+00 0. -1.
         25    2    1    2    0    0 -0.16997043163E+03 -0.68519943106E+02  0.17134618113E+02  0.22249290652E+03  0.12499827232E+03 0.  0.
          2    1    1    2  501    0  0.63080557947E+02  0.12564501769E+02 -0.53916889008E+02  0.83928865213E+02  0.00000000000E+00 0. -1.
          1    1    1    2  502    0  0.10688987368E+03  0.55955441337E+02  0.30157262308E+03  0.32481148917E+03  0.00000000000E+00 0. -1.
         22    1    3    3    0    0  0.37781615835E+01 -0.41621600295E+02 -0.13721146894E+02  0.43987520823E+02  0.00000000000E+00 0. -1.
         22    1    3    3    0    0 -0.17374859321E+03 -0.26898342811E+02  0.30855765006E+02  0.17850538570E+03  0.00000000000E+00 0. -1.
</event>
<event>
 7    1  0.4915160E-006  0.8945362E+02  0.7818608E-02  0.1386108E+00
          2   -1    0    0  502    0  0.00000000000E+00  0.00000000000E+00  0.64702831042E+03  0.64702831042E+03  0.00000000000E+00 0. -1.
          1   -1    0    0  501    0 -0.00000000000E+00 -0.00000000000E+00 -0.31419290000E+03  0.31419290000E+03  0.00000000000E+00 0. -1.
         25    2    1    2    0    0  0.60502192634E+02 -0.77487901576E+01  0.16309734825E+03  0.21434654259E+03  0.12499254478E+03 0.  0.
          2    1    1    2  501    0 -0.86267628434E+02 -0.28174082218E+02 -0.28032332629E+03  0.29464733138E+03  0.00000000000E+00 0. -1.
          1    1    1    2  502    0  0.25765435799E+02  0.35922872376E+02  0.45006138848E+03  0.45222733646E+03  0.00000000000E+00 0. -1.
         22    1    3    3    0    0  0.13030901121E+02 -0.63534435665E+02  0.64019549428E+02  0.91131397489E+02  0.00000000000E+00 0. -1.
         22    1    3    3    0    0  0.47471291513E+02  0.55785645507E+02  0.99077798818E+02  0.12321514510E+03  0.00000000000E+00 0. -1.
</event>
<event>
 7    1  0.4915160E-006  0.9610076E+02  0.7818608E-02  0.1293833E+00
          2   -1    0    0  502    0  0.00000000000E+00  0.00000000000E+00  0.16350705227E+03  0.16350705227E+03  0.00000000000E+00 0. -1.
          1   -1    0    0  501    0 -0.00000000000E+00 -0.00000000000E+00 -0.97991307356E+03  0.97991307356E+03  0.00000000000E+00 0. -1.
         25    2    1    2    0    0  0.92959085003E+02  0.64353527086E+02 -0.19749003937E+03  0.25963311845E+03  0.12499709042E+03 0.  0.
          2    1    1    2  501    0  0.10278448509E+01 -0.91607558313E+02 -0.73001167958E+03  0.73573776138E+03  0.00000000000E+00 0. -1.
          1    1    1    2  502    0 -0.93986929854E+02  0.27254031226E+02  0.11109569766E+03  0.14804924599E+03  0.00000000000E+00 0. -1.
         22    1    3    3    0    0  0.11308409983E+03  0.13564694559E+02 -0.13166884498E+03  0.17409393818E+03  0.00000000000E+00 0. -1.
         22    1    3    3    0    0 -0.20125014824E+02  0.50788832527E+02 -0.65821194392E+02  0.85539180276E+02  0.00000000000E+00 0. -1.
</event>
<event>
 7    1  0.4915160E-006  0.2311016E+02  0.7818608E-02  0.1702082E+00
          2   -1    0    0  502    0  0.00000000000E+00  0.00000000000E+00  0.15912948366E+03  0.15912948366E+03  0.00000000000E+00 0. -1.
          1   -1    0    0  501    0 -0.00000000000E+00 -0.00000000000E+00 -0.25363839843E+04  0.25363839843E+04  0.00000000000E+00 0. -1.
         25    2    1    2    0    0  0.14864464941E+02  0.30563993211E+02 -0.14334099699E+04  0.14392530159E+04  0.12501996615E+03 0.  0.
          2    1    1    2  501    0  0.51601259192E+01 -0.22370128625E+02 -0.10991828566E+04  0.10994225766E+04  0.00000000000E+00 0. -1.
          1    1    1    2  502    0 -0.20024590860E+02 -0.81938645858E+01  0.15533832597E+03  0.15683787543E+03  0.00000000000E+00 0. -1.
         22    1    3    3    0    0  0.66760589287E+02 -0.99191675649E+00 -0.62209484336E+03  0.62566760690E+03  0.00000000000E+00 0.  1.
         22    1    3    3    0    0 -0.51896124346E+02  0.31555909968E+02 -0.81131512657E+03  0.81358540902E+03  0.00000000000E+00 0.  1.
</event>
<event>
 7    1  0.4915160E-006  0.8391479E+02  0.7818608E-02  0.1393968E+00
          2   -1    0    0  502    0  0.00000000000E+00  0.00000000000E+00  0.22265794522E+04  0.22265794522E+04  0.00000000000E+00 0. -1.
          1   -1    0    0  501    0 -0.00000000000E+00 -0.00000000000E+00 -0.27299178680E+02  0.27299178680E+02  0.00000000000E+00 0. -1.
         25    2    1    2    0    0  0.23024646536E+02  0.37657553172E+02  0.81927350430E+03  0.82992909614E+03  0.12500001641E+03 0.  0.
          2    1    1    2  501    0 -0.49740439904E+02 -0.72922166555E+02  0.68590840383E+02  0.11178755352E+03  0.00000000000E+00 0. -1.
          1    1    1    2  502    0  0.26715793369E+02  0.35264613383E+02  0.13114159288E+04  0.13121619812E+04  0.00000000000E+00 0. -1.
         22    1    3    3    0    0 -0.61281827223E+01  0.20916911136E+02  0.18898248041E+02  0.28848146803E+02  0.00000000000E+00 0.  1.
         22    1    3    3    0    0  0.29152829258E+02  0.16740642036E+02  0.80037525626E+03  0.80108094933E+03  0.00000000000E+00 0.  1.
</event>
<event>
 7    1  0.9267103E-006  0.6383866E+02  0.7818608E-02  0.1392687E+00
          2   -1    0    0  502    0  0.00000000000E+00  0.00000000000E+00  0.18262102876E+04  0.18262102876E+04  0.00000000000E+00 0. -1.
          1   -1    0    0  501    0 -0.00000000000E+00 -0.00000000000E+00 -0.71750501799E+03  0.71750501799E+03  0.00000000000E+00 0. -1.
         25    2    1    2    0    0  0.92167140454E+01 -0.56656834924E+01 -0.61497070309E+02  0.13972887774E+03  0.12500088732E+03 0.  0.
          2    1    1    2  501    0 -0.19077636216E+02  0.63585691647E+02 -0.61462125006E+03  0.61819606713E+03  0.00000000000E+00 0. -1.
          1    1    1    2  502    0  0.98609221703E+01 -0.57920008155E+02  0.17848235900E+04  0.17857903607E+04  0.00000000000E+00 0. -1.
         22    1    3    3    0    0 -0.12031140615E+02 -0.14659521059E+02  0.35379956539E+02  0.40142137797E+02  0.00000000000E+00 0. -1.
         22    1    3    3    0    0  0.21247854660E+02  0.89938375662E+01 -0.96877026849E+02  0.99586739945E+02  0.00000000000E+00 0. -1.
</event>
<event>
 7    1  0.4915160E-006  0.1420159E+03  0.7818608E-02  0.1275219E+00
          2   -1    0    0  502    0  0.00000000000E+00  0.00000000000E+00  0.29757369598E+04  0.29757369598E+04  0.00000000000E+00 0. -1.
          1   -1    0    0  501    0 -0.00000000000E+00 -0.00000000000E+00 -0.24253744034E+03  0.24253744034E+03  0.00000000000E+00 0. -1.
         25    2    1    2    0    0 -0.69427153972E+02  0.13464759497E+03  0.17301301719E+04  0.17412427407E+04  0.12500306205E+03 0.  0.
          2    1    1    2  501    0  0.11812240484E+03 -0.79043530866E+02 -0.21444863349E+03  0.25727222684E+03  0.00000000000E+00 0. -1.
          1    1    1    2  502    0 -0.48695250869E+02 -0.55604064100E+02  0.12175179810E+04  0.12197594326E+04  0.00000000000E+00 0. -1.
         22    1    3    3    0    0  0.24323405650E+02  0.31476863230E+02  0.15749482513E+03  0.16244088439E+03  0.00000000000E+00 0.  1.
         22    1    3    3    0    0 -0.93750559623E+02  0.10317073174E+03  0.15726353468E+04  0.15788018563E+04  0.00000000000E+00 0.  1.
</event>
<event>
 7    1  0.4915160E-006  0.7549795E+02  0.7818608E-02  0.1392849E+00
          2   -1    0    0  502    0  0.00000000000E+00  0.00000000000E+00  0.27266412400E+02  0.27266412400E+02  0.00000000000E+00 0. -1.
          1   -1    0    0  501    0 -0.00000000000E+00 -0.00000000000E+00 -0.24467472765E+04  0.24467472765E+04  0.00000000000E+00 0. -1.
         25    2    1    2    0    0 -0.51038051836E+00 -0.94613091317E+01 -0.14854703423E+04  0.14907499674E+04  0.12499420254E+03 0.  0.
          2    1    1    2  501    0  0.71761216058E+02  0.34426452784E+02 -0.89453393889E+03  0.89806782629E+03  0.00000000000E+00 0. -1.
          1    1    1    2  502    0 -0.71250835540E+02 -0.24965143652E+02 -0.39476582950E+02  0.85195895230E+02  0.00000000000E+00 0. -1.
         22    1    3    3    0    0  0.34553190852E+02 -0.50159086337E+02 -0.10828574360E+04  0.10845690774E+04  0.00000000000E+00 0. -1.
         22    1    3    3    0    0 -0.35063571370E+02  0.40697777205E+02 -0.40261290623E+03  0.40618088996E+03  0.00000000000E+00 0. -1.
</event>
<event>
 7    1  0.4915160E-006  0.1145982E+03  0.7818608E-02  0.1313966E+00
          2   -1    0    0  502    0  0.00000000000E+00  0.00000000000E+00  0.87745814423E+03  0.87745814423E+03  0.00000000000E+00 0. -1.
          1   -1    0    0  501    0 -0.00000000000E+00 -0.00000000000E+00 -0.85488054311E+02  0.85488054311E+02  0.00000000000E+00 0. -1.
         25    2    1    2    0    0  0.10878766319E+03 -0.12053183672E+03  0.42622115303E+03  0.47292157317E+03  0.12501065456E+03 0.  0.
          2    1    1    2  501    0 -0.29057498149E+02  0.56893977783E+02 -0.37496271191E+02  0.74075861520E+02  0.00000000000E+00 0. -1.
          1    1    1    2  502    0 -0.79730165040E+02  0.63637858940E+02  0.40324520808E+03  0.41594876385E+03  0.00000000000E+00 0. -1.
         22    1    3    3    0    0  0.73108404070E+02 -0.90204721331E+02  0.13545552307E+03  0.17840944265E+03  0.00000000000E+00 0. -1.
         22    1    3    3    0    0  0.35679259119E+02 -0.30327115392E+02  0.29076562996E+03  0.29451213052E+03  0.00000000000E+00 0. -1.
</event>
<event>
 7    1  0.4915160E-006  0.5458083E+02  0.7818608E-02  0.1519680E+00
          2   -1    0    0  502    0  0.00000000000E+00  0.00000000000E+00  0.10787861134E+04  0.10787861134E+04  0.00000000000E+00 0. -1.
          1   -1    0    0  501    0 -0.00000000000E+00 -0.00000000000E+00 -0.27948049768E+02  0.27948049768E+02  0.00000000000E+00 0. -1.
         25    2    1    2    0    0 -0.70655847002E+02 -0.41614375327E+01  0.56517119372E+03  0.58313968263E+03  0.12499537977E+03 0.  0.
          2    1    1    2  501    0  0.49438301521E+02  0.21073662409E+02  0.20317457218E+02  0.57454712360E+02  0.00000000000E+00 0. -1.
          1    1    1    2  502    0  0.21217545481E+02 -0.16912224876E+02  0.46534941270E+03  0.46613976819E+03  0.00000000000E+00 0. -1.
         22    1    3    3    0    0 -0.53966720216E+02 -0.68524810522E+01  0.56353651859E+03  0.56615613674E+03  0.00000000000E+00 0.  1.
         22    1    3    3    0    0 -0.16689126786E+02  0.26910435195E+01  0.16346751340E+01  0.16983545887E+02  0.00000000000E+00 0.  1.
</event>
<event>
 7    1  0.4915160E-006  0.7398630E+02  0.7818608E-02  0.1410358E+00
          2   -1    0    0  502    0  0.00000000000E+00  0.00000000000E+00  0.23837448490E+03  0.23837448490E+03  0.00000000000E+00 0. -1.
          1   -1    0    0  501    0 -0.00000000000E+00 -0.00000000000E+00 -0.31044933441E+03  0.31044933441E+03  0.00000000000E+00 0. -1.
         25    2    1    2    0    0 -0.20909056830E+02  0.96599238533E+02 -0.68294870721E+02  0.17337348408E+03  0.12500229627E+03 0.  0.
          2    1    1    2  501    0 -0.14410855776E+02 -0.70210021174E+02 -0.18002818647E+03  0.19377117371E+03  0.00000000000E+00 0. -1.
          1    1    1    2  502    0  0.35319912606E+02 -0.26389217359E+02  0.17624820768E+03  0.18167916152E+03  0.00000000000E+00 0. -1.
         22    1    3    3    0    0 -0.12315620684E+01 -0.10754396859E+02 -0.63191676164E+02  0.64112102862E+02  0.00000000000E+00 0. -1.
         22    1    3    3    0    0 -0.19677494762E+02  0.10735363539E+03 -0.51031945566E+01  0.10926138122E+03  0.00000000000E+00 0. -1.
</event>
<event>
 7    1  0.4915160E-006  0.7949788E+02  0.7818608E-02  0.1344923E+00
          2   -1    0    0  502    0  0.00000000000E+00  0.00000000000E+00  0.88050264094E+03  0.88050264094E+03  0.00000000000E+00 0. -1.
          1   -1    0    0  501    0 -0.00000000000E+00 -0.00000000000E+00 -0.33359292270E+02  0.33359292270E+02  0.00000000000E+00 0. -1.
         25    2    1    2    0    0 -0.31568145079E+02  0.25168755621E+02  0.41032689133E+03  0.43083965411E+03  0.12499854303E+03 0.  0.
          2    1    1    2  501    0 -0.47907983987E+02  0.51200558221E+02  0.66453445830E+02  0.96606068932E+02  0.00000000000E+00 0. -1.
          1    1    1    2  502    0  0.79476129065E+02 -0.76369313842E+02  0.37036301151E+03  0.38641621017E+03  0.00000000000E+00 0. -1.
         22    1    3    3    0    0 -0.29537964311E+01  0.71753709339E+02  0.28856992744E+03  0.29737169122E+03  0.00000000000E+00 0.  1.
         22    1    3    3    0    0 -0.28614348648E+02 -0.46584953718E+02  0.12175696389E+03  0.13346796288E+03  0.00000000000E+00 0.  1.
</event>
<event>
 7    1  0.4915160E-006  0.2057708E+03  0.7818608E-02  0.1185293E+00
          2   -1    0    0  502    0  0.00000000000E+00  0.00000000000E+00  0.48563894376E+03  0.48563894376E+03  0.00000000000E+00 0. -1.
          1   -1    0    0  501    0 -0.00000000000E+00 -0.00000000000E+00 -0.14360643306E+04  0.14360643306E+04  0.00000000000E+00 0. -1.
         25    2    1    2    0    0 -0.11135820075E+03  0.20184809145E+03  0.40421414586E+03  0.48182293762E+03  0.12498386539E+03 0.  0.
          2    1    1    2  501    0 -0.93760460788E+01 -0.12886134816E+03 -0.12674781012E+04  0.12740462685E+04  0.00000000000E+00 0. -1.
          1    1    1    2  502    0  0.12073424682E+03 -0.72986743288E+02 -0.87161431527E+02  0.16583406827E+03  0.00000000000E+00 0. -1.
         22    1    3    3    0    0 -0.12533906329E+03  0.16139573984E+03  0.25603118523E+03  0.32758271235E+03  0.00000000000E+00 0.  1.
         22    1    3    3    0    0  0.13980862546E+02  0.40452351617E+02  0.14818296063E+03  0.15424022526E+03  0.00000000000E+00 0.  1.
</event>
<event>
 7    1  0.4915160E-006  0.8210708E+02  0.7818608E-02  0.1325964E+00
          2   -1    0    0  502    0  0.00000000000E+00  0.00000000000E+00  0.14369481276E+03  0.14369481276E+03  0.00000000000E+00 0. -1.
          1   -1    0    0  501    0 -0.00000000000E+00 -0.00000000000E+00 -0.41504866448E+03  0.41504866448E+03  0.00000000000E+00 0. -1.
         25    2    1    2    0    0  0.28197357792E+02 -0.10199431036E+03 -0.56460465898E+02  0.17320633951E+03  0.12495887926E+03 0.  0.
          2    1    1    2  501    0  0.45083043559E+02  0.69649841890E+02 -0.27380870222E+03  0.28610275549E+03  0.00000000000E+00 0. -1.
          1    1    1    2  502    0 -0.73280401351E+02  0.32344468472E+02  0.58915316402E+02  0.99434382231E+02  0.00000000000E+00 0. -1.
         22    1    3    3    0    0 -0.19294018010E+02 -0.15847920198E+02 -0.69618393373E+02  0.73960370480E+02  0.00000000000E+00 0. -1.
         22    1    3    3    0    0  0.47491375802E+02 -0.86146390164E+02  0.13157927475E+02  0.99245969033E+02  0.00000000000E+00 0. -1.
</event>
<event>
 7    1  0.4915160E-006  0.1172687E+03  0.7818608E-02  0.1349730E+00
          2   -1    0    0  502    0  0.00000000000E+00  0.00000000000E+00  0.18746054182E+04  0.18746054182E+04  0.00000000000E+00 0. -1.
          1   -1    0    0  501    0 -0.00000000000E+00 -0.00000000000E+00 -0.27654701571E+03  0.27654701571E+03  0.00000000000E+00 0. -1.
         25    2    1    2    0    0 -0.17795889161E+02 -0.15639875488E+03  0.10487753603E+04  0.10678633257E+04  0.12500024713E+03 0.  0.
          2    1    1    2  501    0  0.30793759399E+02  0.11267282966E+03 -0.25354992062E+03  0.27916121580E+03  0.00000000000E+00 0. -1.
          1    1    1    2  502    0 -0.12997870239E+02  0.43725925219E+02  0.80283296278E+03  0.80412789237E+03  0.00000000000E+00 0. -1.
         22    1    3    3    0    0  0.24961074723E+02 -0.35411004900E+01  0.44697777566E+02  0.51317501531E+02  0.00000000000E+00 0. -1.
         22    1    3    3    0    0 -0.42756963883E+02 -0.15285765439E+03  0.10040775828E+04  0.10165458242E+04  0.00000000000E+00 0. -1.
</event>
<event>
 7    1  0.4915160E-006  0.4941486E+02  0.7818608E-02  0.1501880E+00
          2   -1    0    0  502    0  0.00000000000E+00  0.00000000000E+00  0.59018942430E+03  0.59018942430E+03  0.00000000000E+00 0. -1.
          1   -1    0    0  501    0 -0.00000000000E+00 -0.00000000000E+00 -0.12991858730E+03  0.12991858730E+03  0.00000000000E+00 0. -1.
         25    2    1    2    0    0 -0.22680866889E+02  0.25887612728E+02  0.36493309101E+02  0.13468785083E+03  0.12499786133E+03 0.  0.
          2    1    1    2  501    0 -0.27028586633E+02 -0.20309404339E+02 -0.75981655232E+02  0.83163864339E+02  0.00000000000E+00 0. -1.
          1    1    1    2  502    0  0.49709453523E+02 -0.55782083888E+01  0.49975918314E+03  0.50225629643E+03  0.00000000000E+00 0. -1.
         22    1    3    3    0    0 -0.16988005241E+02  0.69083473082E+02  0.52345525113E+02  0.88324246810E+02  0.00000000000E+00 0. -1.
         22    1    3    3    0    0 -0.56928616484E+01 -0.43195860355E+02 -0.15852216012E+02  0.46363604023E+02  0.00000000000E+00 0. -1.
</event>
<event>
 7    1  0.4915160E-006  0.9138356E+02  0.7818608E-02  0.1309816E+00
          2   -1    0    0  502    0  0.00000000000E+00  0.00000000000E+00  0.12205704398E+03  0.12205704398E+03  0.00000000000E+00 0. -1.
          1   -1    0    0  501    0 -0.00000000000E+00 -0.00000000000E+00 -0.29290518121E+03  0.29290518121E+03  0.00000000000E+00 0. -1.
         25    2    1    2    0    0  0.90229786671E+01  0.13813887492E+02 -0.13568298095E+03  0.18521788895E+03  0.12499422962E+03 0.  0.
          2    1    1    2  501    0 -0.56911949394E+02  0.71498145849E+02 -0.80623376590E+02  0.12186502245E+03  0.00000000000E+00 0. -1.
          1    1    1    2  502    0  0.47888970727E+02 -0.85312033340E+02  0.45458220315E+02  0.10787931379E+03  0.00000000000E+00 0. -1.
         22    1    3    3    0    0 -0.68545251812E+01 -0.35441626288E+02  0.39398652127E+01  0.36312751579E+02  0.00000000000E+00 0. -1.
         22    1    3    3    0    0  0.15877503848E+02  0.49255513779E+02 -0.13962284616E+03  0.14890513738E+03  0.00000000000E+00 0. -1.
</event>
<event>
 7    1  0.4915160E-006  0.5058767E+02  0.7818608E-02  0.1462427E+00
          2   -1    0    0  502    0  0.00000000000E+00  0.00000000000E+00  0.38952804033E+03  0.38952804033E+03  0.00000000000E+00 0. -1.
          1   -1    0    0  501    0 -0.00000000000E+00 -0.00000000000E+00 -0.41759948075E+03  0.41759948075E+03  0.00000000000E+00 0. -1.
         25    2    1    2    0    0  0.66579355962E+02 -0.33722237231E+02  0.89460005450E+02  0.17087212676E+03  0.12499676478E+03 0.  0.
          2    1    1    2  501    0 -0.17117937661E+02  0.40103750582E+02 -0.37321494883E+03  0.37575355305E+03  0.00000000000E+00 0. -1.
          1    1    1    2  502    0 -0.49461418301E+02 -0.63815133512E+01  0.25568350296E+03  0.26050184126E+03  0.00000000000E+00 0. -1.
         22    1    3    3    0    0  0.66670735081E+02 -0.23850648028E+02  0.11969241654E+03  0.13906874166E+03  0.00000000000E+00 0.  1.
         22    1    3    3    0    0 -0.91379119210E-01 -0.98715892024E+01 -0.30232411095E+02  0.31803385105E+02  0.00000000000E+00 0.  1.
</event>
<event>
 7    1  0.4915160E-006  0.1685982E+03  0.7818608E-02  0.1212623E+00
          2   -1    0    0  502    0  0.00000000000E+00  0.00000000000E+00  0.43026614178E+03  0.43026614178E+03  0.00000000000E+00 0. -1.
          1   -1    0    0  501    0 -0.00000000000E+00 -0.00000000000E+00 -0.29309107723E+04  0.29309107723E+04  0.00000000000E+00 0. -1.
         25    2    1    2    0    0 -0.16314127590E+03 -0.14993393211E+03 -0.58654579218E+03  0.63934370865E+03  0.12501660517E+03 0.  0.
          2    1    1    2  501    0  0.16250824407E+03  0.32808166386E+02 -0.23064354586E+04  0.23123861766E+04  0.00000000000E+00 0. -1.
          1    1    1    2  502    0  0.63303182702E+00  0.11712576573E+03  0.39233662030E+03  0.40944702876E+03  0.00000000000E+00 0. -1.
         22    1    3    3    0    0 -0.13063876067E+03 -0.16732536985E+03 -0.44445400257E+03  0.49254809469E+03  0.00000000000E+00 0.  1.
         22    1    3    3    0    0 -0.32502515230E+02  0.17391437742E+02 -0.14209178961E+03  0.14679561396E+03  0.00000000000E+00 0.  1.
</event>
<event>
 7    1  0.4915160E-006  0.1541202E+03  0.7818608E-02  0.1216210E+00
          2   -1    0    0  502    0  0.00000000000E+00  0.00000000000E+00  0.20536684574E+04  0.20536684574E+04  0.00000000000E+00 0. -1.
          1   -1    0    0  501    0 -0.00000000000E+00 -0.00000000000E+00 -0.38889185752E+03  0.38889185752E+03  0.00000000000E+00 0. -1.
         25    2    1    2    0    0 -0.12983853080E+03  0.18079712287E+01 -0.18048924728E+03  0.25507407121E+03  0.12500040234E+03 0.  0.
          2    1    1    2  501    0  0.18582770649E+03  0.10810535165E+03 -0.10085033843E+03  0.23746472225E+03  0.00000000000E+00 0. -1.
          1    1    1    2  502    0 -0.55989175692E+02 -0.10991332288E+03  0.19461161856E+04  0.19500215214E+04  0.00000000000E+00 0. -1.
         22    1    3    3    0    0 -0.62607828910E+02 -0.59796055054E+02 -0.66900241295E+02  0.10941183997E+03  0.00000000000E+00 0.  1.
         22    1    3    3    0    0 -0.67230701885E+02  0.61604026283E+02 -0.11358900598E+03  0.14566223124E+03  0.00000000000E+00 0.  1.
</event>
<event>
 7    1  0.4915160E-006  0.9452038E+02  0.7818608E-02  0.1295444E+00
          2   -1    0    0  502    0  0.00000000000E+00  0.00000000000E+00  0.29136490212E+04  0.29136490212E+04  0.00000000000E+00 0. -1.
          1   -1    0    0  501    0 -0.00000000000E+00 -0.00000000000E+00 -0.34791404609E+02  0.34791404609E+02  0.00000000000E+00 0. -1.
         25    2    1    2    0    0  0.75024660419E+02  0.10942083747E+03  0.37311058784E+03  0.41525666658E+03  0.12499987615E+03 0.  0.
          2    1    1    2  501    0 -0.90303026366E+02 -0.16290072414E+02  0.15203181061E+03  0.17757723522E+03  0.00000000000E+00 0. -1.
          1    1    1    2  502    0  0.15278365946E+02 -0.93130765056E+02  0.23537152181E+04  0.23556065240E+04  0.00000000000E+00 0. -1.
         22    1    3    3    0    0 -0.66496913515E+01  0.87050640452E+02  0.25786906974E+03  0.27224711114E+03  0.00000000000E+00 0.  1.
         22    1    3    3    0    0  0.81674351771E+02  0.22370197018E+02  0.11524151810E+03  0.14300955544E+03  0.00000000000E+00 0.  1.
</event>
<event>
 7    1  0.4915160E-006  0.6817323E+02  0.7818608E-02  0.1396748E+00
          2   -1    0    0  502    0  0.00000000000E+00  0.00000000000E+00  0.92718152757E+03  0.92718152757E+03  0.00000000000E+00 0. -1.
          1   -1    0    0  501    0 -0.00000000000E+00 -0.00000000000E+00 -0.16590716872E+03  0.16590716872E+03  0.00000000000E+00 0. -1.
         25    2    1    2    0    0 -0.27401271732E+02  0.27782980580E+02  0.12686803956E+03  0.18232778450E+03  0.12500079134E+03 0.  0.
          2    1    1    2  501    0 -0.43137824345E+02 -0.31243473634E+02 -0.13135836608E+03  0.14174641750E+03  0.00000000000E+00 0. -1.
          1    1    1    2  502    0  0.70539096077E+02  0.34604930539E+01  0.76576468536E+03  0.76901449429E+03  0.00000000000E+00 0. -1.
         22    1    3    3    0    0 -0.56376825918E+02  0.13419293035E+02  0.72364886263E+01  0.58401975085E+02  0.00000000000E+00 0. -1.
         22    1    3    3    0    0  0.28975554186E+02  0.14363687544E+02  0.11963155094E+03  0.12392580942E+03  0.00000000000E+00 0. -1.
</event>
<event>
 7    1  0.4915160E-006  0.1189878E+03  0.7818608E-02  0.1431219E+00
          2   -1    0    0  502    0  0.00000000000E+00  0.00000000000E+00  0.12906795011E+04  0.12906795011E+04  0.00000000000E+00 0. -1.
          1   -1    0    0  501    0 -0.00000000000E+00 -0.00000000000E+00 -0.17571009728E+03  0.17571009728E+03  0.00000000000E+00 0. -1.
         25    2    1    2    0    0 -0.50010317504E+02 -0.12612436039E+03  0.53136534647E+02  0.19198012749E+03  0.12499796757E+03 0.  0.
          2    1    1    2  501    0  0.33147228519E+02  0.10996563609E+03 -0.75106437007E+02  0.13723030554E+03  0.00000000000E+00 0. -1.
          1    1    1    2  502    0  0.16863088985E+02  0.16158724299E+02  0.11369393062E+04  0.11371791653E+04  0.00000000000E+00 0. -1.
         22    1    3    3    0    0 -0.46655628885E+02 -0.14911264544E+03  0.60595567892E+02  0.16758028400E+03  0.00000000000E+00 0.  1.
         22    1    3    3    0    0 -0.33546886191E+01  0.22988285051E+02 -0.74590332449E+01  0.24399843489E+02  0.00000000000E+00 0.  1.
</event>
<event>
 7    1  0.4915160E-006  0.6147961E+02  0.7818608E-02  0.1472886E+00
          2   -1    0    0  502    0  0.00000000000E+00  0.00000000000E+00  0.18697127870E+04  0.18697127870E+04  0.00000000000E+00 0. -1.
          1   -1    0    0  501    0 -0.00000000000E+00 -0.00000000000E+00 -0.19878371669E+03  0.19878371669E+03  0.00000000000E+00 0. -1.
         25    2    1    2    0    0  0.42280716005E+02 -0.16378495533E+02  0.71478704800E+02  0.15096412368E+03  0.12500018935E+03 0.  0.
          2    1    1    2  501    0 -0.38580362692E+02  0.49453390706E+02 -0.15269276085E+03  0.16507320029E+03  0.00000000000E+00 0. -1.
          1    1    1    2  502    0 -0.37003533130E+01 -0.33074895173E+02  0.17521431264E+04  0.17524591797E+04  0.00000000000E+00 0. -1.
         22    1    3    3    0    0  0.66131714805E+01  0.54691060784E+01  0.99981360823E+02  0.10034897942E+03  0.00000000000E+00 0. -1.
         22    1    3    3    0    0  0.35667544525E+02 -0.21847601612E+02 -0.28502656023E+02  0.50615144265E+02  0.00000000000E+00 0. -1.
</event>
<event>
 7    1  0.4915160E-006  0.2944877E+03  0.7818608E-02  0.1212697E+00
          2   -1    0    0  502    0  0.00000000000E+00  0.00000000000E+00  0.83492711362E+03  0.83492711362E+03  0.00000000000E+00 0. -1.
          1   -1    0    0  501    0 -0.00000000000E+00 -0.00000000000E+00 -0.12555925135E+04  0.12555925135E+04  0.00000000000E+00 0. -1.
         25    2    1    2    0    0 -0.34667769506E+03 -0.51201495402E+02 -0.21550602526E+03  0.42997182873E+03  0.12500363674E+03 0.  0.
          2    1    1    2  501    0  0.57579181939E+02  0.34268021150E+02 -0.90275093255E+03  0.90523417174E+03  0.00000000000E+00 0. -1.
          1    1    1    2  502    0  0.28909851312E+03  0.16933474252E+02  0.69759155795E+03  0.75531362663E+03  0.00000000000E+00 0. -1.
         22    1    3    3    0    0 -0.91943193945E+02 -0.24615905085E+02  0.10508527419E+00  0.95181430641E+02  0.00000000000E+00 0.  1.
         22    1    3    3    0    0 -0.25473450111E+03 -0.26585590317E+02 -0.21561111053E+03  0.33479039809E+03  0.00000000000E+00 0.  1.
</event>
<event>
 7    1  0.4915160E-006  0.1026043E+03  0.7818608E-02  0.1362598E+00
          2   -1    0    0  502    0  0.00000000000E+00  0.00000000000E+00  0.13528104459E+04  0.13528104459E+04  0.00000000000E+00 0. -1.
          1   -1    0    0  501    0 -0.00000000000E+00 -0.00000000000E+00 -0.17952793659E+04  0.17952793659E+04  0.00000000000E+00 0. -1.
         25    2    1    2    0    0 -0.57818772726E+02 -0.94026409904E+02  0.26886683541E+03  0.31638517032E+03  0.12500489822E+03 0.  0.
          2    1    1    2  501    0  0.11730312150E+02  0.10194454096E+03 -0.17695173132E+04  0.17724902853E+04  0.00000000000E+00 0. -1.
          1    1    1    2  502    0  0.46088460576E+02 -0.79181310522E+01  0.10581815578E+04  0.10592143561E+04  0.00000000000E+00 0. -1.
         22    1    3    3    0    0 -0.18533183945E+02 -0.10831797124E+03  0.24434540296E+03  0.26791964793E+03  0.00000000000E+00 0. -1.
         22    1    3    3    0    0 -0.39285588781E+02  0.14291561334E+02  0.24521432447E+02  0.48465522390E+02  0.00000000000E+00 0. -1.
</event>
<event>
 7    1  0.4915160E-006  0.2047975E+03  0.7818608E-02  0.1264421E+00
          2   -1    0    0  502    0  0.00000000000E+00  0.00000000000E+00  0.18828449333E+03  0.18828449333E+03  0.00000000000E+00 0. -1.
          1   -1    0    0  501    0 -0.00000000000E+00 -0.00000000000E+00 -0.17326152113E+04  0.17326152113E+04  0.00000000000E+00 0. -1.
         25    2    1    2    0    0  0.37575051187E+02  0.23395481497E+03 -0.51883147453E+02  0.27286648814E+03  0.12497007419E+03 0.  0.
          2    1    1    2  501    0 -0.25699694447E+02 -0.50762270601E+02 -0.14606076685E+04  0.14617154456E+04  0.00000000000E+00 0. -1.
          1    1    1    2  502    0 -0.11875356740E+02 -0.18319254437E+03 -0.31839902009E+02  0.18631777094E+03  0.00000000000E+00 0. -1.
         22    1    3    3    0    0  0.22241058819E+02  0.22971871048E+03 -0.76859179466E+02  0.24325436093E+03  0.00000000000E+00 0. -1.
         22    1    3    3    0    0  0.15333992369E+02  0.42361044893E+01  0.24976032013E+02  0.29612127217E+02  0.00000000000E+00 0. -1.
</event>
<event>
 7    1  0.4915160E-006  0.5676771E+02  0.7818608E-02  0.1481931E+00
          2   -1    0    0  502    0  0.00000000000E+00  0.00000000000E+00  0.73044335546E+03  0.73044335546E+03  0.00000000000E+00 0. -1.
          1   -1    0    0  501    0 -0.00000000000E+00 -0.00000000000E+00 -0.52910902736E+03  0.52910902736E+03  0.00000000000E+00 0. -1.
         25    2    1    2    0    0  0.35303087136E+02  0.77883042311E+02  0.14926975383E+03  0.21264665154E+03  0.12500025105E+03 0.  0.
          2    1    1    2  501    0 -0.35403685629E+02 -0.44078064660E+02 -0.49529099567E+03  0.49850723879E+03  0.00000000000E+00 0. -1.
          1    1    1    2  502    0  0.10059849301E+00 -0.33804977650E+02  0.54735556993E+03  0.54839849249E+03  0.00000000000E+00 0. -1.
         22    1    3    3    0    0  0.14449488347E+02 -0.12573934582E+02 -0.14752802612E+02  0.24177194405E+02  0.00000000000E+00 0. -1.
         22    1    3    3    0    0  0.20853598788E+02  0.90456976893E+02  0.16402255644E+03  0.18846945714E+03  0.00000000000E+00 0. -1.
</event>
<event>
 7    1  0.4915160E-006  0.1224887E+03  0.7818608E-02  0.1314378E+00
          2   -1    0    0  502    0  0.00000000000E+00  0.00000000000E+00  0.11493487075E+04  0.11493487075E+04  0.00000000000E+00 0. -1.
          1   -1    0    0  501    0 -0.00000000000E+00 -0.00000000000E+00 -0.76164655110E+02  0.76164655110E+02  0.00000000000E+00 0. -1.
         25    2    1    2    0    0  0.88783786003E+02 -0.31523001875E+02  0.36009167198E+03  0.39264227128E+03  0.12500272263E+03 0.  0.
          2    1    1    2  501    0 -0.12872499350E+03 -0.12643146729E+02  0.12716163308E+02  0.12996797267E+03  0.00000000000E+00 0. -1.
          1    1    1    2  502    0  0.39941207493E+02  0.44166148605E+02  0.70037621711E+03  0.70290311867E+03  0.00000000000E+00 0. -1.
         22    1    3    3    0    0  0.63342142783E+02 -0.78459015078E+02  0.26581551712E+03  0.28429902083E+03  0.00000000000E+00 0.  1.
         22    1    3    3    0    0  0.25441643220E+02  0.46936013203E+02  0.94276154855E+02  0.10834325046E+03  0.00000000000E+00 0.  1.
</event>
<event>
 7    1  0.4915160E-006  0.1044927E+03  0.7818608E-02  0.1280875E+00
          2   -1    0    0  502    0  0.00000000000E+00  0.00000000000E+00  0.58525403974E+03  0.58525403974E+03  0.00000000000E+00 0. -1.
          1   -1    0    0  501    0 -0.00000000000E+00 -0.00000000000E+00 -0.28717932099E+04  0.28717932099E+04  0.00000000000E+00 0. -1.
         25    2    1    2    0    0  0.70285046067E+02  0.13015524282E+03  0.20497863522E+03  0.28199676895E+03  0.12500224745E+03 0.  0.
          2    1    1    2  501    0 -0.90046821081E+02 -0.30820513309E+02 -0.28249614970E+04  0.28265643092E+04  0.00000000000E+00 0. -1.
          1    1    1    2  502    0  0.19761775014E+02 -0.99334729510E+02  0.33344369167E+03  0.34848617154E+03  0.00000000000E+00 0. -1.
         22    1    3    3    0    0  0.79457693156E+02  0.43677817570E+02  0.48130176718E+02  0.10265374158E+03  0.00000000000E+00 0.  1.
         22    1    3    3    0    0 -0.91726470895E+01  0.86477425248E+02  0.15684845850E+03  0.17934302737E+03  0.00000000000E+00 0.  1.
</event>
<event>
 7    1  0.4915160E-006  0.8081444E+02  0.7818608E-02  0.1345588E+00
          2   -1    0    0  502    0  0.00000000000E+00  0.00000000000E+00  0.29987900005E+03  0.29987900005E+03  0.00000000000E+00 0. -1.
          1   -1    0    0  501    0 -0.00000000000E+00 -0.00000000000E+00 -0.38288441910E+03  0.38288441910E+03  0.00000000000E+00 0. -1.
         25    2    1    2    0    0 -0.11905299878E+02  0.10811438816E+03 -0.64162092310E+02  0.17768567251E+03  0.12499986813E+03 0.  0.
          2    1    1    2  501    0 -0.45324010285E+02 -0.51473102241E+02 -0.25055619776E+03  0.25977327499E+03  0.00000000000E+00 0. -1.
          1    1    1    2  502    0  0.57229310163E+02 -0.56641285919E+02  0.23171287102E+03  0.24530447165E+03  0.00000000000E+00 0. -1.
         22    1    3    3    0    0 -0.52563023811E+02  0.79495988146E+02 -0.81121847696E+02  0.12515285765E+03  0.00000000000E+00 0.  1.
         22    1    3    3    0    0  0.40657723934E+02  0.28618400014E+02  0.16959755386E+02  0.52532814864E+02  0.00000000000E+00 0.  1.
</event>
<event>
 7    1  0.4915160E-006  0.5429846E+02  0.7818608E-02  0.1491361E+00
          2   -1    0    0  502    0  0.00000000000E+00  0.00000000000E+00  0.26026349850E+04  0.26026349850E+04  0.00000000000E+00 0. -1.
          1   -1    0    0  501    0 -0.00000000000E+00 -0.00000000000E+00 -0.86863057227E+03  0.86863057227E+03  0.00000000000E+00 0. -1.
         25    2    1    2    0    0 -0.28788063074E+02  0.80023534817E+02  0.70270719251E+02  0.16671940006E+03  0.12499946268E+03 0.  0.
          2    1    1    2  501    0  0.19525442914E+01 -0.33027373114E+02 -0.81977776375E+03  0.82044512415E+03  0.00000000000E+00 0. -1.
          1    1    1    2  502    0  0.26835518783E+02 -0.46996161703E+02  0.24835114572E+04  0.24841010330E+04  0.00000000000E+00 0. -1.
         22    1    3    3    0    0  0.40094789368E+02  0.13567879115E+02 -0.79989534079E+01  0.43077403982E+02  0.00000000000E+00 0. -1.
         22    1    3    3    0    0 -0.68882852443E+02  0.66455655703E+02  0.78269672659E+02  0.12364199608E+03  0.00000000000E+00 0. -1.
</event>
<event>
 7    1  0.4915160E-006  0.9138633E+02  0.7818608E-02  0.1486037E+00
          2   -1    0    0  502    0  0.00000000000E+00  0.00000000000E+00  0.46229703966E+03  0.46229703966E+03  0.00000000000E+00 0. -1.
          1   -1    0    0  501    0 -0.00000000000E+00 -0.00000000000E+00 -0.74237150143E+03  0.74237150143E+03  0.00000000000E+00 0. -1.
         25    2    1    2    0    0 -0.53116528413E+01  0.10835292165E+03 -0.84543018240E+02  0.18585739692E+03  0.12500752285E+03 0.  0.
          2    1    1    2  501    0  0.12791436954E+02 -0.89371317617E+02 -0.60355893012E+03  0.61027390195E+03  0.00000000000E+00 0. -1.
          1    1    1    2  502    0 -0.74797841122E+01 -0.18981604032E+02  0.40802748660E+03  0.40853724222E+03  0.00000000000E+00 0. -1.
         22    1    3    3    0    0 -0.16971079663E+02  0.60756777569E+02  0.23423206057E+02  0.67290787984E+02  0.00000000000E+00 0.  1.
         22    1    3    3    0    0  0.11659426822E+02  0.47596144080E+02 -0.10796622430E+03  0.11856660893E+03  0.00000000000E+00 0.  1.
</event>
<event>
 7    1  0.4915160E-006  0.9079707E+02  0.7818608E-02  0.1305020E+00
          2   -1    0    0  502    0  0.00000000000E+00  0.00000000000E+00  0.62024627730E+03  0.62024627730E+03  0.00000000000E+00 0. -1.
          1   -1    0    0  501    0 -0.00000000000E+00 -0.00000000000E+00 -0.22303896364E+04  0.22303896364E+04  0.00000000000E+00 0. -1.
         25    2    1    2    0    0  0.12865500484E+03 -0.43965072818E+02  0.39275340512E+02  0.18881947136E+03  0.12500080998E+03 0.  0.
          2    1    1    2  501    0 -0.47720064076E+02  0.77101608560E+02 -0.21508777973E+04  0.21527882296E+04  0.00000000000E+00 0. -1.
          1    1    1    2  502    0 -0.80934940765E+02 -0.33136535742E+02  0.50145909773E+03  0.50902821271E+03  0.00000000000E+00 0. -1.
         22    1    3    3    0    0  0.55729314267E+02 -0.56714076667E+02 -0.32320911569E+02  0.85830555664E+02  0.00000000000E+00 0.  1.
         22    1    3    3    0    0  0.72925690574E+02  0.12749003849E+02  0.71596252081E+02  0.10298891570E+03  0.00000000000E+00 0.  1.
</event>
<event>
 7    1  0.4915160E-006  0.4892398E+02  0.7818608E-02  0.1474617E+00
          2   -1    0    0  502    0  0.00000000000E+00  0.00000000000E+00  0.34430580472E+03  0.34430580472E+03  0.00000000000E+00 0. -1.
          1   -1    0    0  501    0 -0.00000000000E+00 -0.00000000000E+00 -0.12176759062E+03  0.12176759062E+03  0.00000000000E+00 0. -1.
         25    2    1    2    0    0  0.64145812686E+01 -0.14306570008E+02  0.10078063796E+03  0.16133064695E+03  0.12500006343E+03 0.  0.
          2    1    1    2  501    0 -0.47499460953E+02  0.18610673213E+02 -0.82145234798E+02  0.96697443339E+02  0.00000000000E+00 0. -1.
          1    1    1    2  502    0  0.41084879685E+02 -0.43041032046E+01  0.20390281094E+03  0.20804530505E+03  0.00000000000E+00 0. -1.
         22    1    3    3    0    0 -0.44376482502E+02  0.17864304702E+02  0.48041569385E+01  0.48077910787E+02  0.00000000000E+00 0.  1.
         22    1    3    3    0    0  0.50791063771E+02 -0.32170874711E+02  0.95976481020E+02  0.11325273616E+03  0.00000000000E+00 0.  1.
</event>
<event>
 7    1  0.4915160E-006  0.1463386E+03  0.7818608E-02  0.1229075E+00
          2   -1    0    0  502    0  0.00000000000E+00  0.00000000000E+00  0.28974717513E+03  0.28974717513E+03  0.00000000000E+00 0. -1.
          1   -1    0    0  501    0 -0.00000000000E+00 -0.00000000000E+00 -0.49678927821E+03  0.49678927821E+03  0.00000000000E+00 0. -1.
         25    2    1    2    0    0  0.58806596256E+02 -0.14109014650E+03 -0.55057623804E+01  0.19753384522E+03  0.12499864553E+03 0.  0.
          2    1    1    2  501    0 -0.11351037341E+03 -0.35373977204E+01 -0.35404884370E+03  0.37181675833E+03  0.00000000000E+00 0. -1.
          1    1    1    2  502    0  0.54703777152E+02  0.14462754422E+03  0.15251250299E+03  0.21718584979E+03  0.00000000000E+00 0. -1.
         22    1    3    3    0    0  0.14876385242E+02  0.51582654377E+01  0.35997526015E+02  0.39290411291E+02  0.00000000000E+00 0. -1.
         22    1    3    3    0    0  0.43930211014E+02 -0.14624841194E+03 -0.41503288396E+02  0.15824343393E+03  0.00000000000E+00 0. -1.
</event>
<event>
 7    1  0.4915160E-006  0.1452109E+03  0.7818608E-02  0.1337139E+00
          2   -1    0    0  502    0  0.00000000000E+00  0.00000000000E+00  0.77781645119E+03  0.77781645119E+03  0.00000000000E+00 0. -1.
          1   -1    0    0  501    0 -0.00000000000E+00 -0.00000000000E+00 -0.59374659914E+03  0.59374659914E+03  0.00000000000E+00 0. -1.
         25    2    1    2    0    0 -0.82497178940E+02 -0.11375172844E+03  0.37926384945E+03  0.42333380688E+03  0.12500081715E+03 0.  0.
          2    1    1    2  501    0 -0.35671599293E+02  0.20335881460E+02 -0.55585804934E+03  0.55737257027E+03  0.00000000000E+00 0. -1.
          1    1    1    2  502    0  0.11816877823E+03  0.93415846978E+02  0.36066405193E+03  0.39085667318E+03  0.00000000000E+00 0. -1.
         22    1    3    3    0    0  0.26419608466E+02  0.19358590408E+01  0.83366973492E+02  0.87474542187E+02  0.00000000000E+00 0. -1.
         22    1    3    3    0    0 -0.10891678741E+03 -0.11568758748E+03  0.29589687596E+03  0.33585926469E+03  0.00000000000E+00 0. -1.
</event>
<event>
 7    1  0.4915160E-006  0.4295373E+02  0.7818608E-02  0.1570228E+00
          2   -1    0    0  502    0  0.00000000000E+00  0.00000000000E+00  0.18576977332E+03  0.18576977332E+03  0.00000000000E+00 0. -1.
          1   -1    0    0  501    0 -0.00000000000E+00 -0.00000000000E+00 -0.26514023718E+03  0.26514023718E+03  0.00000000000E+00 0. -1.
         25    2    1    2    0    0  0.11912435301E+02  0.44973626418E+02 -0.62059634818E+02  0.14710885127E+03  0.12500033064E+03 0.  0.
          2    1    1    2  501    0 -0.24567617404E+02 -0.38203767187E+01 -0.15631591862E+03  0.15828085644E+03  0.00000000000E+00 0. -1.
          1    1    1    2  502    0  0.12655182102E+02 -0.41153249699E+02  0.13900508957E+03  0.14552030278E+03  0.00000000000E+00 0. -1.
         22    1    3    3    0    0  0.46830284678E+02  0.28973333474E+02 -0.85802338047E+02  0.10195376810E+03  0.00000000000E+00 0.  1.
         22    1    3    3    0    0 -0.34917849377E+02  0.16000292944E+02  0.23742703229E+02  0.45155083169E+02  0.00000000000E+00 0.  1.
</event>
<event>
 7    1  0.4915160E-006  0.2632452E+03  0.7818608E-02  0.1114075E+00
          2   -1    0    0  502    0  0.00000000000E+00  0.00000000000E+00  0.49853973630E+03  0.49853973630E+03  0.00000000000E+00 0. -1.
          1   -1    0    0  501    0 -0.00000000000E+00 -0.00000000000E+00 -0.20285687102E+04  0.20285687102E+04  0.00000000000E+00 0. -1.
         25    2    1    2    0    0 -0.21255071005E+03 -0.67246273005E+02 -0.41865766884E+03  0.49050885349E+03  0.12499930441E+03 0.  0.
          2    1    1    2  501    0  0.19135311339E+03 -0.19514404934E+03 -0.15233637261E+04  0.15476867435E+04  0.00000000000E+00 0. -1.
          1    1    1    2  502    0  0.21197596655E+02  0.26239032235E+03  0.41199242107E+03  0.48891284948E+03  0.00000000000E+00 0. -1.
         22    1    3    3    0    0 -0.13930272138E+03 -0.10318249397E+03 -0.30053274033E+03  0.34694639825E+03  0.00000000000E+00 0.  1.
         22    1    3    3    0    0 -0.73247988669E+02  0.35936220964E+02 -0.11812492851E+03  0.14356245524E+03  0.00000000000E+00 0.  1.
</event>
<event>
 7    1  0.4915160E-006  0.1557817E+03  0.7818608E-02  0.1293600E+00
          2   -1    0    0  502    0  0.00000000000E+00  0.00000000000E+00  0.11847395478E+04  0.11847395478E+04  0.00000000000E+00 0. -1.
          1   -1    0    0  501    0 -0.00000000000E+00 -0.00000000000E+00 -0.74261586247E+02  0.74261586247E+02  0.00000000000E+00 0. -1.
         25    2    1    2    0    0  0.16466174195E+03 -0.59110607121E+02  0.49371302535E+03  0.53850204582E+03  0.12499739523E+03 0.  0.
          2    1    1    2  501    0 -0.12042835044E+03  0.94484026867E+02  0.65770393041E+02  0.16660121105E+03  0.00000000000E+00 0. -1.
          1    1    1    2  502    0 -0.44233391509E+02 -0.35373419746E+02  0.55099454315E+03  0.55389787717E+03  0.00000000000E+00 0. -1.
         22    1    3    3    0    0  0.11967693936E+03 -0.45676285830E+02  0.17790707132E+03  0.21922549790E+03  0.00000000000E+00 0. -1.
         22    1    3    3    0    0  0.44984802589E+02 -0.13434321291E+02  0.31580595403E+03  0.31927654792E+03  0.00000000000E+00 0. -1.
</event>
<event>
 7    1  0.4915160E-006  0.8275242E+02  0.7818608E-02  0.1382915E+00
          2   -1    0    0  502    0  0.00000000000E+00  0.00000000000E+00  0.26185718828E+04  0.26185718828E+04  0.00000000000E+00 0. -1.
          1   -1    0    0  501    0 -0.00000000000E+00 -0.00000000000E+00 -0.25533557439E+04  0.25533557439E+04  0.00000000000E+00 0. -1.
         25    2    1    2    0    0 -0.81179000141E+02  0.69167866052E+02  0.32007525551E+03  0.35978905430E+03  0.12500308253E+03 0.  0.
          2    1    1    2  501    0  0.80238637625E+02 -0.20137040704E+02 -0.25325595178E+04  0.25339103083E+04  0.00000000000E+00 0. -1.
          1    1    1    2  502    0  0.94036251632E+00 -0.49030825348E+02  0.22777004011E+04  0.22782282641E+04  0.00000000000E+00 0. -1.
         22    1    3    3    0    0 -0.31417367336E+02 -0.10157539060E+02  0.22104031330E+03  0.22349283361E+03  0.00000000000E+00 0.  1.
         22    1    3    3    0    0 -0.49761632805E+02  0.79325405111E+02  0.99034942213E+02  0.13629622069E+03  0.00000000000E+00 0.  1.
</event>
<event>
 7    1  0.4915160E-006  0.8960285E+02  0.7818608E-02  0.1350792E+00
          2   -1    0    0  502    0  0.00000000000E+00  0.00000000000E+00  0.25049663182E+03  0.25049663182E+03  0.00000000000E+00 0. -1.
          1   -1    0    0  501    0 -0.00000000000E+00 -0.00000000000E+00 -0.21696286067E+03  0.21696286067E+03  0.00000000000E+00 0. -1.
         25    2    1    2    0    0  0.36783992933E+01 -0.36878759397E+02 -0.11907232096E+03  0.17657089297E+03  0.12500195642E+03 0.  0.
          2    1    1    2  501    0  0.33021552947E+02 -0.49090712704E+02 -0.43640282636E+02  0.73517312936E+02  0.00000000000E+00 0. -1.
          1    1    1    2  502    0 -0.36699952240E+02  0.85969472101E+02  0.19624637475E+03  0.21737128658E+03  0.00000000000E+00 0. -1.
         22    1    3    3    0    0  0.42793130463E+02 -0.26940655536E+02  0.29252454474E+00  0.50568137262E+02  0.00000000000E+00 0. -1.
         22    1    3    3    0    0 -0.39114731170E+02 -0.99381038612E+01 -0.11936484551E+03  0.12600275571E+03  0.00000000000E+00 0. -1.
</event>
<event>
 7    1  0.4915160E-006  0.2911168E+03  0.7818608E-02  0.1282750E+00
          2   -1    0    0  502    0  0.00000000000E+00  0.00000000000E+00  0.24970723160E+03  0.24970723160E+03  0.00000000000E+00 0. -1.
          1   -1    0    0  501    0 -0.00000000000E+00 -0.00000000000E+00 -0.10604114777E+04  0.10604114777E+04  0.00000000000E+00 0. -1.
         25    2    1    2    0    0 -0.17117589461E+03  0.22201875424E+03 -0.33681410291E+03  0.45569962668E+03  0.12499958282E+03 0.  0.
          2    1    1    2  501    0  0.15744837529E+03 -0.25264231342E+03 -0.62891121199E+03  0.69580704364E+03  0.00000000000E+00 0. -1.
          1    1    1    2  502    0  0.13727519326E+02  0.30623559176E+02  0.15502106876E+03  0.15861203902E+03  0.00000000000E+00 0. -1.
         22    1    3    3    0    0 -0.93385643293E+02  0.70806654036E+02 -0.22039811999E+03  0.24961929398E+03  0.00000000000E+00 0. -1.
         22    1    3    3    0    0 -0.77790251322E+02  0.15121210020E+03 -0.11641598292E+03  0.20608033271E+03  0.00000000000E+00 0. -1.
</event>
<event>
 7    1  0.4915160E-006  0.1166059E+03  0.7818608E-02  0.1398022E+00
          2   -1    0    0  502    0  0.00000000000E+00  0.00000000000E+00  0.12301103490E+03  0.12301103490E+03  0.00000000000E+00 0. -1.
          1   -1    0    0  501    0 -0.00000000000E+00 -0.00000000000E+00 -0.39371991266E+03  0.39371991266E+03  0.00000000000E+00 0. -1.
         25    2    1    2    0    0 -0.24629557010E+02 -0.90797588998E+02 -0.99692874571E+02  0.18552230146E+03  0.12501615037E+03 0.  0.
          2    1    1    2  501    0  0.31280937402E+02  0.12089802984E+03 -0.23166239749E+03  0.26317731109E+03  0.00000000000E+00 0. -1.
          1    1    1    2  502    0 -0.66513803911E+01 -0.30100440840E+02  0.60646394303E+02  0.68031335000E+02  0.00000000000E+00 0. -1.
         22    1    3    3    0    0 -0.74110208105E+02 -0.42494577576E+02 -0.40700979233E+02  0.94629180379E+02  0.00000000000E+00 0. -1.
         22    1    3    3    0    0  0.49480651094E+02 -0.48303011422E+02 -0.58991895338E+02  0.90893121085E+02  0.00000000000E+00 0. -1.
</event>
<event>
 7    1  0.4915160E-006  0.1735517E+03  0.7818608E-02  0.1249079E+00
          2   -1    0    0  502    0  0.00000000000E+00  0.00000000000E+00  0.47827040009E+03  0.47827040009E+03  0.00000000000E+00 0. -1.
          1   -1    0    0  501    0 -0.00000000000E+00 -0.00000000000E+00 -0.30001328383E+04  0.30001328383E+04  0.00000000000E+00 0. -1.
         25    2    1    2    0    0 -0.23442987811E+03  0.59508997873E+02 -0.48615512350E+03  0.55719803893E+03  0.12499664756E+03 0.  0.
          2    1    1    2  501    0  0.15634118301E+03 -0.62040810960E+02 -0.24721293177E+04  0.24778448279E+04  0.00000000000E+00 0. -1.
          1    1    1    2  502    0  0.78088695098E+02  0.25318130879E+01  0.43642200299E+03  0.44336037156E+03  0.00000000000E+00 0. -1.
         22    1    3    3    0    0 -0.10036275652E+03 -0.18608864362E+01 -0.31843376267E+03  0.33388052803E+03  0.00000000000E+00 0. -1.
         22    1    3    3    0    0 -0.13406712159E+03  0.61369884309E+02 -0.16772136083E+03  0.22331751089E+03  0.00000000000E+00 0. -1.
</event>
<event>
 7    1  0.4915160E-006  0.2569931E+02  0.7818608E-02  0.1652031E+00
          2   -1    0    0  502    0  0.00000000000E+00  0.00000000000E+00  0.10579610320E+03  0.10579610320E+03  0.00000000000E+00 0. -1.
          1   -1    0    0  501    0 -0.00000000000E+00 -0.00000000000E+00 -0.35927955081E+03  0.35927955081E+03  0.00000000000E+00 0. -1.
         25    2    1    2    0    0  0.12266739463E+02 -0.44330306043E+02  0.40833247329E+02  0.13931203194E+03  0.12499935689E+03 0.  0.
          2    1    1    2  501    0 -0.16950068524E+02  0.19189955922E+02 -0.29871928900E+03  0.29981456411E+03  0.00000000000E+00 0. -1.
          1    1    1    2  502    0  0.46833290607E+01  0.25140350121E+02  0.44025940594E+01  0.25949057974E+02  0.00000000000E+00 0. -1.
         22    1    3    3    0    0 -0.44842922875E+01 -0.33690659550E+02 -0.42060310812E+02  0.54076234742E+02  0.00000000000E+00 0.  1.
         22    1    3    3    0    0  0.16751031751E+02 -0.10639646493E+02  0.82893558141E+02  0.85235797195E+02  0.00000000000E+00 0.  1.
</event>
<event>
 7    1  0.4915160E-006  0.4867387E+02  0.7818608E-02  0.1563595E+00
          2   -1    0    0  502    0  0.00000000000E+00  0.00000000000E+00  0.17239950346E+03  0.17239950346E+03  0.00000000000E+00 0. -1.
          1   -1    0    0  501    0 -0.00000000000E+00 -0.00000000000E+00 -0.42852573355E+03  0.42852573355E+03  0.00000000000E+00 0. -1.
         25    2    1    2    0    0  0.12742965564E+02  0.61667686269E+02 -0.20861738918E+03  0.25122024811E+03  0.12500044516E+03 0.  0.
          2    1    1    2  501    0 -0.22902501625E+02 -0.41173196322E+02 -0.19491817617E+03  0.20053142417E+03  0.00000000000E+00 0. -1.
          1    1    1    2  502    0  0.10159536061E+02 -0.20494489946E+02  0.14740933526E+03  0.14917356473E+03  0.00000000000E+00 0. -1.
         22    1    3    3    0    0 -0.50457367745E+02  0.57409808501E+02 -0.12056729954E+03  0.14275260345E+03  0.00000000000E+00 0. -1.
         22    1    3    3    0    0  0.63200333309E+02  0.42578777679E+01 -0.88050089644E+02  0.10846764467E+03  0.00000000000E+00 0. -1.
</event>
<event>
 7    1  0.4915160E-006  0.1345080E+03  0.7818608E-02  0.1324805E+00
          2   -1    0    0  502    0  0.00000000000E+00  0.00000000000E+00  0.14734563421E+04  0.14734563421E+04  0.00000000000E+00 0. -1.
          1   -1    0    0  501    0 -0.00000000000E+00 -0.00000000000E+00 -0.62176561177E+02  0.62176561177E+02  0.00000000000E+00 0. -1.
         25    2    1    2    0    0  0.10526114262E+03 -0.82667381313E+02  0.86678029616E+03  0.88591663318E+03  0.12500558011E+03 0.  0.
          2    1    1    2  501    0  0.27571752050E+02  0.40990544228E+02 -0.30530547200E+02  0.58073578670E+02  0.00000000000E+00 0. -1.
          1    1    1    2  502    0 -0.13283289467E+03  0.41676837085E+02  0.57503003194E+03  0.59164269140E+03  0.00000000000E+00 0. -1.
         22    1    3    3    0    0  0.44759080711E+02  0.30800083335E+02  0.27759749883E+03  0.28286461743E+03  0.00000000000E+00 0. -1.
         22    1    3    3    0    0  0.60502061909E+02 -0.11346746465E+03  0.58918279733E+03  0.60305201575E+03  0.00000000000E+00 0. -1.
</event>
<event>
 7    1  0.4915160E-006  0.2264848E+03  0.7818608E-02  0.1198917E+00
          2   -1    0    0  502    0  0.00000000000E+00  0.00000000000E+00  0.33249338454E+04  0.33249338454E+04  0.00000000000E+00 0. -1.
          1   -1    0    0  501    0 -0.00000000000E+00 -0.00000000000E+00 -0.28605282428E+04  0.28605282428E+04  0.00000000000E+00 0. -1.
         25    2    1    2    0    0  0.16566415700E+03 -0.15146243144E+03 -0.17733975007E+04  0.17919121185E+04  0.12499945515E+03 0.  0.
          2    1    1    2  501    0 -0.81983839511E+02 -0.59053798692E+02 -0.10716248760E+04  0.10763775249E+04  0.00000000000E+00 0. -1.
          1    1    1    2  502    0 -0.83680317491E+02  0.21051623013E+03  0.33094279793E+04  0.33171724449E+04  0.00000000000E+00 0. -1.
         22    1    3    3    0    0  0.72361537095E+02 -0.19731912372E+01 -0.33310636958E+03  0.34088112149E+03  0.00000000000E+00 0. -1.
         22    1    3    3    0    0  0.93302619907E+02 -0.14948924020E+03 -0.14402911312E+04  0.14510309970E+04  0.00000000000E+00 0. -1.
</event>
<event>
 7    1  0.4915160E-006  0.1042237E+03  0.7818608E-02  0.1347022E+00
          2   -1    0    0  502    0  0.00000000000E+00  0.00000000000E+00  0.44794420947E+03  0.44794420947E+03  0.00000000000E+00 0. -1.
          1   -1    0    0  501    0 -0.00000000000E+00 -0.00000000000E+00 -0.63832780405E+03  0.63832780405E+03  0.00000000000E+00 0. -1.
         25    2    1    2    0    0  0.87994974656E+00 -0.72168842093E+02 -0.15756399331E+03  0.21368201013E+03  0.12499789352E+03 0.  0.
          2    1    1    2  501    0  0.47910822439E+02 -0.21537606076E+02 -0.44448812352E+03  0.44758128572E+03  0.00000000000E+00 0. -1.
          1    1    1    2  502    0 -0.48790772186E+02  0.93706448169E+02  0.41166852225E+03  0.42500871766E+03  0.00000000000E+00 0. -1.
         22    1    3    3    0    0 -0.29291784878E+02  0.22882380723E+02 -0.15878242535E+02  0.40419433381E+02  0.00000000000E+00 0. -1.
         22    1    3    3    0    0  0.30171734624E+02 -0.95051222816E+02 -0.14168575078E+03  0.17326257675E+03  0.00000000000E+00 0. -1.
</event>
<event>
 7    1  0.4915160E-006  0.1472300E+03  0.7818608E-02  0.1252040E+00
          2   -1    0    0  502    0  0.00000000000E+00  0.00000000000E+00  0.97123774430E+03  0.97123774430E+03  0.00000000000E+00 0. -1.
          1   -1    0    0  501    0 -0.00000000000E+00 -0.00000000000E+00 -0.73480597527E+03  0.73480597527E+03  0.00000000000E+00 0. -1.
         25    2    1    2    0    0 -0.83233528838E+02  0.20641107611E+02 -0.14425921898E+03  0.20925920295E+03  0.12499926445E+03 0.  0.
          2    1    1    2  501    0  0.17245350162E+03 -0.14729219104E+02 -0.54241383527E+03  0.56935922651E+03  0.00000000000E+00 0. -1.
          1    1    1    2  502    0 -0.89219972787E+02 -0.59118885076E+01  0.92310482328E+03  0.92742529011E+03  0.00000000000E+00 0. -1.
         22    1    3    3    0    0 -0.19629014826E+02  0.28987827107E+02 -0.14072268642E+03  0.14501195405E+03  0.00000000000E+00 0. -1.
         22    1    3    3    0    0 -0.63604514012E+02 -0.83467194961E+01 -0.35365325588E+01  0.64247248902E+02  0.00000000000E+00 0. -1.
</event>
<event>
 7    1  0.4915160E-006  0.5692272E+02  0.7818608E-02  0.1469782E+00
          2   -1    0    0  502    0  0.00000000000E+00  0.00000000000E+00  0.11560512122E+04  0.11560512122E+04  0.00000000000E+00 0. -1.
          1   -1    0    0  501    0 -0.00000000000E+00 -0.00000000000E+00 -0.30374728376E+03  0.30374728376E+03  0.00000000000E+00 0. -1.
         25    2    1    2    0    0  0.17129868652E+02 -0.11879786256E+02  0.17402880747E+02  0.12791612700E+03  0.12500045427E+03 0.  0.
          2    1    1    2  501    0  0.33199802844E+02 -0.15763856947E+02 -0.24636573054E+03  0.24909194945E+03  0.00000000000E+00 0. -1.
          1    1    1    2  502    0 -0.50329671496E+02  0.27643643203E+02  0.10812667783E+04  0.10827904196E+04  0.00000000000E+00 0. -1.
         22    1    3    3    0    0 -0.15392722213E+02  0.23643415219E+02  0.58277235727E+02  0.64747070855E+02  0.00000000000E+00 0. -1.
         22    1    3    3    0    0  0.32522590865E+02 -0.35523201475E+02 -0.40874354980E+02  0.63169056148E+02  0.00000000000E+00 0. -1.
</event>
<event>
 7    1  0.4915160E-006  0.6301489E+02  0.7818608E-02  0.1468119E+00
          2   -1    0    0  502    0  0.00000000000E+00  0.00000000000E+00  0.30932077784E+03  0.30932077784E+03  0.00000000000E+00 0. -1.
          1   -1    0    0  501    0 -0.00000000000E+00 -0.00000000000E+00 -0.28248595018E+03  0.28248595018E+03  0.00000000000E+00 0. -1.
         25    2    1    2    0    0  0.33450921345E+02 -0.17076679753E+02 -0.24663731823E+03  0.27904095986E+03  0.12499325343E+03 0.  0.
          2    1    1    2  501    0  0.29940903788E+02  0.15242014035E+02  0.16436592502E+01  0.33637454233E+02  0.00000000000E+00 0. -1.
          1    1    1    2  502    0 -0.63391825134E+02  0.18346657175E+01  0.27182848664E+03  0.27912831394E+03  0.00000000000E+00 0. -1.
         22    1    3    3    0    0 -0.45575557557E+00  0.48591692740E+02 -0.14809645579E+03  0.15586507156E+03  0.00000000000E+00 0. -1.
         22    1    3    3    0    0  0.33906676921E+02 -0.65668372493E+02 -0.98540862447E+02  0.12317588830E+03  0.00000000000E+00 0. -1.
</event>
<event>
 7    1  0.4915160E-006  0.2074522E+03  0.7818608E-02  0.1335374E+00
          2   -1    0    0  502    0  0.00000000000E+00  0.00000000000E+00  0.49107299012E+03  0.49107299012E+03  0.00000000000E+00 0. -1.
          1   -1    0    0  501    0 -0.00000000000E+00 -0.00000000000E+00 -0.18652816110E+04  0.18652816110E+04  0.00000000000E+00 0. -1.
         25    2    1    2    0    0 -0.99946701955E+02 -0.16183049029E+03 -0.55276761549E+03  0.59779233226E+03  0.12500073982E+03 0.  0.
          2    1    1    2  501    0 -0.29148050555E+02 -0.15087128623E+01 -0.12666984716E+04  0.12670346890E+04  0.00000000000E+00 0. -1.
          1    1    1    2  502    0  0.12909475251E+03  0.16333920315E+03  0.44525746631E+03  0.49152757981E+03  0.00000000000E+00 0. -1.
         22    1    3    3    0    0  0.26943804520E+01  0.19147089764E+02 -0.40242538769E+02  0.44646754182E+02  0.00000000000E+00 0.  1.
         22    1    3    3    0    0 -0.10264108241E+03 -0.18097758005E+03 -0.51252507672E+03  0.55314557808E+03  0.00000000000E+00 0.  1.
</event>
<event>
 7    1  0.4915160E-006  0.1247705E+03  0.7818608E-02  0.1276429E+00
          2   -1    0    0  502    0  0.00000000000E+00  0.00000000000E+00  0.81377734922E+03  0.81377734922E+03  0.00000000000E+00 0. -1.
          1   -1    0    0  501    0 -0.00000000000E+00 -0.00000000000E+00 -0.10527102297E+04  0.10527102297E+04  0.00000000000E+00 0. -1.
         25    2    1    2    0    0  0.32266601269E+02 -0.18265136995E+03  0.32225140878E+03  0.39226614401E+03  0.12499640302E+03 0.  0.
          2    1    1    2  501    0 -0.64706025739E+02  0.10608025204E+03 -0.10100768402E+04  0.10176910694E+04  0.00000000000E+00 0. -1.
          1    1    1    2  502    0  0.32439424469E+02  0.76571117915E+02  0.44889255093E+03  0.45653036552E+03  0.00000000000E+00 0. -1.
         22    1    3    3    0    0  0.53784204353E+02 -0.65541505373E+02  0.58865368232E+02  0.10321608955E+03  0.00000000000E+00 0.  1.
         22    1    3    3    0    0 -0.21517603084E+02 -0.11710986458E+03  0.26338604055E+03  0.28905005446E+03  0.00000000000E+00 0.  1.
</event>
<event>
 7    1  0.4915160E-006  0.7870983E+02  0.7818608E-02  0.1348869E+00
          2   -1    0    0  502    0  0.00000000000E+00  0.00000000000E+00  0.11635216411E+04  0.11635216411E+04  0.00000000000E+00 0. -1.
          1   -1    0    0  501    0 -0.00000000000E+00 -0.00000000000E+00 -0.34243183688E+03  0.34243183688E+03  0.00000000000E+00 0. -1.
         25    2    1    2    0    0 -0.11562705378E+02 -0.27317170056E+01  0.21924929814E+01  0.12559188374E+03  0.12500942285E+03 0.  0.
          2    1    1    2  501    0 -0.64921940440E+02 -0.21741915026E+02 -0.27506396666E+03  0.28345679561E+03  0.00000000000E+00 0. -1.
          1    1    1    2  502    0  0.76484645817E+02  0.24473632032E+02  0.10939612779E+04  0.10969047986E+04  0.00000000000E+00 0. -1.
         22    1    3    3    0    0  0.15999983338E+02  0.37280716995E+02  0.45177601348E+02  0.60719576662E+02  0.00000000000E+00 0.  1.
         22    1    3    3    0    0 -0.27562688716E+02 -0.40012434001E+02 -0.42985108366E+02  0.64872307075E+02  0.00000000000E+00 0.  1.
</event>
<event>
 7    1  0.4915160E-006  0.6158167E+02  0.7818608E-02  0.1454419E+00
          2   -1    0    0  502    0  0.00000000000E+00  0.00000000000E+00  0.95138598753E+02  0.95138598753E+02  0.00000000000E+00 0. -1.
          1   -1    0    0  501    0 -0.00000000000E+00 -0.00000000000E+00 -0.11240057534E+04  0.11240057534E+04  0.00000000000E+00 0. -1.
         25    2    1    2    0    0  0.36113568746E+02 -0.51570224059E+02 -0.15198410693E+03  0.20661017831E+03  0.12499967666E+03 0.  0.
          2    1    1    2  501    0  0.22566285342E+02  0.30536390706E+02 -0.92991632152E+03  0.93069118048E+03  0.00000000000E+00 0. -1.
          1    1    1    2  502    0 -0.58679854088E+02  0.21033833353E+02  0.53033273844E+02  0.81842993322E+02  0.00000000000E+00 0. -1.
         22    1    3    3    0    0 -0.30474336289E+02 -0.10759497117E+02 -0.11636968970E+03  0.12077398988E+03  0.00000000000E+00 0. -1.
         22    1    3    3    0    0  0.66587905036E+02 -0.40810726941E+02 -0.35614417234E+02  0.85836188437E+02  0.00000000000E+00 0. -1.
</event>
<event>
 7    1  0.4915160E-006  0.1453579E+03  0.7818608E-02  0.1340612E+00
          2   -1    0    0  502    0  0.00000000000E+00  0.00000000000E+00  0.36389448196E+03  0.36389448196E+03  0.00000000000E+00 0. -1.
          1   -1    0    0  501    0 -0.00000000000E+00 -0.00000000000E+00 -0.23555631421E+03  0.23555631421E+03  0.00000000000E+00 0. -1.
         25    2    1    2    0    0 -0.10839255135E+03  0.42580670594E+02  0.75318744792E+02  0.18670908611E+03  0.12500124328E+03 0.  0.
          2    1    1    2  501    0  0.13433471091E+03 -0.72766485748E+02 -0.14507788538E+03  0.21068547370E+03  0.00000000000E+00 0. -1.
          1    1    1    2  502    0 -0.25942159560E+02  0.30185815154E+02  0.19809730834E+03  0.20205623636E+03  0.00000000000E+00 0. -1.
         22    1    3    3    0    0 -0.10039014846E+03 -0.17262938631E+02  0.74719705344E+02  0.12632982754E+03  0.00000000000E+00 0. -1.
         22    1    3    3    0    0 -0.80024028841E+01  0.59843609225E+02  0.59903944877E+00  0.60379258569E+02  0.00000000000E+00 0. -1.
</event>
<event>
 7    1  0.4915160E-006  0.2524421E+03  0.7818608E-02  0.1178616E+00
          2   -1    0    0  502    0  0.00000000000E+00  0.00000000000E+00  0.24420971425E+04  0.24420971425E+04  0.00000000000E+00 0. -1.
          1   -1    0    0  501    0 -0.00000000000E+00 -0.00000000000E+00 -0.95711233020E+02  0.95711233020E+02  0.00000000000E+00 0. -1.
         25    2    1    2    0    0 -0.14819529049E+02 -0.17735278068E+03  0.45851767951E+03  0.50748122452E+03  0.12500041426E+03 0.  0.
          2    1    1    2  501    0  0.35939704082E+02 -0.10765415156E+03 -0.73023378543E+01  0.11372951603E+03  0.00000000000E+00 0. -1.
          1    1    1    2  502    0 -0.21120175033E+02  0.28500693224E+03  0.18951705678E+04  0.19165976350E+04  0.00000000000E+00 0. -1.
         22    1    3    3    0    0  0.76504303721E+01 -0.12197709850E+03  0.41744183305E+03  0.43496508552E+03  0.00000000000E+00 0. -1.
         22    1    3    3    0    0 -0.22469959421E+02 -0.55375682178E+02  0.41075846457E+02  0.72516138998E+02  0.00000000000E+00 0. -1.
</event>
<event>
 7    1  0.4915160E-006  0.5554729E+02  0.7818608E-02  0.1461207E+00
          2   -1    0    0  502    0  0.00000000000E+00  0.00000000000E+00  0.25780616363E+03  0.25780616363E+03  0.00000000000E+00 0. -1.
          1   -1    0    0  501    0 -0.00000000000E+00 -0.00000000000E+00 -0.11388086509E+04  0.11388086509E+04  0.00000000000E+00 0. -1.
         25    2    1    2    0    0 -0.68856483989E+02  0.63871437324E+02 -0.44336971046E+03  0.47013172327E+03  0.12500544461E+03 0.  0.
          2    1    1    2  501    0  0.23230596584E+02 -0.32640652068E+02 -0.67833250950E+03  0.67951458132E+03  0.00000000000E+00 0. -1.
          1    1    1    2  502    0  0.45625887406E+02 -0.31230785257E+02  0.24069973272E+03  0.24696850990E+03  0.00000000000E+00 0. -1.
         22    1    3    3    0    0 -0.59178416207E+02 -0.45178767798E+01 -0.76534418573E+02  0.96850469186E+02  0.00000000000E+00 0. -1.
         22    1    3    3    0    0 -0.96780677827E+01  0.68389314104E+02 -0.36683529188E+03  0.37328125408E+03  0.00000000000E+00 0. -1.
</event>
<event>
 7    1  0.4915160E-006  0.1391698E+03  0.7818608E-02  0.1280071E+00
          2   -1    0    0  502    0  0.00000000000E+00  0.00000000000E+00  0.93972552664E+03  0.93972552664E+03  0.00000000000E+00 0. -1.
          1   -1    0    0  501    0 -0.00000000000E+00 -0.00000000000E+00 -0.62963418200E+03  0.62963418200E+03  0.00000000000E+00 0. -1.
         25    2    1    2    0    0 -0.42141125985E+02 -0.55773243414E+02 -0.13812603735E+03  0.19897337437E+03  0.12500028935E+03 0.  0.
          2    1    1    2  501    0 -0.52124233882E+02 -0.49681681042E+02 -0.45272117317E+03  0.45841211352E+03  0.00000000000E+00 0. -1.
          1    1    1    2  502    0  0.94265359867E+02  0.10545492446E+03  0.90093855515E+03  0.91197422075E+03  0.00000000000E+00 0. -1.
         22    1    3    3    0    0 -0.14306983101E+02  0.16376334323E+02  0.15687629360E+02  0.26813724214E+02  0.00000000000E+00 0. -1.
         22    1    3    3    0    0 -0.27834142883E+02 -0.72149577737E+02 -0.15381366671E+03  0.17215965016E+03  0.00000000000E+00 0. -1.
</event>
<event>
 7    1  0.4915160E-006  0.1604377E+03  0.7818608E-02  0.1223871E+00
          2   -1    0    0  502    0  0.00000000000E+00  0.00000000000E+00  0.15043168610E+04  0.15043168610E+04  0.00000000000E+00 0. -1.
          1   -1    0    0  501    0 -0.00000000000E+00 -0.00000000000E+00 -0.20257743540E+03  0.20257743540E+03  0.00000000000E+00 0. -1.
         25    2    1    2    0    0  0.14576077728E+03  0.98265700152E+02  0.91343887463E+03  0.93856177232E+03  0.12500108304E+03 0.  0.
          2    1    1    2  501    0 -0.16087696796E+03  0.10021682724E+02 -0.14930992260E+03  0.21971637611E+03  0.00000000000E+00 0. -1.
          1    1    1    2  502    0  0.15116190688E+02 -0.10828738288E+03  0.53761047355E+03  0.54861614794E+03  0.00000000000E+00 0. -1.
         22    1    3    3    0    0  0.61275927597E+01  0.60357698836E+02  0.41961478108E+03  0.42397778681E+03  0.00000000000E+00 0.  1.
         22    1    3    3    0    0  0.13963318452E+03  0.37908001316E+02  0.49382409354E+03  0.51458398551E+03  0.00000000000E+00 0.  1.
</event>
<event>
 7    1  0.4915160E-006  0.4465265E+02  0.7818608E-02  0.1547228E+00
          2   -1    0    0  502    0  0.00000000000E+00  0.00000000000E+00  0.20208960847E+04  0.20208960847E+04  0.00000000000E+00 0. -1.
          1   -1    0    0  501    0 -0.00000000000E+00 -0.00000000000E+00 -0.52791755855E+03  0.52791755855E+03  0.00000000000E+00 0. -1.
         25    2    1    2    0    0 -0.19363941566E+02 -0.10734316375E+02  0.41949850110E+02  0.13369780053E+03  0.12500049664E+03 0.  0.
          2    1    1    2  501    0 -0.42131803868E+01 -0.27355013827E+02 -0.48138650497E+03  0.48218151648E+03  0.00000000000E+00 0. -1.
          1    1    1    2  502    0  0.23577121953E+02  0.38089330202E+02  0.19324151810E+04  0.19329343262E+04  0.00000000000E+00 0. -1.
         22    1    3    3    0    0  0.52331934406E+02 -0.89585905066E+01  0.58728154097E+01  0.53417016608E+02  0.00000000000E+00 0. -1.
         22    1    3    3    0    0 -0.71695875972E+02 -0.17757258683E+01  0.36077034700E+02  0.80280783918E+02  0.00000000000E+00 0. -1.
</event>
<event>
 7    1  0.4915160E-006  0.6273374E+02  0.7818608E-02  0.1469357E+00
          2   -1    0    0  502    0  0.00000000000E+00  0.00000000000E+00  0.73065222620E+03  0.73065222620E+03  0.00000000000E+00 0. -1.
          1   -1    0    0  501    0 -0.00000000000E+00 -0.00000000000E+00 -0.68855817811E+03  0.68855817811E+03  0.00000000000E+00 0. -1.
         25    2    1    2    0    0 -0.64721558727E+02  0.59503908442E+01 -0.33679414177E+02  0.14485347529E+03  0.12499575612E+03 0.  0.
          2    1    1    2  501    0  0.57023042193E+02  0.26601034769E+02 -0.59722358340E+03  0.60052914247E+03  0.00000000000E+00 0. -1.
          1    1    1    2  502    0  0.76985165345E+01 -0.32551425614E+02  0.67299704566E+03  0.67382778656E+03  0.00000000000E+00 0. -1.
         22    1    3    3    0    0 -0.92722053961E+02  0.32238181610E+02 -0.39864072003E+02  0.10595198856E+03  0.00000000000E+00 0. -1.
         22    1    3    3    0    0  0.28000495234E+02 -0.26287790766E+02  0.61846578256E+01  0.38901486721E+02  0.00000000000E+00 0. -1.
</event>
<event>
 7    1  0.4915160E-006  0.1206880E+03  0.7818608E-02  0.1320593E+00
          2   -1    0    0  502    0  0.00000000000E+00  0.00000000000E+00  0.10529014503E+04  0.10529014503E+04  0.00000000000E+00 0. -1.
          1   -1    0    0  501    0 -0.00000000000E+00 -0.00000000000E+00 -0.39059499544E+02  0.39059499544E+02  0.00000000000E+00 0. -1.
         25    2    1    2    0    0  0.14151883615E+03 -0.11599003828E+02  0.52486023027E+03  0.55791691889E+03  0.12502363455E+03 0.  0.
          2    1    1    2  501    0 -0.10329931547E+03  0.54101831319E+02  0.14857206693E+03  0.18886877932E+03  0.00000000000E+00 0. -1.
          1    1    1    2  502    0 -0.38219520682E+02 -0.42502827491E+02  0.34040965353E+03  0.34517525161E+03  0.00000000000E+00 0. -1.
         22    1    3    3    0    0  0.54019584688E+02  0.10893078670E+02  0.40011993965E+03  0.40389694329E+03  0.00000000000E+00 0.  1.
         22    1    3    3    0    0  0.87499251464E+02 -0.22492082498E+02  0.12474029062E+03  0.15401997561E+03  0.00000000000E+00 0.  1.
</event>
<event>
 7    1  0.4915160E-006  0.1111396E+03  0.7818608E-02  0.1336218E+00
          2   -1    0    0  502    0  0.00000000000E+00  0.00000000000E+00  0.79280188561E+03  0.79280188561E+03  0.00000000000E+00 0. -1.
          1   -1    0    0  501    0 -0.00000000000E+00 -0.00000000000E+00 -0.89360029565E+03  0.89360029565E+03  0.00000000000E+00 0. -1.
         25    2    1    2    0    0  0.14531406929E+03  0.58462837068E+02 -0.10383999001E+02  0.20066599693E+03  0.12499973136E+03 0.  0.
          2    1    1    2  501    0 -0.54048335059E+02  0.18788780251E+01 -0.78284712165E+03  0.78471292112E+03  0.00000000000E+00 0. -1.
          1    1    1    2  502    0 -0.91265734227E+02 -0.60341715093E+02  0.69243271061E+03  0.70102326320E+03  0.00000000000E+00 0. -1.
         22    1    3    3    0    0  0.43002485890E+02 -0.39468250725E+02 -0.88111188113E+01  0.59030436409E+02  0.00000000000E+00 0.  1.
         22    1    3    3    0    0  0.10231158340E+03  0.97931087792E+02 -0.15728801895E+01  0.14163556052E+03  0.00000000000E+00 0.  1.
</event>
<event>
 7    1  0.4915160E-006  0.1260561E+03  0.7818608E-02  0.1357269E+00
          2   -1    0    0  502    0  0.00000000000E+00  0.00000000000E+00  0.13262351723E+03  0.13262351723E+03  0.00000000000E+00 0. -1.
          1   -1    0    0  501    0 -0.00000000000E+00 -0.00000000000E+00 -0.59934133754E+03  0.59934133754E+03  0.00000000000E+00 0. -1.
         25    2    1    2    0    0 -0.85118867582E+02  0.13388771827E+03 -0.20138749753E+03  0.28522685428E+03  0.12500516597E+03 0.  0.
          2    1    1    2  501    0  0.11825482564E+02 -0.38009842240E+02 -0.31407106722E+03  0.31658367836E+03  0.00000000000E+00 0. -1.
          1    1    1    2  502    0  0.73293385018E+02 -0.95877876035E+02  0.48740744428E+02  0.13015432212E+03  0.00000000000E+00 0. -1.
         22    1    3    3    0    0 -0.85689839585E+02  0.14861960283E+03 -0.20752883973E+03  0.26925592709E+03  0.00000000000E+00 0.  1.
         22    1    3    3    0    0  0.57097200290E+00 -0.14731884551E+02  0.61413421976E+01  0.15970927194E+02  0.00000000000E+00 0.  1.
</event>
<event>
 7    1  0.4915160E-006  0.7429809E+02  0.7818608E-02  0.1469154E+00
          2   -1    0    0  502    0  0.00000000000E+00  0.00000000000E+00  0.48783037399E+03  0.48783037399E+03  0.00000000000E+00 0. -1.
          1   -1    0    0  501    0 -0.00000000000E+00 -0.00000000000E+00 -0.42038479999E+02  0.42038479999E+02  0.00000000000E+00 0. -1.
         25    2    1    2    0    0  0.62941133532E+02 -0.14637263314E+02  0.20451225247E+03  0.24824464057E+03  0.12499721755E+03 0.  0.
          2    1    1    2  501    0  0.14381818682E+02  0.24354886316E+02  0.22481877157E+00  0.28285115159E+02  0.00000000000E+00 0. -1.
          1    1    1    2  502    0 -0.77322952214E+02 -0.97176230021E+01  0.24105482275E+03  0.25333909826E+03  0.00000000000E+00 0. -1.
         22    1    3    3    0    0  0.27832807643E+01 -0.83295772586E+01 -0.16723359158E+02  0.18889130489E+02  0.00000000000E+00 0. -1.
         22    1    3    3    0    0  0.60157852767E+02 -0.63076860553E+01  0.22123561163E+03  0.22935551008E+03  0.00000000000E+00 0. -1.
</event>
<event>
 7    1  0.4915160E-006  0.1095824E+03  0.7818608E-02  0.1316879E+00
          2   -1    0    0  502    0  0.00000000000E+00  0.00000000000E+00  0.90547318280E+03  0.90547318280E+03  0.00000000000E+00 0. -1.
          1   -1    0    0  501    0 -0.00000000000E+00 -0.00000000000E+00 -0.11428729671E+04  0.11428729671E+04  0.00000000000E+00 0. -1.
         25    2    1    2    0    0 -0.16600476118E+03  0.36743194770E+01  0.23762322788E+03  0.31569151793E+03  0.12500101881E+03 0.  0.
          2    1    1    2  501    0  0.63153345032E+02 -0.15721106341E+02 -0.10986059060E+04  0.11005318872E+04  0.00000000000E+00 0. -1.
          1    1    1    2  502    0  0.10285141615E+03  0.12046786864E+02  0.62358289384E+03  0.63212274470E+03  0.00000000000E+00 0. -1.
         22    1    3    3    0    0  0.12378688935E+01  0.30536352389E+02  0.74523038078E+02  0.80546162795E+02  0.00000000000E+00 0.  1.
         22    1    3    3    0    0 -0.16724263008E+03 -0.26862032912E+02  0.16310018980E+03  0.23514535513E+03  0.00000000000E+00 0.  1.
</event>
<event>
 7    1  0.4915160E-006  0.1585130E+03  0.7818608E-02  0.1286922E+00
          2   -1    0    0  502    0  0.00000000000E+00  0.00000000000E+00  0.14379878420E+04  0.14379878420E+04  0.00000000000E+00 0. -1.
          1   -1    0    0  501    0 -0.00000000000E+00 -0.00000000000E+00 -0.35704131982E+03  0.35704131982E+03  0.00000000000E+00 0. -1.
         25    2    1    2    0    0 -0.96952895474E+02  0.44346656087E+02 -0.12945137735E+03  0.20916002280E+03  0.12499506468E+03 0.  0.
          2    1    1    2  501    0 -0.32637913667E+02  0.49453687165E+02 -0.17835118005E+03  0.18793627645E+03  0.00000000000E+00 0. -1.
          1    1    1    2  502    0  0.12959080914E+03 -0.93800343252E+02  0.13887490796E+04  0.13979328625E+04  0.00000000000E+00 0. -1.
         22    1    3    3    0    0 -0.37024567542E+02  0.52395329601E+02 -0.13395493734E+03  0.14852614047E+03  0.00000000000E+00 0. -1.
         22    1    3    3    0    0 -0.59928327932E+02 -0.80486735144E+01  0.45035599873E+01  0.60633882332E+02  0.00000000000E+00 0. -1.
</event>
<event>
 7    1  0.4915160E-006  0.3008932E+03  0.7818608E-02  0.1273760E+00
          2   -1    0    0  502    0  0.00000000000E+00  0.00000000000E+00  0.15191559887E+04  0.15191559887E+04  0.00000000000E+00 0. -1.
          1   -1    0    0  501    0 -0.00000000000E+00 -0.00000000000E+00 -0.89899777696E+03  0.89899777696E+03  0.00000000000E+00 0. -1.
         25    2    1    2    0    0 -0.27211322365E+03 -0.12286924896E+02 -0.21513692162E+02  0.30047536723E+03  0.12500412935E+03 0.  0.
          2    1    1    2  501    0  0.30731926493E+03  0.88077526750E+01 -0.70574124710E+03  0.76980089306E+03  0.00000000000E+00 0. -1.
          1    1    1    2  502    0 -0.35206041280E+02  0.34791722212E+01  0.13474131510E+04  0.13478775054E+04  0.00000000000E+00 0. -1.
         22    1    3    3    0    0 -0.17100022490E+03 -0.63092112733E+02  0.11406784969E+02  0.18262476926E+03  0.00000000000E+00 0. -1.
         22    1    3    3    0    0 -0.10111299874E+03  0.50805187837E+02 -0.32920477131E+02  0.11785059796E+03  0.00000000000E+00 0. -1.
</event>
<event>
 7    1  0.4915160E-006  0.3530945E+03  0.7818608E-02  0.1173753E+00
          2   -1    0    0  502    0  0.00000000000E+00  0.00000000000E+00  0.10464571352E+04  0.10464571352E+04  0.00000000000E+00 0. -1.
          1   -1    0    0  501    0 -0.00000000000E+00 -0.00000000000E+00 -0.58233660236E+03  0.58233660236E+03  0.00000000000E+00 0. -1.
         25    2    1    2    0    0 -0.69315335523E+02  0.34709834987E+03 -0.65341979050E+02  0.38102067253E+03  0.12500119379E+03 0.  0.
          2    1    1    2  501    0  0.85452023625E+02  0.69198164051E+01 -0.31791695474E+03  0.32927362833E+03  0.00000000000E+00 0. -1.
          1    1    1    2  502    0 -0.16136688102E+02 -0.35401816627E+03  0.84737946663E+03  0.91849943670E+03  0.00000000000E+00 0. -1.
         22    1    3    3    0    0 -0.11160243635E+02 -0.87429433456E+01  0.17001672498E+01  0.14278678686E+02  0.00000000000E+00 0.  1.
         22    1    3    3    0    0 -0.58155091888E+02  0.35584129322E+03 -0.67042146300E+02  0.36674199385E+03  0.00000000000E+00 0.  1.
</event>
<event>
 7    1  0.4915160E-006  0.8038896E+02  0.7818608E-02  0.1366331E+00
          2   -1    0    0  502    0  0.00000000000E+00  0.00000000000E+00  0.12810323087E+03  0.12810323087E+03  0.00000000000E+00 0. -1.
          1   -1    0    0  501    0 -0.00000000000E+00 -0.00000000000E+00 -0.40005939485E+03  0.40005939485E+03  0.00000000000E+00 0. -1.
         25    2    1    2    0    0  0.65983830036E+02 -0.79300464527E+02 -0.36755525875E+02  0.16618647430E+03  0.12499818421E+03 0.  0.
          2    1    1    2  501    0  0.88487732143E+01  0.57174573120E+02 -0.27029162995E+03  0.27641417804E+03  0.00000000000E+00 0. -1.
          1    1    1    2  502    0 -0.74832603250E+02  0.22125891406E+02  0.35090991848E+02  0.85561973379E+02  0.00000000000E+00 0. -1.
         22    1    3    3    0    0  0.69972440733E+02 -0.79914294529E+02  0.21012848225E+02  0.10827731398E+03  0.00000000000E+00 0.  1.
         22    1    3    3    0    0 -0.39886106966E+01  0.61383000278E+00 -0.57768374100E+02  0.57909160318E+02  0.00000000000E+00 0.  1.
</event>
<event>
 7    1  0.4915160E-006  0.2625552E+03  0.7818608E-02  0.1176568E+00
          2   -1    0    0  502    0  0.00000000000E+00  0.00000000000E+00  0.13621425101E+04  0.13621425101E+04  0.00000000000E+00 0. -1.
          1   -1    0    0  501    0 -0.00000000000E+00 -0.00000000000E+00 -0.73068021603E+03  0.73068021603E+03  0.00000000000E+00 0. -1.
         25    2    1    2    0    0 -0.22528297416E+03 -0.13143348836E+03 -0.12111371513E+02  0.28947298612E+03  0.12498297510E+03 0.  0.
          2    1    1    2  501    0  0.15465070235E+03  0.21793328190E+03 -0.54634731901E+03  0.60819992444E+03  0.00000000000E+00 0. -1.
          1    1    1    2  502    0  0.70632271810E+02 -0.86499793534E+02  0.11899209845E+04  0.11951498155E+04  0.00000000000E+00 0. -1.
         22    1    3    3    0    0 -0.10979534479E+03 -0.70698631264E+02  0.56224436736E+02  0.14217771093E+03  0.00000000000E+00 0.  1.
         22    1    3    3    0    0 -0.11548762937E+03 -0.60734857099E+02 -0.68335808249E+02  0.14729527519E+03  0.00000000000E+00 0.  1.
</event>
<event>
 7    1  0.4915160E-006  0.4222141E+02  0.7818608E-02  0.1562037E+00
          2   -1    0    0  502    0  0.00000000000E+00  0.00000000000E+00  0.89296263126E+03  0.89296263126E+03  0.00000000000E+00 0. -1.
          1   -1    0    0  501    0 -0.00000000000E+00 -0.00000000000E+00 -0.14293174484E+03  0.14293174484E+03  0.00000000000E+00 0. -1.
         25    2    1    2    0    0  0.12497698748E+02 -0.12577534776E+02  0.15167643252E+02  0.12716944190E+03  0.12501049035E+03 0.  0.
          2    1    1    2  501    0  0.48722242130E+01 -0.26181431968E+02 -0.84328121210E+02  0.88433240218E+02  0.00000000000E+00 0. -1.
          1    1    1    2  502    0 -0.17369922961E+02  0.38758966745E+02  0.81919136438E+03  0.82029169397E+03  0.00000000000E+00 0. -1.
         22    1    3    3    0    0 -0.30930611373E+02  0.29742117971E+02  0.42733781361E+02  0.60559659599E+02  0.00000000000E+00 0.  1.
         22    1    3    3    0    0  0.43428310121E+02 -0.42319652747E+02 -0.27566138108E+02  0.66609782306E+02  0.00000000000E+00 0.  1.
</event>
<event>
 7    1  0.4915160E-006  0.1561732E+03  0.7818608E-02  0.1366354E+00
          2   -1    0    0  502    0  0.00000000000E+00  0.00000000000E+00  0.16638716518E+03  0.16638716518E+03  0.00000000000E+00 0. -1.
          1   -1    0    0  501    0 -0.00000000000E+00 -0.00000000000E+00 -0.51510330490E+03  0.51510330490E+03  0.00000000000E+00 0. -1.
         25    2    1    2    0    0  0.54926106873E+02 -0.13582544823E+03 -0.11864395210E+03  0.22620631404E+03  0.12500991777E+03 0.  0.
          2    1    1    2  501    0 -0.84700920710E+02  0.13590544917E+03 -0.32147562890E+03  0.35915333364E+03  0.00000000000E+00 0. -1.
          1    1    1    2  502    0  0.29774813838E+02 -0.80000944637E-01  0.91403441274E+02  0.96130822403E+02  0.00000000000E+00 0. -1.
         22    1    3    3    0    0  0.41961007546E+01 -0.21394282633E+02 -0.96697672845E+02  0.99124984361E+02  0.00000000000E+00 0.  1.
         22    1    3    3    0    0  0.50730006118E+02 -0.11443116560E+03 -0.21946279251E+02  0.12708132968E+03  0.00000000000E+00 0.  1.
</event>
<event>
 7    1  0.4915160E-006  0.6497133E+02  0.7818608E-02  0.1459829E+00
          2   -1    0    0  502    0  0.00000000000E+00  0.00000000000E+00  0.49587062804E+03  0.49587062804E+03  0.00000000000E+00 0. -1.
          1   -1    0    0  501    0 -0.00000000000E+00 -0.00000000000E+00 -0.74378501076E+02  0.74378501076E+02  0.00000000000E+00 0. -1.
         25    2    1    2    0    0 -0.60550726866E+02  0.68612706659E+02  0.40931995939E+02  0.16023426277E+03  0.12500198652E+03 0.  0.
          2    1    1    2  501    0  0.32776859702E+02 -0.11072549964E+02  0.13024523493E+02  0.36967040818E+02  0.00000000000E+00 0. -1.
          1    1    1    2  502    0  0.27773867164E+02 -0.57540156695E+02  0.36753560753E+03  0.37304782553E+03  0.00000000000E+00 0. -1.
         22    1    3    3    0    0 -0.66186804462E+01 -0.36007362276E+02  0.37712398144E+01  0.36804338313E+02  0.00000000000E+00 0.  1.
         22    1    3    3    0    0 -0.53932046420E+02  0.10462006893E+03  0.37160756125E+02  0.12342992445E+03  0.00000000000E+00 0.  1.
</event>
<event>
 7    1  0.4915160E-006  0.4840769E+02  0.7818608E-02  0.1531669E+00
          2   -1    0    0  502    0  0.00000000000E+00  0.00000000000E+00  0.23305851023E+04  0.23305851023E+04  0.00000000000E+00 0. -1.
          1   -1    0    0  501    0 -0.00000000000E+00 -0.00000000000E+00 -0.13948332341E+02  0.13948332341E+02  0.00000000000E+00 0. -1.
         25    2    1    2    0    0  0.51001882743E+02 -0.26202316754E+02  0.57437464790E+03  0.59060940365E+03  0.12500191232E+03 0.  0.
          2    1    1    2  501    0 -0.24440804975E+02 -0.14174873659E+02  0.30863002088E+02  0.41842620484E+02  0.00000000000E+00 0. -1.
          1    1    1    2  502    0 -0.26561077767E+02  0.40377190413E+02  0.17113991200E+04  0.17120814105E+04  0.00000000000E+00 0. -1.
         22    1    3    3    0    0  0.89047646342E+02  0.10543319948E+01  0.33069085882E+03  0.34247195365E+03  0.00000000000E+00 0. -1.
         22    1    3    3    0    0 -0.38045763600E+02 -0.27256648749E+02  0.24368378908E+03  0.24813745000E+03  0.00000000000E+00 0. -1.
</event>
<event>
 7    1  0.4915160E-006  0.1832738E+03  0.7818608E-02  0.1231081E+00
          2   -1    0    0  502    0  0.00000000000E+00  0.00000000000E+00  0.49701092125E+03  0.49701092125E+03  0.00000000000E+00 0. -1.
          1   -1    0    0  501    0 -0.00000000000E+00 -0.00000000000E+00 -0.29484321258E+04  0.29484321258E+04  0.00000000000E+00 0. -1.
         25    2    1    2    0    0 -0.47912895091E+02  0.13082546940E+03 -0.50451706054E+03  0.53811996431E+03  0.12499873060E+03 0.  0.
          2    1    1    2  501    0 -0.12805569604E+02 -0.19565107297E+03 -0.24190057508E+04  0.24269388429E+04  0.00000000000E+00 0. -1.
          1    1    1    2  502    0  0.60718464695E+02  0.64825603567E+02  0.47210160673E+03  0.48038423986E+03  0.00000000000E+00 0. -1.
         22    1    3    3    0    0  0.15633276116E+02  0.55119142374E+02 -0.60856242677E+02  0.83582303456E+02  0.00000000000E+00 0.  1.
         22    1    3    3    0    0 -0.63546171207E+02  0.75706327025E+02 -0.44366081787E+03  0.45453766086E+03  0.00000000000E+00 0.  1.
</event>
<event>
 7    1  0.4915160E-006  0.6637210E+02  0.7818608E-02  0.1377005E+00
          2   -1    0    0  502    0  0.00000000000E+00  0.00000000000E+00  0.42731506010E+04  0.42731506010E+04  0.00000000000E+00 0. -1.
          1   -1    0    0  501    0 -0.00000000000E+00 -0.00000000000E+00 -0.90592239552E+01  0.90592239552E+01  0.00000000000E+00 0. -1.
         25    2    1    2    0    0  0.39821006809E+02 -0.75357705569E+01  0.11065279156E+04  0.11143032362E+04  0.12500069526E+03 0.  0.
          2    1    1    2  501    0 -0.31651030361E+01  0.66296593715E+02  0.22648381762E+03  0.23600884700E+03  0.00000000000E+00 0. -1.
          1    1    1    2  502    0 -0.36655903773E+02 -0.58760823158E+02  0.29310796438E+04  0.29318977417E+04  0.00000000000E+00 0. -1.
         22    1    3    3    0    0  0.68586551279E+02 -0.17844578759E+02  0.34711682364E+03  0.35427762173E+03  0.00000000000E+00 0.  1.
         22    1    3    3    0    0 -0.28765544469E+02  0.10308808202E+02  0.75941109200E+03  0.76002561452E+03  0.00000000000E+00 0.  1.
</event>
<event>
 7    1  0.4915160E-006  0.1160571E+03  0.7818608E-02  0.1341805E+00
          2   -1    0    0  502    0  0.00000000000E+00  0.00000000000E+00  0.68187494281E+03  0.68187494281E+03  0.00000000000E+00 0. -1.
          1   -1    0    0  501    0 -0.00000000000E+00 -0.00000000000E+00 -0.28758100894E+03  0.28758100894E+03  0.00000000000E+00 0. -1.
         25    2    1    2    0    0  0.20197321263E+02  0.13669429976E+03  0.96989632276E+02  0.21005687537E+03  0.12499455487E+03 0.  0.
          2    1    1    2  501    0  0.33883240655E+02 -0.35864472128E+02 -0.22211408312E+03  0.22752802086E+03  0.00000000000E+00 0. -1.
          1    1    1    2  502    0 -0.54080561917E+02 -0.10082982763E+03  0.51941838471E+03  0.53187105552E+03  0.00000000000E+00 0. -1.
         22    1    3    3    0    0  0.58950957269E+02  0.97238086188E+02  0.10426203200E+03  0.15427583118E+03  0.00000000000E+00 0. -1.
         22    1    3    3    0    0 -0.38753636007E+02  0.39456213573E+02 -0.72723997247E+01  0.55781044191E+02  0.00000000000E+00 0. -1.
</event>
<event>
 7    1  0.4915160E-006  0.6015837E+02  0.7818608E-02  0.1464723E+00
          2   -1    0    0  502    0  0.00000000000E+00  0.00000000000E+00  0.23129339787E+03  0.23129339787E+03  0.00000000000E+00 0. -1.
          1   -1    0    0  501    0 -0.00000000000E+00 -0.00000000000E+00 -0.10663707466E+03  0.10663707466E+03  0.00000000000E+00 0. -1.
         25    2    1    2    0    0 -0.61848817732E+02  0.49774167037E+02  0.12507167743E+03  0.19383092581E+03  0.12499903739E+03 0.  0.
          2    1    1    2  501    0  0.25942821521E+02 -0.53143356515E+02 -0.53618097461E+02  0.79825727090E+02  0.00000000000E+00 0. -1.
          1    1    1    2  502    0  0.35905996211E+02  0.33691894776E+01  0.53202743247E+02  0.64273819636E+02  0.00000000000E+00 0. -1.
         22    1    3    3    0    0 -0.91137120177E+01 -0.12195094513E+02  0.11003425850E+03  0.11108248341E+03  0.00000000000E+00 0. -1.
         22    1    3    3    0    0 -0.52735105714E+02  0.61969261551E+02  0.15037418925E+02  0.82748442401E+02  0.00000000000E+00 0. -1.
</event>
<event>
 7    1  0.4915160E-006  0.1333388E+03  0.7818608E-02  0.1255356E+00
          2   -1    0    0  502    0  0.00000000000E+00  0.00000000000E+00  0.14234959011E+04  0.14234959011E+04  0.00000000000E+00 0. -1.
          1   -1    0    0  501    0 -0.00000000000E+00 -0.00000000000E+00 -0.55086393007E+03  0.55086393007E+03  0.00000000000E+00 0. -1.
         25    2    1    2    0    0 -0.33603197984E+02  0.13853697600E+03  0.45873105413E+03  0.49636861603E+03  0.12500381722E+03 0.  0.
          2    1    1    2  501    0  0.94393627350E+02 -0.14711367930E+02 -0.52266357608E+03  0.53132268443E+03  0.00000000000E+00 0. -1.
          1    1    1    2  502    0 -0.60790429367E+02 -0.12382560807E+03  0.93656449301E+03  0.94666853073E+03  0.00000000000E+00 0. -1.
         22    1    3    3    0    0 -0.51525518414E+02  0.90206454423E+02  0.41787439092E+03  0.43059388065E+03  0.00000000000E+00 0. -1.
         22    1    3    3    0    0  0.17922320430E+02  0.48330521572E+02  0.40856663210E+02  0.65774735375E+02  0.00000000000E+00 0. -1.
</event>
<event>
 7    1  0.4915160E-006  0.2384021E+02  0.7818608E-02  0.1681831E+00
          2   -1    0    0  502    0  0.00000000000E+00  0.00000000000E+00  0.14549068687E+03  0.14549068687E+03  0.00000000000E+00 0. -1.
          1   -1    0    0  501    0 -0.00000000000E+00 -0.00000000000E+00 -0.33482152126E+03  0.33482152126E+03  0.00000000000E+00 0. -1.
         25    2    1    2    0    0 -0.16991453691E+02 -0.30498392002E+02  0.16688994418E+02  0.13085385933E+03  0.12500139421E+03 0.  0.
          2    1    1    2  501    0  0.22517748906E+02  0.77817260782E+01 -0.27530555273E+03  0.27633449231E+03  0.00000000000E+00 0. -1.
          1    1    1    2  502    0 -0.55262952148E+01  0.22716665924E+02  0.69285723914E+02  0.73123856488E+02  0.00000000000E+00 0. -1.
         22    1    3    3    0    0 -0.20766292666E+02  0.19853400621E+02 -0.43599324825E+02  0.52213959364E+02  0.00000000000E+00 0.  1.
         22    1    3    3    0    0  0.37748389752E+01 -0.50351792623E+02  0.60288319243E+02  0.78639899967E+02  0.00000000000E+00 0.  1.
</event>
<event>
 7    1  0.4915160E-006  0.2664682E+03  0.7818608E-02  0.1291923E+00
          2   -1    0    0  502    0  0.00000000000E+00  0.00000000000E+00  0.87537822908E+03  0.87537822908E+03  0.00000000000E+00 0. -1.
          1   -1    0    0  501    0 -0.00000000000E+00 -0.00000000000E+00 -0.86913628372E+03  0.86913628372E+03  0.00000000000E+00 0. -1.
         25    2    1    2    0    0 -0.24942212083E+03 -0.49942504267E+02 -0.86003365984E+02  0.29618654184E+03  0.12499696203E+03 0.  0.
          2    1    1    2  501    0 -0.17857535796E+02  0.28501357834E+02 -0.65426140693E+03  0.65512533731E+03  0.00000000000E+00 0. -1.
          1    1    1    2  502    0  0.26727965662E+03  0.21441146433E+02  0.74650671827E+03  0.79320263365E+03  0.00000000000E+00 0. -1.
         22    1    3    3    0    0 -0.10064736447E+03 -0.57058778077E+02  0.14358915194E+02  0.11658376635E+03  0.00000000000E+00 0. -1.
         22    1    3    3    0    0 -0.14877475636E+03  0.71162738098E+01 -0.10036228118E+03  0.17960277549E+03  0.00000000000E+00 0. -1.
</event>
<event>
 7    1  0.4915160E-006  0.1362992E+03  0.7818608E-02  0.1426308E+00
          2   -1    0    0  502    0  0.00000000000E+00  0.00000000000E+00  0.23600682155E+04  0.23600682155E+04  0.00000000000E+00 0. -1.
          1   -1    0    0  501    0 -0.00000000000E+00 -0.00000000000E+00 -0.23778865330E+03  0.23778865330E+03  0.00000000000E+00 0. -1.
         25    2    1    2    0    0 -0.14470954630E+03  0.50409037021E+02  0.71615827615E+02  0.21032724669E+03  0.12500720033E+03 0.  0.
          2    1    1    2  501    0  0.20618533145E+02  0.47719778689E+01 -0.16568139016E+03  0.16702759870E+03  0.00000000000E+00 0. -1.
          1    1    1    2  502    0  0.12409101315E+03 -0.55181014890E+02  0.22163451247E+04  0.22205020234E+04  0.00000000000E+00 0. -1.
         22    1    3    3    0    0 -0.99032660116E+02  0.88249700660E+02  0.72169103102E+02  0.15100945957E+03  0.00000000000E+00 0.  1.
         22    1    3    3    0    0 -0.45676886180E+02 -0.37840663639E+02 -0.55327548682E+00  0.59317787126E+02  0.00000000000E+00 0.  1.
</event>
<event>
 7    1  0.4915160E-006  0.1475777E+03  0.7818608E-02  0.1329369E+00
          2   -1    0    0  502    0  0.00000000000E+00  0.00000000000E+00  0.57230459416E+03  0.57230459416E+03  0.00000000000E+00 0. -1.
          1   -1    0    0  501    0 -0.00000000000E+00 -0.00000000000E+00 -0.46963552352E+03  0.46963552352E+03  0.00000000000E+00 0. -1.
         25    2    1    2    0    0 -0.11379171189E+03  0.12542475996E+03 -0.51735421400E+02  0.21675223008E+03  0.12500020524E+03 0.  0.
          2    1    1    2  501    0 -0.67010344016E+01 -0.42723652882E+02 -0.32301704025E+03  0.32589909891E+03  0.00000000000E+00 0. -1.
          1    1    1    2  502    0  0.12049274630E+03 -0.82701107083E+02  0.47742153229E+03  0.49928878870E+03  0.00000000000E+00 0. -1.
         22    1    3    3    0    0  0.24093741980E+02  0.15017225379E+01  0.49491646111E+00  0.24145569272E+02  0.00000000000E+00 0. -1.
         22    1    3    3    0    0 -0.13788545387E+03  0.12392303743E+03 -0.52230337861E+02  0.19260666081E+03  0.00000000000E+00 0. -1.
</event>
<event>
 7    1  0.4915160E-006  0.7803076E+02  0.7818608E-02  0.1391817E+00
          2   -1    0    0  502    0  0.00000000000E+00  0.00000000000E+00  0.25724899179E+03  0.25724899179E+03  0.00000000000E+00 0. -1.
          1   -1    0    0  501    0 -0.00000000000E+00 -0.00000000000E+00 -0.10858787657E+04  0.10858787657E+04  0.00000000000E+00 0. -1.
         25    2    1    2    0    0 -0.77077583253E+02  0.89577117814E+02  0.14949576014E+03  0.22789934684E+03  0.12499646440E+03 0.  0.
          2    1    1    2  501    0  0.64974853452E+02 -0.42710974445E+02 -0.10364909407E+04  0.10394034005E+04  0.00000000000E+00 0. -1.
          1    1    1    2  502    0  0.12102729800E+02 -0.46866143369E+02  0.58365406651E+02  0.75825010098E+02  0.00000000000E+00 0. -1.
         22    1    3    3    0    0 -0.10422263526E+01  0.51936656455E+02 -0.44345978388E+01  0.52136054487E+02  0.00000000000E+00 0.  1.
         22    1    3    3    0    0 -0.76035356900E+02  0.37640461359E+02  0.15393035798E+03  0.17576329235E+03  0.00000000000E+00 0.  1.
</event>
<event>
 7    1  0.4915160E-006  0.2029417E+03  0.7818608E-02  0.1338905E+00
          2   -1    0    0  502    0  0.00000000000E+00  0.00000000000E+00  0.15497611160E+04  0.15497611160E+04  0.00000000000E+00 0. -1.
          1   -1    0    0  501    0 -0.00000000000E+00 -0.00000000000E+00 -0.68256125078E+02  0.68256125078E+02  0.00000000000E+00 0. -1.
         25    2    1    2    0    0 -0.19964426707E+03 -0.33646608521E+02  0.75612958119E+03  0.79268208764E+03  0.12499208329E+03 0.  0.
          2    1    1    2  501    0 -0.44655277354E+01  0.28586371106E+02 -0.30695109411E+02  0.42181883465E+02  0.00000000000E+00 0. -1.
          1    1    1    2  502    0  0.20410979481E+03  0.50602374151E+01  0.75607051912E+03  0.78315326994E+03  0.00000000000E+00 0. -1.
         22    1    3    3    0    0 -0.50221103862E+02 -0.32490106801E+02  0.42763604050E+03  0.43179896879E+03  0.00000000000E+00 0.  1.
         22    1    3    3    0    0 -0.14942316321E+03 -0.11565017202E+01  0.32849354068E+03  0.36088311885E+03  0.00000000000E+00 0.  1.
</event>
<event>
 7    1  0.4915160E-006  0.1398073E+03  0.7818608E-02  0.1307825E+00
          2   -1    0    0  502    0  0.00000000000E+00  0.00000000000E+00  0.17152651785E+03  0.17152651785E+03  0.00000000000E+00 0. -1.
          1   -1    0    0  501    0 -0.00000000000E+00 -0.00000000000E+00 -0.24283901108E+04  0.24283901108E+04  0.00000000000E+00 0. -1.
         25    2    1    2    0    0 -0.64213225195E+02  0.59045042194E+02 -0.54302695664E+02  0.16181343763E+03  0.12500060217E+03 0.  0.
          2    1    1    2  501    0  0.11147753731E+03 -0.87872414300E+02 -0.23115262715E+04  0.23158805035E+04  0.00000000000E+00 0. -1.
          1    1    1    2  502    0 -0.47264312113E+02  0.28827372107E+02  0.10896537420E+03  0.12222268757E+03  0.00000000000E+00 0. -1.
         22    1    3    3    0    0  0.22355071403E+02  0.42126235587E+02 -0.56045839950E+02  0.73590115626E+02  0.00000000000E+00 0. -1.
         22    1    3    3    0    0 -0.86568296598E+02  0.16918806607E+02  0.17431442866E+01  0.88223322001E+02  0.00000000000E+00 0. -1.
</event>
<event>
 7    1  0.4915160E-006  0.7915167E+02  0.7818608E-02  0.1455718E+00
          2   -1    0    0  502    0  0.00000000000E+00  0.00000000000E+00  0.56402875950E+03  0.56402875950E+03  0.00000000000E+00 0. -1.
          1   -1    0    0  501    0 -0.00000000000E+00 -0.00000000000E+00 -0.12137722057E+04  0.12137722057E+04  0.00000000000E+00 0. -1.
         25    2    1    2    0    0 -0.50290419771E+02  0.11748474694E+02 -0.15811559787E+03  0.20806500840E+03  0.12499340963E+03 0.  0.
          2    1    1    2  501    0  0.78940041480E+02 -0.17704193332E+02 -0.10286954642E+04  0.10318717589E+04  0.00000000000E+00 0. -1.
          1    1    1    2  502    0 -0.28649621709E+02  0.59557186378E+01  0.53706761589E+03  0.53786419796E+03  0.00000000000E+00 0. -1.
         22    1    3    3    0    0  0.41342057361E+02  0.35205236827E+01 -0.65386392169E+02  0.77439912673E+02  0.00000000000E+00 0. -1.
         22    1    3    3    0    0 -0.91632477132E+02  0.82279510112E+01 -0.92729205705E+02  0.13062509573E+03  0.00000000000E+00 0. -1.
</event>
<event>
 7    1  0.4915160E-006  0.1723150E+03  0.7818608E-02  0.1384436E+00
          2   -1    0    0  502    0  0.00000000000E+00  0.00000000000E+00  0.24197864618E+03  0.24197864618E+03  0.00000000000E+00 0. -1.
          1   -1    0    0  501    0 -0.00000000000E+00 -0.00000000000E+00 -0.37550946935E+03  0.37550946935E+03  0.00000000000E+00 0. -1.
         25    2    1    2    0    0 -0.16016137388E+03 -0.54577617303E+01 -0.79129895880E+02  0.21810024050E+03  0.12499888654E+03 0.  0.
          2    1    1    2  501    0 -0.14410676378E+02 -0.18260696363E+02 -0.18097068853E+03  0.18245961397E+03  0.00000000000E+00 0. -1.
          1    1    1    2  502    0  0.17457205026E+03  0.23718458093E+02  0.12656976124E+03  0.21692826106E+03  0.00000000000E+00 0. -1.
         22    1    3    3    0    0 -0.14259809587E+03  0.37304205825E+02 -0.29582793178E+02  0.15033616454E+03  0.00000000000E+00 0.  1.
         22    1    3    3    0    0 -0.17563278014E+02 -0.42761967555E+02 -0.49547102701E+02  0.67764075954E+02  0.00000000000E+00 0.  1.
</event>
<event>
 7    1  0.4915160E-006  0.5073950E+02  0.7818608E-02  0.1481715E+00
          2   -1    0    0  502    0  0.00000000000E+00  0.00000000000E+00  0.66190673661E+03  0.66190673661E+03  0.00000000000E+00 0. -1.
          1   -1    0    0  501    0 -0.00000000000E+00 -0.00000000000E+00 -0.15683587099E+03  0.15683587099E+03  0.00000000000E+00 0. -1.
         25    2    1    2    0    0 -0.42031547466E+02 -0.68829836640E+02  0.12908166917E+03  0.19695493328E+03  0.12499988413E+03 0.  0.
          2    1    1    2  501    0  0.97666954837E+01  0.48985797420E+02 -0.11706733645E+03  0.12727826976E+03  0.00000000000E+00 0. -1.
          1    1    1    2  502    0  0.32264851982E+02  0.19844039220E+02  0.49305653290E+03  0.49450940456E+03  0.00000000000E+00 0. -1.
         22    1    3    3    0    0  0.21813140136E+02 -0.30817149864E+02 -0.10185316550E+02  0.39105632351E+02  0.00000000000E+00 0.  1.
         22    1    3    3    0    0 -0.63844687602E+02 -0.38012686776E+02  0.13926698572E+03  0.15784930093E+03  0.00000000000E+00 0.  1.
</event>
<event>
 7    1  0.4915160E-006  0.1631692E+03  0.7818608E-02  0.1227574E+00
          2   -1    0    0  502    0  0.00000000000E+00  0.00000000000E+00  0.19756021186E+03  0.19756021186E+03  0.00000000000E+00 0. -1.
          1   -1    0    0  501    0 -0.00000000000E+00 -0.00000000000E+00 -0.21281647535E+04  0.21281647535E+04  0.00000000000E+00 0. -1.
         25    2    1    2    0    0 -0.62896259110E+02  0.25173697414E+03 -0.70440914009E+03  0.76101649350E+03  0.12500569262E+03 0.  0.
          2    1    1    2  501    0  0.41107480462E+02 -0.94927788907E+02 -0.13560254143E+04  0.13599654533E+04  0.00000000000E+00 0. -1.
          1    1    1    2  502    0  0.21788778649E+02 -0.15680918523E+03  0.12983001271E+03  0.20474301856E+03  0.00000000000E+00 0. -1.
         22    1    3    3    0    0 -0.14033629725E+02  0.33452642712E+02 -0.26973496561E+03  0.27216350552E+03  0.00000000000E+00 0. -1.
         22    1    3    3    0    0 -0.48862629385E+02  0.21828433143E+03 -0.43467417448E+03  0.48885298798E+03  0.00000000000E+00 0. -1.
</event>
<event>
 7    1  0.4915160E-006  0.9234318E+02  0.7818608E-02  0.1358216E+00
          2   -1    0    0  502    0  0.00000000000E+00  0.00000000000E+00  0.15678598571E+03  0.15678598571E+03  0.00000000000E+00 0. -1.
          1   -1    0    0  501    0 -0.00000000000E+00 -0.00000000000E+00 -0.36897215545E+03  0.36897215545E+03  0.00000000000E+00 0. -1.
         25    2    1    2    0    0 -0.12514372022E+03 -0.56060102782E+02  0.17093214644E+02  0.18633566633E+03  0.12500046689E+03 0.  0.
          2    1    1    2  501    0  0.71283210391E+02  0.53802218327E+02 -0.26169822643E+03  0.27651751572E+03  0.00000000000E+00 0. -1.
          1    1    1    2  502    0  0.53860509831E+02  0.22578844549E+01  0.32418842054E+02  0.62904959117E+02  0.00000000000E+00 0. -1.
         22    1    3    3    0    0 -0.73700227653E+02  0.30488200079E+02 -0.13965960999E+02  0.80970994602E+02  0.00000000000E+00 0.  1.
         22    1    3    3    0    0 -0.51443492568E+02 -0.86548302861E+02  0.31059175642E+02  0.10536467172E+03  0.00000000000E+00 0.  1.
</event>
<event>
 7    1  0.4915160E-006  0.1061128E+03  0.7818608E-02  0.1276504E+00
          2   -1    0    0  502    0  0.00000000000E+00  0.00000000000E+00  0.14473815654E+04  0.14473815654E+04  0.00000000000E+00 0. -1.
          1   -1    0    0  501    0 -0.00000000000E+00 -0.00000000000E+00 -0.11677306790E+03  0.11677306790E+03  0.00000000000E+00 0. -1.
         25    2    1    2    0    0 -0.15842730026E+03 -0.15090208934E+02  0.38334179079E+03  0.43347678994E+03  0.12499709989E+03 0.  0.
          2    1    1    2  501    0  0.89254539500E+02 -0.53921175635E+02 -0.58910237712E+02  0.11976761712E+03  0.00000000000E+00 0. -1.
          1    1    1    2  502    0  0.69172760758E+02  0.69011384568E+02  0.10061769445E+04  0.10109102263E+04  0.00000000000E+00 0. -1.
         22    1    3    3    0    0 -0.10955439526E+03  0.16300381720E+02  0.34864854867E+03  0.36581918820E+03  0.00000000000E+00 0.  1.
         22    1    3    3    0    0 -0.48872904997E+02 -0.31390590653E+02  0.34693242113E+02  0.67657601737E+02  0.00000000000E+00 0.  1.
</event>
<event>
 7    1  0.4915160E-006  0.1772609E+03  0.7818608E-02  0.1259481E+00
          2   -1    0    0  502    0  0.00000000000E+00  0.00000000000E+00  0.10703184332E+04  0.10703184332E+04  0.00000000000E+00 0. -1.
          1   -1    0    0  501    0 -0.00000000000E+00 -0.00000000000E+00 -0.11918778675E+03  0.11918778675E+03  0.00000000000E+00 0. -1.
         25    2    1    2    0    0 -0.18840351517E+03 -0.13906029110E+03  0.54907473492E+03  0.60986356465E+03  0.12496741118E+03 0.  0.
          2    1    1    2  501    0  0.12344323162E+03  0.11581104141E+03 -0.24626469825E+01  0.16928228902E+03  0.00000000000E+00 0. -1.
          1    1    1    2  502    0  0.64960283553E+02  0.23249249696E+02  0.40451855854E+03  0.41036036633E+03  0.00000000000E+00 0. -1.
         22    1    3    3    0    0 -0.92507006320E+02 -0.86375683022E+02  0.42960866665E+03  0.44786371956E+03  0.00000000000E+00 0.  1.
         22    1    3    3    0    0 -0.95896508854E+02 -0.52684608081E+02  0.11946606827E+03  0.16199984509E+03  0.00000000000E+00 0.  1.
</event>
<event>
 7    1  0.4915160E-006  0.7260424E+02  0.7818608E-02  0.1440232E+00
          2   -1    0    0  502    0  0.00000000000E+00  0.00000000000E+00  0.14756408854E+04  0.14756408854E+04  0.00000000000E+00 0. -1.
          1   -1    0    0  501    0 -0.00000000000E+00 -0.00000000000E+00 -0.64184251841E+03  0.64184251841E+03  0.00000000000E+00 0. -1.
         25    2    1    2    0    0 -0.69091592345E+02  0.54445030637E+02  0.32976891301E+03  0.36346967392E+03  0.12499903353E+03 0.  0.
          2    1    1    2  501    0  0.34668469484E+02  0.87999976261E+01 -0.62333083810E+03  0.62435620960E+03  0.00000000000E+00 0. -1.
          1    1    1    2  502    0  0.34423122861E+02 -0.63245028263E+02  0.11273602921E+04  0.11296575203E+04  0.00000000000E+00 0. -1.
         22    1    3    3    0    0 -0.26690800456E+02 -0.33226893327E+02  0.17884280925E+03  0.18385096054E+03  0.00000000000E+00 0.  1.
         22    1    3    3    0    0 -0.42400791889E+02  0.87671923964E+02  0.15092610376E+03  0.17961871339E+03  0.00000000000E+00 0.  1.
</event>
<event>
 7    1  0.4915160E-006  0.6964200E+02  0.7818608E-02  0.1451495E+00
          2   -1    0    0  502    0  0.00000000000E+00  0.00000000000E+00  0.75996711585E+03  0.75996711585E+03  0.00000000000E+00 0. -1.
          1   -1    0    0  501    0 -0.00000000000E+00 -0.00000000000E+00 -0.38850060127E+03  0.38850060127E+03  0.00000000000E+00 0. -1.
         25    2    1    2    0    0  0.10152940442E+03 -0.70161547160E+01  0.17730579578E+03  0.23963228847E+03  0.12501536733E+03 0.  0.
          2    1    1    2  501    0 -0.34289034682E+02  0.98841927113E+00 -0.35444019204E+03  0.35609628558E+03  0.00000000000E+00 0. -1.
          1    1    1    2  502    0 -0.67240369737E+02  0.60277354449E+01  0.54860091084E+03  0.55273914308E+03  0.00000000000E+00 0. -1.
         22    1    3    3    0    0  0.10539709698E+03  0.86842525005E+01  0.60751924830E+02  0.12196212799E+03  0.00000000000E+00 0. -1.
         22    1    3    3    0    0 -0.38676925607E+01 -0.15700407217E+02  0.11655387095E+03  0.11767016048E+03  0.00000000000E+00 0. -1.
</event>
<event>
 7    1  0.4915160E-006  0.1621451E+03  0.7818608E-02  0.1306118E+00
          2   -1    0    0  502    0  0.00000000000E+00  0.00000000000E+00  0.25459260620E+04  0.25459260620E+04  0.00000000000E+00 0. -1.
          1   -1    0    0  501    0 -0.00000000000E+00 -0.00000000000E+00 -0.26467086741E+03  0.26467086741E+03  0.00000000000E+00 0. -1.
         25    2    1    2    0    0 -0.12948582939E+03  0.14725579400E+03  0.46792406354E+02  0.23720887667E+03  0.12501069154E+03 0.  0.
          2    1    1    2  501    0  0.47784647383E+02 -0.82054836093E+01 -0.16322948928E+03  0.17027791594E+03  0.00000000000E+00 0. -1.
          1    1    1    2  502    0  0.81701182003E+02 -0.13905031039E+03  0.23976922775E+04  0.24031101368E+04  0.00000000000E+00 0. -1.
         22    1    3    3    0    0 -0.94274280418E+02  0.21725679293E+02 -0.51153780539E+01  0.96880401432E+02  0.00000000000E+00 0. -1.
         22    1    3    3    0    0 -0.35211548969E+02  0.12553011471E+03  0.51907784408E+02  0.14032847523E+03  0.00000000000E+00 0. -1.
</event>
<event>
 7    1  0.4915160E-006  0.1742804E+03  0.7818608E-02  0.1306923E+00
          2   -1    0    0  502    0  0.00000000000E+00  0.00000000000E+00  0.20009701063E+04  0.20009701063E+04  0.00000000000E+00 0. -1.
          1   -1    0    0  501    0 -0.00000000000E+00 -0.00000000000E+00 -0.84032326469E+03  0.84032326469E+03  0.00000000000E+00 0. -1.
         25    2    1    2    0    0 -0.13869847043E+03 -0.13813482790E+03  0.20410077887E+02  0.23315588144E+03  0.12500638941E+03 0.  0.
          2    1    1    2  501    0  0.14519121762E+03  0.93830175833E+02 -0.72349834972E+03  0.74386453983E+03  0.00000000000E+00 0. -1.
          1    1    1    2  502    0 -0.64927471905E+01  0.44304652067E+02  0.18637351134E+04  0.18642729497E+04  0.00000000000E+00 0. -1.
         22    1    3    3    0    0 -0.10630536907E+03 -0.34497811618E+02  0.47195803635E+02  0.12131930754E+03  0.00000000000E+00 0.  1.
         22    1    3    3    0    0 -0.32393101350E+02 -0.10363701628E+03 -0.26785725748E+02  0.11183657390E+03  0.00000000000E+00 0.  1.
</event>
<event>
 7    1  0.4915160E-006  0.1332949E+03  0.7818608E-02  0.1279442E+00
          2   -1    0    0  502    0  0.00000000000E+00  0.00000000000E+00  0.10951320115E+04  0.10951320115E+04  0.00000000000E+00 0. -1.
          1   -1    0    0  501    0 -0.00000000000E+00 -0.00000000000E+00 -0.17019561623E+04  0.17019561623E+04  0.00000000000E+00 0. -1.
         25    2    1    2    0    0  0.89431994122E+02  0.14712461542E+03  0.17391602569E+02  0.21347461147E+03  0.12500083147E+03 0.  0.
          2    1    1    2  501    0  0.19989986393E+02 -0.72944043120E+02 -0.15985569449E+04  0.16003451937E+04  0.00000000000E+00 0. -1.
          1    1    1    2  502    0 -0.10942198051E+03 -0.74180572301E+02  0.97434119157E+03  0.98326836861E+03  0.00000000000E+00 0. -1.
         22    1    3    3    0    0  0.33403616455E+00  0.70735393291E+02  0.55683972252E+02  0.90023953534E+02  0.00000000000E+00 0.  1.
         22    1    3    3    0    0  0.89097957957E+02  0.76389222129E+02 -0.38292369683E+02  0.12345065794E+03  0.00000000000E+00 0.  1.
</event>
<event>
 7    1  0.4915160E-006  0.9438731E+02  0.7818608E-02  0.1351032E+00
          2   -1    0    0  502    0  0.00000000000E+00  0.00000000000E+00  0.22828721875E+03  0.22828721875E+03  0.00000000000E+00 0. -1.
          1   -1    0    0  501    0 -0.00000000000E+00 -0.00000000000E+00 -0.58831305880E+03  0.58831305880E+03  0.00000000000E+00 0. -1.
         25    2    1    2    0    0 -0.48451830179E+01 -0.47097374784E+02 -0.13450153662E+03  0.18962532343E+03  0.12500184566E+03 0.  0.
          2    1    1    2  501    0  0.28924802497E+02 -0.48009549689E+02 -0.41225091801E+03  0.41604372422E+03  0.00000000000E+00 0. -1.
          1    1    1    2  502    0 -0.24079619479E+02  0.95106924474E+02  0.18672661459E+03  0.21093122991E+03  0.00000000000E+00 0. -1.
         22    1    3    3    0    0  0.14482022031E+02  0.34798734830E+02 -0.82514025180E+02  0.90715187589E+02  0.00000000000E+00 0.  1.
         22    1    3    3    0    0 -0.19327205049E+02 -0.81896109614E+02 -0.51987511445E+02  0.98910135837E+02  0.00000000000E+00 0.  1.
</event>
<event>
 7    1  0.4915160E-006  0.7363161E+02  0.7818608E-02  0.1418054E+00
          2   -1    0    0  502    0  0.00000000000E+00  0.00000000000E+00  0.10200305334E+04  0.10200305334E+04  0.00000000000E+00 0. -1.
          1   -1    0    0  501    0 -0.00000000000E+00 -0.00000000000E+00 -0.22294792139E+03  0.22294792139E+03  0.00000000000E+00 0. -1.
         25    2    1    2    0    0 -0.48457192709E+02  0.53332873076E+02  0.25002762983E+03  0.28867279293E+03  0.12500268326E+03 0.  0.
          2    1    1    2  501    0 -0.23878683118E+02 -0.34228948717E+02 -0.19959752553E+03  0.20391415997E+03  0.00000000000E+00 0. -1.
          1    1    1    2  502    0  0.72335875827E+02 -0.19103924359E+02  0.74665250768E+03  0.75039150187E+03  0.00000000000E+00 0. -1.
         22    1    3    3    0    0  0.20097305211E+02  0.51740575247E+02  0.41917509800E+02  0.69556210589E+02  0.00000000000E+00 0. -1.
         22    1    3    3    0    0 -0.68554497921E+02  0.15922978289E+01  0.20811012003E+03  0.21911658234E+03  0.00000000000E+00 0. -1.
</event>
<event>
 7    1  0.4915160E-006  0.2575052E+02  0.7818608E-02  0.1663573E+00
          2   -1    0    0  502    0  0.00000000000E+00  0.00000000000E+00  0.17748966988E+03  0.17748966988E+03  0.00000000000E+00 0. -1.
          1   -1    0    0  501    0 -0.00000000000E+00 -0.00000000000E+00 -0.43019885058E+03  0.43019885058E+03  0.00000000000E+00 0. -1.
         25    2    1    2    0    0 -0.44815182956E+02  0.14881462362E+01 -0.52084034348E+02  0.14264400454E+03  0.12499580071E+03 0.  0.
          2    1    1    2  501    0  0.22974238066E+02 -0.11258921109E+02 -0.33125494606E+03  0.33224150585E+03  0.00000000000E+00 0. -1.
          1    1    1    2  502    0  0.21840944891E+02  0.97707748727E+01  0.13062979970E+03  0.13280301008E+03  0.00000000000E+00 0. -1.
         22    1    3    3    0    0 -0.19759895267E+02 -0.90426551831E+01 -0.91901160380E+02  0.94435408364E+02  0.00000000000E+00 0. -1.
         22    1    3    3    0    0 -0.25055287689E+02  0.10530801419E+02  0.39817126032E+02  0.48208596175E+02  0.00000000000E+00 0. -1.
</event>
<event>
 7    1  0.4915160E-006  0.2278220E+03  0.7818608E-02  0.1171635E+00
          2   -1    0    0  502    0  0.00000000000E+00  0.00000000000E+00  0.26070466198E+04  0.26070466198E+04  0.00000000000E+00 0. -1.
          1   -1    0    0  501    0 -0.00000000000E+00 -0.00000000000E+00 -0.97581346251E+03  0.97581346251E+03  0.00000000000E+00 0. -1.
         25    2    1    2    0    0 -0.40812410070E+02  0.31437373825E+03  0.22575575896E+03  0.40876228226E+03  0.12499776230E+03 0.  0.
          2    1    1    2  501    0  0.10897655130E+03 -0.19655664534E+03 -0.86796211727E+03  0.89658721861E+03  0.00000000000E+00 0. -1.
          1    1    1    2  502    0 -0.68164141229E+02 -0.11781709291E+03  0.22734395156E+04  0.22775105815E+04  0.00000000000E+00 0. -1.
         22    1    3    3    0    0 -0.81041194550E+02  0.22535810111E+03  0.13243226752E+03  0.27366449246E+03  0.00000000000E+00 0. -1.
         22    1    3    3    0    0  0.40228784480E+02  0.89015637133E+02  0.93323491443E+02  0.13509778980E+03  0.00000000000E+00 0. -1.
</event>
<event>
 7    1  0.4915160E-006  0.5226673E+02  0.7818608E-02  0.1570691E+00
          2   -1    0    0  502    0  0.00000000000E+00  0.00000000000E+00  0.18558840247E+02  0.18558840247E+02  0.00000000000E+00 0. -1.
          1   -1    0    0  501    0 -0.00000000000E+00 -0.00000000000E+00 -0.76545341858E+03  0.76545341858E+03  0.00000000000E+00 0. -1.
         25    2    1    2    0    0 -0.30625348626E+02  0.44194410150E+02 -0.43545096715E+03  0.45621716524E+03  0.12500199681E+03 0.  0.
          2    1    1    2  501    0 -0.13391827975E+02 -0.15354091188E+02 -0.22954229439E+03  0.23044468769E+03  0.00000000000E+00 0. -1.
          1    1    1    2  502    0  0.44017176601E+02 -0.28840318962E+02 -0.81901316794E+02  0.97350405887E+02  0.00000000000E+00 0. -1.
         22    1    3    3    0    0  0.27016296654E+02 -0.18417952494E+02 -0.25050218560E+03  0.25262708930E+03  0.00000000000E+00 0. -1.
         22    1    3    3    0    0 -0.57641645280E+02  0.62612362644E+02 -0.18494878154E+03  0.20359007594E+03  0.00000000000E+00 0. -1.
</event>
<event>
 7    1  0.4915160E-006  0.9830051E+02  0.7818608E-02  0.1460307E+00
          2   -1    0    0  502    0  0.00000000000E+00  0.00000000000E+00  0.12290634821E+04  0.12290634821E+04  0.00000000000E+00 0. -1.
          1   -1    0    0  501    0 -0.00000000000E+00 -0.00000000000E+00 -0.24470791734E+03  0.24470791734E+03  0.00000000000E+00 0. -1.
         25    2    1    2    0    0  0.10668350576E+03  0.33722667936E+02  0.35934754122E+03  0.39657950089E+03  0.12500422555E+03 0.  0.
          2    1    1    2  501    0 -0.97090527392E+02 -0.13053000063E+02 -0.21531845013E+03  0.23655651816E+03  0.00000000000E+00 0. -1.
          1    1    1    2  502    0 -0.95929783725E+01 -0.20669667873E+02  0.84032647368E+03  0.84063538040E+03  0.00000000000E+00 0. -1.
         22    1    3    3    0    0  0.23040901782E+02 -0.42029814860E+02  0.60832173238E+02  0.77446380115E+02  0.00000000000E+00 0. -1.
         22    1    3    3    0    0  0.83642603983E+02  0.75752482796E+02  0.29851536798E+03  0.31913312077E+03  0.00000000000E+00 0. -1.
</event>
<event>
 7    1  0.4915160E-006  0.6745568E+02  0.7818608E-02  0.1416143E+00
          2   -1    0    0  502    0  0.00000000000E+00  0.00000000000E+00  0.10423149860E+03  0.10423149860E+03  0.00000000000E+00 0. -1.
          1   -1    0    0  501    0 -0.00000000000E+00 -0.00000000000E+00 -0.76013475773E+03  0.76013475773E+03  0.00000000000E+00 0. -1.
         25    2    1    2    0    0  0.69363119375E+02  0.37609751112E+02 -0.30697478858E+03  0.34071154901E+03  0.12500041238E+03 0.  0.
          2    1    1    2  501    0 -0.23377902036E+01 -0.46174100821E+02 -0.42177128047E+03  0.42429768545E+03  0.00000000000E+00 0. -1.
          1    1    1    2  502    0 -0.67025329172E+02  0.85643497093E+01  0.72842809925E+02  0.99357021867E+02  0.00000000000E+00 0. -1.
         22    1    3    3    0    0  0.90286027077E+02 -0.77136785513E+01 -0.24444147608E+03  0.26069657219E+03  0.00000000000E+00 0.  1.
         22    1    3    3    0    0 -0.20922907701E+02  0.45323429663E+02 -0.62533312503E+02  0.80014976821E+02  0.00000000000E+00 0.  1.
</event>
<event>
 7    1  0.4915160E-006  0.7994852E+02  0.7818608E-02  0.1382906E+00
          2   -1    0    0  502    0  0.00000000000E+00  0.00000000000E+00  0.11972408408E+04  0.11972408408E+04  0.00000000000E+00 0. -1.
          1   -1    0    0  501    0 -0.00000000000E+00 -0.00000000000E+00 -0.96182715795E+02  0.96182715795E+02  0.00000000000E+00 0. -1.
         25    2    1    2    0    0  0.52968298635E+02 -0.30108035394E+02  0.83993850126E+02  0.16246276384E+03  0.12500819301E+03 0.  0.
          2    1    1    2  501    0 -0.87417730071E+02 -0.71768359599E+01 -0.22183775853E+02  0.90473678030E+02  0.00000000000E+00 0. -1.
          1    1    1    2  502    0  0.34449431436E+02  0.37284871354E+02  0.10392480508E+04  0.10404871148E+04  0.00000000000E+00 0. -1.
         22    1    3    3    0    0  0.85234906689E+02 -0.43390014701E+02  0.84413460252E+02  0.12756690388E+03  0.00000000000E+00 0. -1.
         22    1    3    3    0    0 -0.32266608054E+02  0.13281979307E+02 -0.41961012670E+00  0.34895859959E+02  0.00000000000E+00 0. -1.
</event>
<event>
 7    1  0.4915160E-006  0.5755350E+03  0.7818608E-02  0.1147585E+00
          2   -1    0    0  502    0  0.00000000000E+00  0.00000000000E+00  0.18355741984E+04  0.18355741984E+04  0.00000000000E+00 0. -1.
          1   -1    0    0  501    0 -0.00000000000E+00 -0.00000000000E+00 -0.45233553240E+03  0.45233553240E+03  0.00000000000E+00 0. -1.
         25    2    1    2    0    0 -0.44904450289E+03  0.41242975256E+03  0.10738321833E+04  0.12411606587E+04  0.12499982622E+03 0.  0.
          2    1    1    2  501    0  0.45576262109E+03 -0.34144531396E+03 -0.14429921612E+03  0.58747487859E+03  0.00000000000E+00 0. -1.
          1    1    1    2  502    0 -0.67181181980E+01 -0.70984438599E+02  0.45370569887E+03  0.45927419351E+03  0.00000000000E+00 0. -1.
         22    1    3    3    0    0 -0.21127683724E+03  0.23552098976E+03  0.66259943429E+03  0.73426565281E+03  0.00000000000E+00 0. -1.
         22    1    3    3    0    0 -0.23776766565E+03  0.17690876280E+03  0.41123274897E+03  0.50689500590E+03  0.00000000000E+00 0. -1.
</event>
<event>
 7    1  0.4915160E-006  0.9247633E+02  0.7818608E-02  0.1379870E+00
          2   -1    0    0  502    0  0.00000000000E+00  0.00000000000E+00  0.69899953619E+03  0.69899953619E+03  0.00000000000E+00 0. -1.
          1   -1    0    0  501    0 -0.00000000000E+00 -0.00000000000E+00 -0.85288967628E+02  0.85288967628E+02  0.00000000000E+00 0. -1.
         25    2    1    2    0    0  0.68478733595E+02 -0.33693405440E+02  0.34631228618E+03  0.37600698160E+03  0.12499787249E+03 0.  0.
          2    1    1    2  501    0 -0.55451331498E+02  0.76749940488E+02 -0.36199138453E+02  0.10136952774E+03  0.00000000000E+00 0. -1.
          1    1    1    2  502    0 -0.13027402097E+02 -0.43056535048E+02  0.30359742083E+03  0.30691199447E+03  0.00000000000E+00 0. -1.
         22    1    3    3    0    0  0.37783655623E+02  0.23603602466E+02  0.27862034595E+03  0.28215958580E+03  0.00000000000E+00 0. -1.
         22    1    3    3    0    0  0.30695077972E+02 -0.57297007906E+02  0.67691940236E+02  0.93847395806E+02  0.00000000000E+00 0. -1.
</event>
<event>
 7    1  0.4915160E-006  0.5236026E+02  0.7818608E-02  0.1570756E+00
          2   -1    0    0  502    0  0.00000000000E+00  0.00000000000E+00  0.56042394687E+03  0.56042394687E+03  0.00000000000E+00 0. -1.
          1   -1    0    0  501    0 -0.00000000000E+00 -0.00000000000E+00 -0.42286138887E+03  0.42286138887E+03  0.00000000000E+00 0. -1.
         25    2    1    2    0    0  0.54525684766E+02 -0.38800240969E+02  0.66869165988E+02  0.15676448426E+03  0.12500043667E+03 0.  0.
          2    1    1    2  501    0 -0.48407492029E+02  0.19413710788E+02 -0.37588192284E+03  0.37948306598E+03  0.00000000000E+00 0. -1.
          1    1    1    2  502    0 -0.61181927378E+01  0.19386530180E+02  0.44657531485E+03  0.44703778550E+03  0.00000000000E+00 0. -1.
         22    1    3    3    0    0  0.81707896238E+02 -0.10103660548E+02  0.80312052927E+02  0.11501430393E+03  0.00000000000E+00 0. -1.
         22    1    3    3    0    0 -0.27182211472E+02 -0.28696580421E+02 -0.13442886939E+02  0.41750180330E+02  0.00000000000E+00 0. -1.
</event>
<event>
 7    1  0.4915160E-006  0.5320233E+02  0.7818608E-02  0.1437830E+00
          2   -1    0    0  502    0  0.00000000000E+00  0.00000000000E+00  0.35880400394E+03  0.35880400394E+03  0.00000000000E+00 0. -1.
          1   -1    0    0  501    0 -0.00000000000E+00 -0.00000000000E+00 -0.35323564420E+03  0.35323564420E+03  0.00000000000E+00 0. -1.
         25    2    1    2    0    0 -0.97880942831E+01 -0.25431036976E+02 -0.21857403282E+03  0.25326231015E+03  0.12499858194E+03 0.  0.
          2    1    1    2  501    0  0.55145159544E+02  0.45742346171E+02 -0.10433222945E+03  0.12656446957E+03  0.00000000000E+00 0. -1.
          1    1    1    2  502    0 -0.45357065261E+02 -0.20311309196E+02  0.32847462200E+03  0.33221286843E+03  0.00000000000E+00 0. -1.
         22    1    3    3    0    0 -0.30815944569E+02 -0.33303202423E+02 -0.22530000509E+03  0.22982344969E+03  0.00000000000E+00 0.  1.
         22    1    3    3    0    0  0.21027850286E+02  0.78721654474E+01  0.67259722770E+01  0.23438860457E+02  0.00000000000E+00 0.  1.
</event>
<event>
 7    1  0.4915160E-006  0.2031360E+03  0.7818608E-02  0.1303539E+00
          2   -1    0    0  502    0  0.00000000000E+00  0.00000000000E+00  0.93467361949E+03  0.93467361949E+03  0.00000000000E+00 0. -1.
          1   -1    0    0  501    0 -0.00000000000E+00 -0.00000000000E+00 -0.16712938090E+04  0.16712938090E+04  0.00000000000E+00 0. -1.
         25    2    1    2    0    0  0.23001234911E+03  0.47394530192E+02 -0.78373761619E+02  0.27734453367E+03  0.12500248642E+03 0.  0.
          2    1    1    2  501    0 -0.19215982533E+03 -0.59110214134E+02 -0.14861925149E+04  0.14997291780E+04  0.00000000000E+00 0. -1.
          1    1    1    2  502    0 -0.37852523780E+02  0.11715683942E+02  0.82794608702E+03  0.82889371684E+03  0.00000000000E+00 0. -1.
         22    1    3    3    0    0  0.75457284826E+02 -0.36206557840E+02 -0.54835330717E+02  0.10005813390E+03  0.00000000000E+00 0.  1.
         22    1    3    3    0    0  0.15455506428E+03  0.83601088032E+02 -0.23538430902E+02  0.17728639978E+03  0.00000000000E+00 0.  1.
</event>
<event>
 7    1  0.4915160E-006  0.1682344E+03  0.7818608E-02  0.1333931E+00
          2   -1    0    0  502    0  0.00000000000E+00  0.00000000000E+00  0.74500576650E+03  0.74500576650E+03  0.00000000000E+00 0. -1.
          1   -1    0    0  501    0 -0.00000000000E+00 -0.00000000000E+00 -0.96122377687E+03  0.96122377687E+03  0.00000000000E+00 0. -1.
         25    2    1    2    0    0 -0.90537898548E+02  0.16459697760E+03  0.46472418726E+03  0.51660819708E+03  0.12500473174E+03 0.  0.
          2    1    1    2  501    0  0.10497608581E+03 -0.13113128710E+03 -0.92638324479E+03  0.94148887900E+03  0.00000000000E+00 0. -1.
          1    1    1    2  502    0 -0.14438187262E+02 -0.33465690496E+02  0.24544104717E+03  0.24813246730E+03  0.00000000000E+00 0. -1.
         22    1    3    3    0    0  0.57961778970E+01  0.12157297664E+02 -0.42794135585E+01  0.14131841533E+02  0.00000000000E+00 0.  1.
         22    1    3    3    0    0 -0.96334076445E+02  0.15243967994E+03  0.46900360082E+03  0.50247635555E+03  0.00000000000E+00 0.  1.
</event>
<event>
 7    1  0.4915160E-006  0.8114130E+02  0.7818608E-02  0.1354165E+00
          2   -1    0    0  502    0  0.00000000000E+00  0.00000000000E+00  0.12753526172E+04  0.12753526172E+04  0.00000000000E+00 0. -1.
          1   -1    0    0  501    0 -0.00000000000E+00 -0.00000000000E+00 -0.45230460141E+02  0.45230460141E+02  0.00000000000E+00 0. -1.
         25    2    1    2    0    0  0.19389383653E+02 -0.92181529542E+01  0.10043840888E+03  0.16178096847E+03  0.12499714092E+03 0.  0.
          2    1    1    2  501    0  0.62419952109E+02 -0.11590275144E+02  0.65295931738E+02  0.91072188953E+02  0.00000000000E+00 0. -1.
          1    1    1    2  502    0 -0.81809335762E+02  0.20808428099E+02  0.10643878164E+04  0.10677299199E+04  0.00000000000E+00 0. -1.
         22    1    3    3    0    0 -0.20475231424E+02 -0.58890278824E+02  0.40685243249E+02  0.74448566541E+02  0.00000000000E+00 0. -1.
         22    1    3    3    0    0  0.39864615078E+02  0.49672125870E+02  0.59753165628E+02  0.87332401927E+02  0.00000000000E+00 0. -1.
</event>
<event>
 7    1  0.4915160E-006  0.4572196E+02  0.7818608E-02  0.1574066E+00
          2   -1    0    0  502    0  0.00000000000E+00  0.00000000000E+00  0.56354897432E+03  0.56354897432E+03  0.00000000000E+00 0. -1.
          1   -1    0    0  501    0 -0.00000000000E+00 -0.00000000000E+00 -0.36182846964E+02  0.36182846964E+02  0.00000000000E+00 0. -1.
         25    2    1    2    0    0 -0.28561387868E+02 -0.42407655257E+02  0.38668722855E+03  0.40959222273E+03  0.12499845636E+03 0.  0.
          2    1    1    2  501    0 -0.10893828218E+02  0.20034698868E+02 -0.15456610959E+02  0.27549436915E+02  0.00000000000E+00 0. -1.
          1    1    1    2  502    0  0.39455216086E+02  0.22372956388E+02  0.15613550976E+03  0.16259016164E+03  0.00000000000E+00 0. -1.
         22    1    3    3    0    0 -0.32477772125E+02 -0.64716734197E+02  0.37872253946E+03  0.38558244678E+03  0.00000000000E+00 0. -1.
         22    1    3    3    0    0  0.39163842568E+01  0.22309078941E+02  0.79646890900E+01  0.24009775949E+02  0.00000000000E+00 0. -1.
</event>
<event>
 7    1  0.4915160E-006  0.8297983E+02  0.7818608E-02  0.1351310E+00
          2   -1    0    0  502    0  0.00000000000E+00  0.00000000000E+00  0.28724821052E+04  0.28724821052E+04  0.00000000000E+00 0. -1.
          1   -1    0    0  501    0 -0.00000000000E+00 -0.00000000000E+00 -0.71345394462E+02  0.71345394462E+02  0.00000000000E+00 0. -1.
         25    2    1    2    0    0 -0.84858240109E+02  0.68361929286E+02  0.84886327255E+02  0.18629109424E+03  0.12499763578E+03 0.  0.
          2    1    1    2  501    0  0.21376202778E+02 -0.72301818179E+02  0.49867536848E+02  0.90395056217E+02  0.00000000000E+00 0. -1.
          1    1    1    2  502    0  0.63482037331E+02  0.39398888929E+01  0.26663828466E+04  0.26671413492E+04  0.00000000000E+00 0. -1.
         22    1    3    3    0    0 -0.49910416938E+02  0.97666538574E+02  0.87938467864E+02  0.14058085434E+03  0.00000000000E+00 0. -1.
         22    1    3    3    0    0 -0.34947823172E+02 -0.29304609288E+02 -0.30521406092E+01  0.45710239906E+02  0.00000000000E+00 0. -1.
</event>
<event>
 7    1  0.4915160E-006  0.9191519E+02  0.7818608E-02  0.1397852E+00
          2   -1    0    0  502    0  0.00000000000E+00  0.00000000000E+00  0.17830022708E+04  0.17830022708E+04  0.00000000000E+00 0. -1.
          1   -1    0    0  501    0 -0.00000000000E+00 -0.00000000000E+00 -0.29700166775E+02  0.29700166775E+02  0.00000000000E+00 0. -1.
         25    2    1    2    0    0  0.19586160958E+02 -0.13378006359E+01  0.15485631945E+03  0.19997988474E+03  0.12500426879E+03 0.  0.
          2    1    1    2  501    0 -0.96666282080E+02 -0.48732724711E+02  0.57084074657E+03  0.58101497958E+03  0.00000000000E+00 0. -1.
          1    1    1    2  502    0  0.77080121122E+02  0.50070525347E+02  0.10276050380E+04  0.10317075733E+04  0.00000000000E+00 0. -1.
         22    1    3    3    0    0  0.54996843148E+02 -0.23099013335E+02  0.14567536518E+03  0.15741514919E+03  0.00000000000E+00 0. -1.
         22    1    3    3    0    0 -0.35410682191E+02  0.21761212700E+02  0.91809542685E+01  0.42564735552E+02  0.00000000000E+00 0. -1.
</event>
<event>
 7    1  0.4915160E-006  0.1227952E+03  0.7818608E-02  0.1352536E+00
          2   -1    0    0  502    0  0.00000000000E+00  0.00000000000E+00  0.41147822084E+03  0.41147822084E+03  0.00000000000E+00 0. -1.
          1   -1    0    0  501    0 -0.00000000000E+00 -0.00000000000E+00 -0.14188162829E+03  0.14188162829E+03  0.00000000000E+00 0. -1.
         25    2    1    2    0    0  0.10612455404E+02  0.91937596345E+02  0.74494613255E+02  0.17245284428E+03  0.12500156105E+03 0.  0.
          2    1    1    2  501    0 -0.16505293988E+02 -0.13406241656E+03 -0.40877673445E+02  0.14112455651E+03  0.00000000000E+00 0. -1.
          1    1    1    2  502    0  0.58928385845E+01  0.42124820217E+02  0.23597965274E+03  0.23978244834E+03  0.00000000000E+00 0. -1.
         22    1    3    3    0    0 -0.15094247234E-01  0.56918673750E+02  0.10848282016E+03  0.12250819531E+03  0.00000000000E+00 0.  1.
         22    1    3    3    0    0  0.10627549651E+02  0.35018922595E+02 -0.33988206905E+02  0.49944648962E+02  0.00000000000E+00 0.  1.
</event>
<event>
 7    1  0.4915160E-006  0.8127433E+02  0.7818608E-02  0.1489970E+00
          2   -1    0    0  502    0  0.00000000000E+00  0.00000000000E+00  0.14276686684E+04  0.14276686684E+04  0.00000000000E+00 0. -1.
          1   -1    0    0  501    0 -0.00000000000E+00 -0.00000000000E+00 -0.80739844313E+03  0.80739844313E+03  0.00000000000E+00 0. -1.
         25    2    1    2    0    0 -0.43946467227E+02 -0.51996191316E+02  0.92798420828E+03  0.93883649379E+03  0.12499750139E+03 0.  0.
          2    1    1    2  501    0  0.65847462632E+02  0.47697779655E+02 -0.79965779013E+03  0.80378078344E+03  0.00000000000E+00 0. -1.
          1    1    1    2  502    0 -0.21900995406E+02  0.42984116611E+01  0.49194380714E+03  0.49244983432E+03  0.00000000000E+00 0. -1.
         22    1    3    3    0    0 -0.18211676994E+01 -0.56036643851E+02  0.15733285955E+03  0.16702410245E+03  0.00000000000E+00 0.  1.
         22    1    3    3    0    0 -0.42125299527E+02  0.40404525348E+01  0.77065134873E+03  0.77181239134E+03  0.00000000000E+00 0.  1.
</event>
<event>
 7    1  0.4915160E-006  0.3782719E+02  0.7818608E-02  0.1602648E+00
          2   -1    0    0  502    0  0.00000000000E+00  0.00000000000E+00  0.87113304938E+02  0.87113304938E+02  0.00000000000E+00 0. -1.
          1   -1    0    0  501    0 -0.00000000000E+00 -0.00000000000E+00 -0.14275208072E+03  0.14275208072E+03  0.00000000000E+00 0. -1.
         25    2    1    2    0    0 -0.19560062513E+01  0.17064361771E+02  0.23134012615E+02  0.12827437952E+03  0.12499646194E+03 0.  0.
          2    1    1    2  501    0  0.13632738268E+02 -0.37052564663E+02 -0.59814913244E+02  0.71669853824E+02  0.00000000000E+00 0. -1.
          1    1    1    2  502    0 -0.11676732016E+02  0.19988202892E+02 -0.18957875149E+02  0.29921152310E+02  0.00000000000E+00 0. -1.
         22    1    3    3    0    0  0.33804488395E+02 -0.22853649167E+02  0.53025625253E+02  0.66908517017E+02  0.00000000000E+00 0.  1.
         22    1    3    3    0    0 -0.35760494646E+02  0.39918010938E+02 -0.29891612639E+02  0.61365862503E+02  0.00000000000E+00 0.  1.
</event>
<event>
 7    1  0.4915160E-006  0.1158523E+03  0.7818608E-02  0.1354100E+00
          2   -1    0    0  502    0  0.00000000000E+00  0.00000000000E+00  0.16153316154E+03  0.16153316154E+03  0.00000000000E+00 0. -1.
          1   -1    0    0  501    0 -0.00000000000E+00 -0.00000000000E+00 -0.75167270580E+03  0.75167270580E+03  0.00000000000E+00 0. -1.
         25    2    1    2    0    0  0.49798045366E+02 -0.14623781521E+03 -0.38382275347E+03  0.43221537277E+03  0.12499951385E+03 0.  0.
          2    1    1    2  501    0  0.87197223850E+00  0.44481156122E+02 -0.31831643036E+03  0.32141045942E+03  0.00000000000E+00 0. -1.
          1    1    1    2  502    0 -0.50670017605E+02  0.10175665909E+03  0.11199963957E+03  0.15958003514E+03  0.00000000000E+00 0. -1.
         22    1    3    3    0    0 -0.63915633550E+01  0.20942792036E+02 -0.33884015008E+02  0.40343265776E+02  0.00000000000E+00 0. -1.
         22    1    3    3    0    0  0.56189608721E+02 -0.16718060725E+03 -0.34993873846E+03  0.39187210700E+03  0.00000000000E+00 0. -1.
</event>
<event>
 7    1  0.4915160E-006  0.6689869E+02  0.7818608E-02  0.1386719E+00
          2   -1    0    0  502    0  0.00000000000E+00  0.00000000000E+00  0.12560191105E+03  0.12560191105E+03  0.00000000000E+00 0. -1.
          1   -1    0    0  501    0 -0.00000000000E+00 -0.00000000000E+00 -0.15516621654E+03  0.15516621654E+03  0.00000000000E+00 0. -1.
         25    2    1    2    0    0  0.19016388359E+02 -0.24776154595E+02 -0.92883773157E+01  0.12917638687E+03  0.12499913644E+03 0.  0.
          2    1    1    2  501    0  0.30591714218E+02  0.69659017864E+02 -0.33947019613E+02  0.83310454861E+02  0.00000000000E+00 0. -1.
          1    1    1    2  502    0 -0.49608102578E+02 -0.44882863269E+02  0.13671091436E+02  0.68281285852E+02  0.00000000000E+00 0. -1.
         22    1    3    3    0    0 -0.38449657769E+02 -0.50063681327E+02 -0.18359779237E+02  0.65740625676E+02  0.00000000000E+00 0. -1.
         22    1    3    3    0    0  0.57466046128E+02  0.25287526732E+02  0.90714019217E+01  0.63435761197E+02  0.00000000000E+00 0. -1.
</event>
<event>
 7    1  0.4915160E-006  0.8993032E+02  0.7818608E-02  0.1429153E+00
          2   -1    0    0  502    0  0.00000000000E+00  0.00000000000E+00  0.80142815500E+02  0.80142815500E+02  0.00000000000E+00 0. -1.
          1   -1    0    0  501    0 -0.00000000000E+00 -0.00000000000E+00 -0.93750443219E+03  0.93750443219E+03  0.00000000000E+00 0. -1.
         25    2    1    2    0    0 -0.79664456451E+02  0.42596828140E+02 -0.95867287618E+02  0.18159598643E+03  0.12500260023E+03 0.  0.
          2    1    1    2  501    0  0.60181894774E+02 -0.67208130998E+02 -0.78910578233E+03  0.79424601292E+03  0.00000000000E+00 0. -1.
          1    1    1    2  502    0  0.19482561677E+02  0.24611302858E+02  0.27611453256E+02  0.41805248340E+02  0.00000000000E+00 0. -1.
         22    1    3    3    0    0 -0.52921073280E+02 -0.33377629897E+02 -0.76367145694E+02  0.98725108843E+02  0.00000000000E+00 0.  1.
         22    1    3    3    0    0 -0.26743383171E+02  0.75974458037E+02 -0.19500141924E+02  0.82870877590E+02  0.00000000000E+00 0.  1.
</event>
<event>
 7    1  0.4915160E-006  0.1814652E+03  0.7818608E-02  0.1301863E+00
          2   -1    0    0  502    0  0.00000000000E+00  0.00000000000E+00  0.19675457583E+04  0.19675457583E+04  0.00000000000E+00 0. -1.
          1   -1    0    0  501    0 -0.00000000000E+00 -0.00000000000E+00 -0.26192122350E+03  0.26192122350E+03  0.00000000000E+00 0. -1.
         25    2    1    2    0    0 -0.19914418323E+03  0.70103438995E+02  0.98579845926E+03  0.10158724243E+04  0.12500112929E+03 0.  0.
          2    1    1    2  501    0  0.17801736774E+03 -0.30321467413E+02 -0.21324699177E+03  0.27943488348E+03  0.00000000000E+00 0. -1.
          1    1    1    2  502    0  0.21126815492E+02 -0.39781971582E+02  0.93307306732E+03  0.93415967401E+03  0.00000000000E+00 0. -1.
         22    1    3    3    0    0 -0.79394973438E+02  0.81107822777E+02  0.63424895420E+03  0.64432427909E+03  0.00000000000E+00 0. -1.
         22    1    3    3    0    0 -0.11974920979E+03 -0.11004383782E+02  0.35154950506E+03  0.37154814522E+03  0.00000000000E+00 0. -1.
</event>
<event>
 7    1  0.4915160E-006  0.4749307E+02  0.7818608E-02  0.1530082E+00
          2   -1    0    0  502    0  0.00000000000E+00  0.00000000000E+00  0.13573373952E+04  0.13573373952E+04  0.00000000000E+00 0. -1.
          1   -1    0    0  501    0 -0.00000000000E+00 -0.00000000000E+00 -0.88564747474E+03  0.88564747474E+03  0.00000000000E+00 0. -1.
         25    2    1    2    0    0  0.45109139595E+02 -0.48177730271E+02  0.24628274787E+03  0.28396492589E+03  0.12499983627E+03 0.  0.
          2    1    1    2  501    0 -0.20455098832E+01  0.29028758583E+02 -0.86605347571E+03  0.86654225270E+03  0.00000000000E+00 0. -1.
          1    1    1    2  502    0 -0.43063629711E+02  0.19148971687E+02  0.10914606482E+04  0.10924776913E+04  0.00000000000E+00 0. -1.
         22    1    3    3    0    0 -0.34318942698E+02  0.17181568658E+02  0.72035606215E+02  0.81621839554E+02  0.00000000000E+00 0.  1.
         22    1    3    3    0    0  0.79428082293E+02 -0.65359298929E+02  0.17424714166E+03  0.20234308634E+03  0.00000000000E+00 0.  1.
</event>
<event>
 7    1  0.4915160E-006  0.6728109E+02  0.7818608E-02  0.1456449E+00
          2   -1    0    0  502    0  0.00000000000E+00  0.00000000000E+00  0.71189064667E+03  0.71189064667E+03  0.00000000000E+00 0. -1.
          1   -1    0    0  501    0 -0.00000000000E+00 -0.00000000000E+00 -0.31410913970E+03  0.31410913970E+03  0.00000000000E+00 0. -1.
         25    2    1    2    0    0 -0.37541379499E+02  0.27940552457E+02  0.37628509619E+02  0.13864794082E+03  0.12496926467E+03 0.  0.
          2    1    1    2  501    0  0.67593184301E+02 -0.11528181128E+02 -0.25865891520E+03  0.26759329576E+03  0.00000000000E+00 0. -1.
          1    1    1    2  502    0 -0.30051804802E+02 -0.16412371329E+02  0.61881191256E+03  0.61975854978E+03  0.00000000000E+00 0. -1.
         22    1    3    3    0    0  0.21923230939E+02  0.37086537566E+02 -0.26608217243E+02  0.50636316496E+02  0.00000000000E+00 0.  1.
         22    1    3    3    0    0 -0.59464610438E+02 -0.91459851088E+01  0.64236726862E+02  0.88011624323E+02  0.00000000000E+00 0.  1.
</event>
<event>
 7    1  0.4915160E-006  0.8354320E+02  0.7818608E-02  0.1367619E+00
          2   -1    0    0  502    0  0.00000000000E+00  0.00000000000E+00  0.21342529143E+04  0.21342529143E+04  0.00000000000E+00 0. -1.
          1   -1    0    0  501    0 -0.00000000000E+00 -0.00000000000E+00 -0.25536965596E+03  0.25536965596E+03  0.00000000000E+00 0. -1.
         25    2    1    2    0    0  0.73582471837E+02 -0.58572735847E+01  0.60295357405E+03  0.62018279722E+03  0.12500000674E+03 0.  0.
          2    1    1    2  501    0 -0.68092593386E+02 -0.48946286091E+02 -0.23911533833E+03  0.25339393288E+03  0.00000000000E+00 0. -1.
          1    1    1    2  502    0 -0.54898784505E+01  0.54803559675E+02  0.15150450226E+04  0.15160458402E+04  0.00000000000E+00 0. -1.
         22    1    3    3    0    0  0.18817129360E+02 -0.62976893359E+02  0.29378995338E+03  0.30105267008E+03  0.00000000000E+00 0.  1.
         22    1    3    3    0    0  0.54765342477E+02  0.57119619774E+02  0.30916362067E+03  0.31913012714E+03  0.00000000000E+00 0.  1.
</event>
<event>
 7    1  0.4915160E-006  0.2679498E+03  0.7818608E-02  0.1210177E+00
          2   -1    0    0  502    0  0.00000000000E+00  0.00000000000E+00  0.12224218787E+04  0.12224218787E+04  0.00000000000E+00 0. -1.
          1   -1    0    0  501    0 -0.00000000000E+00 -0.00000000000E+00 -0.92765323608E+03  0.92765323608E+03  0.00000000000E+00 0. -1.
         25    2    1    2    0    0 -0.30764022513E+03 -0.13551790755E+03  0.54778305111E+02  0.36281322038E+03  0.12500063515E+03 0.  0.
          2    1    1    2  501    0  0.69227463621E+02  0.30489734907E+02 -0.75497465856E+03  0.75875476982E+03  0.00000000000E+00 0. -1.
          1    1    1    2  502    0  0.23841276150E+03  0.10502817264E+03  0.99496499609E+03  0.10285071246E+04  0.00000000000E+00 0. -1.
         22    1    3    3    0    0 -0.27065517269E+03 -0.14727731492E+03  0.16917938948E+02  0.30859527970E+03  0.00000000000E+00 0. -1.
         22    1    3    3    0    0 -0.36985052433E+02  0.11759407372E+02  0.37860366163E+02  0.54217940676E+02  0.00000000000E+00 0. -1.
</event>
<event>
 7    1  0.4915160E-006  0.5729015E+02  0.7818608E-02  0.1451900E+00
          2   -1    0    0  502    0  0.00000000000E+00  0.00000000000E+00  0.15775168309E+04  0.15775168309E+04  0.00000000000E+00 0. -1.
          1   -1    0    0  501    0 -0.00000000000E+00 -0.00000000000E+00 -0.20473830761E+03  0.20473830761E+03  0.00000000000E+00 0. -1.
         25    2    1    2    0    0 -0.41153428589E+01  0.30975546896E+02  0.11321811344E+03  0.17152421583E+03  0.12500317937E+03 0.  0.
          2    1    1    2  501    0 -0.34010373134E+02 -0.47556786762E+02 -0.17040765264E+03  0.18015860103E+03  0.00000000000E+00 0. -1.
          1    1    1    2  502    0  0.38125715992E+02  0.16581239866E+02  0.14299680625E+04  0.14305723217E+04  0.00000000000E+00 0. -1.
         22    1    3    3    0    0 -0.44105253511E+02  0.35319851007E+02  0.57760032434E+01  0.56799009462E+02  0.00000000000E+00 0. -1.
         22    1    3    3    0    0  0.39989910652E+02 -0.43443041109E+01  0.10744211020E+03  0.11472520636E+03  0.00000000000E+00 0. -1.
</event>
<event>
 7    1  0.4915160E-006  0.1020418E+03  0.7818608E-02  0.1328922E+00
          2   -1    0    0  502    0  0.00000000000E+00  0.00000000000E+00  0.21671398021E+03  0.21671398021E+03  0.00000000000E+00 0. -1.
          1   -1    0    0  501    0 -0.00000000000E+00 -0.00000000000E+00 -0.25078890360E+04  0.25078890360E+04  0.00000000000E+00 0. -1.
         25    2    1    2    0    0 -0.37731772325E+02  0.50505926522E+02  0.60078447507E+02  0.15234562390E+03  0.12500093604E+03 0.  0.
          2    1    1    2  501    0  0.25577905742E+01 -0.10251999937E+03 -0.24516762033E+04  0.24538201031E+04  0.00000000000E+00 0. -1.
          1    1    1    2  502    0  0.35173981751E+02  0.52014072844E+02  0.10042270008E+03  0.11843728913E+03  0.00000000000E+00 0. -1.
         22    1    3    3    0    0 -0.28762145565E+02  0.83904857126E+02  0.73556549792E+02  0.11522956254E+03  0.00000000000E+00 0. -1.
         22    1    3    3    0    0 -0.89696267603E+01 -0.33398930604E+02 -0.13478102285E+02  0.37116061360E+02  0.00000000000E+00 0. -1.
</event>
<event>
 7    1  0.4915160E-006  0.2151592E+03  0.7818608E-02  0.1314224E+00
          2   -1    0    0  502    0  0.00000000000E+00  0.00000000000E+00  0.68178957205E+03  0.68178957205E+03  0.00000000000E+00 0. -1.
          1   -1    0    0  501    0 -0.00000000000E+00 -0.00000000000E+00 -0.10660416126E+04  0.10660416126E+04  0.00000000000E+00 0. -1.
         25    2    1    2    0    0 -0.17560957813E+03  0.13666997084E+03 -0.52681341624E+02  0.26061005031E+03  0.12499947882E+03 0.  0.
          2    1    1    2  501    0  0.14753481050E+03 -0.15575449681E+03 -0.89622615207E+03  0.92154614602E+03  0.00000000000E+00 0. -1.
          1    1    1    2  502    0  0.28074767627E+02  0.19084525962E+02  0.56465545311E+03  0.56567498834E+03  0.00000000000E+00 0. -1.
         22    1    3    3    0    0 -0.65125837944E+02 -0.13538950359E+02 -0.29296264096E+02  0.72683898043E+02  0.00000000000E+00 0.  1.
         22    1    3    3    0    0 -0.11048374019E+03  0.15020892120E+03 -0.23385077528E+02  0.18792615227E+03  0.00000000000E+00 0.  1.
</event>
<event>
 7    1  0.4915160E-006  0.6074280E+02  0.7818608E-02  0.1458926E+00
          2   -1    0    0  502    0  0.00000000000E+00  0.00000000000E+00  0.56972818791E+03  0.56972818791E+03  0.00000000000E+00 0. -1.
          1   -1    0    0  501    0 -0.00000000000E+00 -0.00000000000E+00 -0.53779243502E+03  0.53779243502E+03  0.00000000000E+00 0. -1.
         25    2    1    2    0    0  0.69435359642E+02 -0.36571171451E+02 -0.16376668479E+02  0.14850325019E+03  0.12500520108E+03 0.  0.
          2    1    1    2  501    0 -0.34859903535E+02 -0.13124494578E+02 -0.45276566919E+03  0.45429529651E+03  0.00000000000E+00 0. -1.
          1    1    1    2  502    0 -0.34575456107E+02  0.49695666029E+02  0.50107809057E+03  0.50472207623E+03  0.00000000000E+00 0. -1.
         22    1    3    3    0    0 -0.23034633812E+02  0.59892336319E+01  0.28606412791E+02  0.37212795207E+02  0.00000000000E+00 0. -1.
         22    1    3    3    0    0  0.92469993454E+02 -0.42560405083E+02 -0.44983081270E+02  0.11129045498E+03  0.00000000000E+00 0. -1.
</event>
<event>
 7    1  0.4915160E-006  0.7291293E+02  0.7818608E-02  0.1392692E+00
          2   -1    0    0  502    0  0.00000000000E+00  0.00000000000E+00  0.46972512106E+03  0.46972512106E+03  0.00000000000E+00 0. -1.
          1   -1    0    0  501    0 -0.00000000000E+00 -0.00000000000E+00 -0.43243819271E+03  0.43243819271E+03  0.00000000000E+00 0. -1.
         25    2    1    2    0    0  0.43732020224E+02 -0.72891350056E+02  0.42102687381E+02  0.15691989482E+03  0.12500231438E+03 0.  0.
          2    1    1    2  501    0  0.24090403701E+02  0.45449399346E+02 -0.36961624245E+03  0.37317845883E+03  0.00000000000E+00 0. -1.
          1    1    1    2  502    0 -0.67822423925E+02  0.27441950710E+02  0.36480048342E+03  0.37206496012E+03  0.00000000000E+00 0. -1.
         22    1    3    3    0    0  0.66081479025E+02 -0.96196009336E+02  0.21649471613E+02  0.11869765669E+03  0.00000000000E+00 0.  1.
         22    1    3    3    0    0 -0.22349458800E+02  0.23304659281E+02  0.20453215768E+02  0.38222238136E+02  0.00000000000E+00 0.  1.
</event>
<event>
 7    1  0.9617602E-006  0.8850060E+02  0.7818608E-02  0.1405742E+00
          2   -1    0    0  502    0  0.00000000000E+00  0.00000000000E+00  0.22656714623E+04  0.22656714623E+04  0.00000000000E+00 0. -1.
          1   -1    0    0  501    0 -0.00000000000E+00 -0.00000000000E+00 -0.81999287538E+03  0.81999287538E+03  0.00000000000E+00 0. -1.
         25    2    1    2    0    0  0.32835513768E+02 -0.10558591052E+03 -0.97911362622E+02  0.19348774019E+03  0.12499726080E+03 0.  0.
          2    1    1    2  501    0 -0.34127234329E+02  0.17195338001E+02 -0.67287010571E+03  0.67395439529E+03  0.00000000000E+00 0. -1.
          1    1    1    2  502    0  0.12917205609E+01  0.88390572521E+02  0.22164600552E+04  0.22182222022E+04  0.00000000000E+00 0. -1.
         22    1    3    3    0    0 -0.21665059524E+02 -0.10715681857E+03 -0.82094327582E+02  0.13671663100E+03  0.00000000000E+00 0.  1.
         22    1    3    3    0    0  0.54500573292E+02  0.15709080518E+01 -0.15817035040E+02  0.56771109190E+02  0.00000000000E+00 0.  1.
</event>
<event>
 7    1  0.4915160E-006  0.6634425E+02  0.7818608E-02  0.1400816E+00
          2   -1    0    0  502    0  0.00000000000E+00  0.00000000000E+00  0.28189413857E+03  0.28189413857E+03  0.00000000000E+00 0. -1.
          1   -1    0    0  501    0 -0.00000000000E+00 -0.00000000000E+00 -0.50240154096E+03  0.50240154096E+03  0.00000000000E+00 0. -1.
         25    2    1    2    0    0  0.53128761581E+02  0.81232269228E+02 -0.41246612444E+02  0.16354731053E+03  0.12500037149E+03 0.  0.
          2    1    1    2  501    0 -0.59011353162E+02 -0.28565795890E+02 -0.39407626956E+03  0.39949274177E+03  0.00000000000E+00 0. -1.
          1    1    1    2  502    0  0.58825915817E+01 -0.52666473338E+02  0.21481547962E+03  0.22125562723E+03  0.00000000000E+00 0. -1.
         22    1    3    3    0    0  0.38527953248E+02  0.63059130797E+02 -0.85816510798E+02  0.11324897652E+03  0.00000000000E+00 0.  1.
         22    1    3    3    0    0  0.14600808332E+02  0.18173138431E+02  0.44569898354E+02  0.50298334005E+02  0.00000000000E+00 0.  1.
</event>
<event>
 7    1  0.4915160E-006  0.1734236E+03  0.7818608E-02  0.1387263E+00
          2   -1    0    0  502    0  0.00000000000E+00  0.00000000000E+00  0.46469985124E+03  0.46469985124E+03  0.00000000000E+00 0. -1.
          1   -1    0    0  501    0 -0.00000000000E+00 -0.00000000000E+00 -0.72527972424E+03  0.72527972424E+03  0.00000000000E+00 0. -1.
         25    2    1    2    0    0  0.13858194132E+03 -0.71773463814E+02 -0.12259060065E+03  0.23453937445E+03  0.12499551286E+03 0.  0.
          2    1    1    2  501    0 -0.16069119225E+03  0.76414587125E+02 -0.53190475240E+03  0.56087745009E+03  0.00000000000E+00 0. -1.
          1    1    1    2  502    0  0.22109250932E+02 -0.46411233110E+01  0.39391548005E+03  0.39456275094E+03  0.00000000000E+00 0. -1.
         22    1    3    3    0    0 -0.70468689030E+01  0.24023691837E+02 -0.21723090987E+02  0.33146475120E+02  0.00000000000E+00 0. -1.
         22    1    3    3    0    0  0.14562881022E+03 -0.95797155651E+02 -0.10086750966E+03  0.20139289933E+03  0.00000000000E+00 0. -1.
</event>
<event>
 7    1  0.4915160E-006  0.6568933E+02  0.7818608E-02  0.1410999E+00
          2   -1    0    0  502    0  0.00000000000E+00  0.00000000000E+00  0.37335776729E+03  0.37335776729E+03  0.00000000000E+00 0. -1.
          1   -1    0    0  501    0 -0.00000000000E+00 -0.00000000000E+00 -0.67410015915E+03  0.67410015915E+03  0.00000000000E+00 0. -1.
         25    2    1    2    0    0 -0.82151469605E+02 -0.75756139968E+02  0.14604752981E+03  0.22236036631E+03  0.12500557924E+03 0.  0.
          2    1    1    2  501    0  0.55736391436E+02  0.33999049480E+02 -0.63100372310E+03  0.63437227183E+03  0.00000000000E+00 0. -1.
          1    1    1    2  502    0  0.26415078169E+02  0.41757090489E+02  0.18421380143E+03  0.19072528830E+03  0.00000000000E+00 0. -1.
         22    1    3    3    0    0 -0.24375094488E+02 -0.99861297409E+02  0.72562354490E+02  0.12582416000E+03  0.00000000000E+00 0. -1.
         22    1    3    3    0    0 -0.57776375116E+02  0.24105157441E+02  0.73485175316E+02  0.96536206307E+02  0.00000000000E+00 0. -1.
</event>
<event>
 7    1  0.4915160E-006  0.9818066E+02  0.7818608E-02  0.1465685E+00
          2   -1    0    0  502    0  0.00000000000E+00  0.00000000000E+00  0.10256469879E+04  0.10256469879E+04  0.00000000000E+00 0. -1.
          1   -1    0    0  501    0 -0.00000000000E+00 -0.00000000000E+00 -0.10944101622E+04  0.10944101622E+04  0.00000000000E+00 0. -1.
         25    2    1    2    0    0  0.98551869534E+02 -0.81849472417E+01  0.46835921903E+02  0.16612882394E+03  0.12500287282E+03 0.  0.
          2    1    1    2  501    0 -0.93658397916E+02  0.29576979375E+02 -0.10323014521E+04  0.10369633462E+04  0.00000000000E+00 0. -1.
          1    1    1    2  502    0 -0.48934716181E+01 -0.21392032133E+02  0.91670235594E+03  0.91696497997E+03  0.00000000000E+00 0. -1.
         22    1    3    3    0    0  0.45777034414E+02 -0.16536706221E+02  0.86725223217E+02  0.99449805804E+02  0.00000000000E+00 0.  1.
         22    1    3    3    0    0  0.52774835120E+02  0.83517589798E+01 -0.39889301313E+02  0.66679018134E+02  0.00000000000E+00 0.  1.
</event>
<event>
 7    1  0.4915160E-006  0.6652920E+02  0.7818608E-02  0.1438575E+00
          2   -1    0    0  502    0  0.00000000000E+00  0.00000000000E+00  0.85932912821E+02  0.85932912821E+02  0.00000000000E+00 0. -1.
          1   -1    0    0  501    0 -0.00000000000E+00 -0.00000000000E+00 -0.17401500510E+04  0.17401500510E+04  0.00000000000E+00 0. -1.
         25    2    1    2    0    0  0.22093492081E+02 -0.25799191838E+02 -0.38906909885E+03  0.41006508650E+03  0.12499956317E+03 0.  0.
          2    1    1    2  501    0 -0.31433331639E+01 -0.39395602288E+02 -0.13249521014E+04  0.13255413856E+04  0.00000000000E+00 0. -1.
          1    1    1    2  502    0 -0.18950158917E+02  0.65194794126E+02  0.59804062085E+02  0.90476491676E+02  0.00000000000E+00 0. -1.
         22    1    3    3    0    0 -0.12954262308E+02  0.17859068447E+02 -0.32176060043E+03  0.32251611312E+03  0.00000000000E+00 0.  1.
         22    1    3    3    0    0  0.35047754389E+02 -0.43658260285E+02 -0.67308498427E+02  0.87548973377E+02  0.00000000000E+00 0.  1.
</event>
<event>
 7    1  0.4915160E-006  0.1598490E+03  0.7818608E-02  0.1228345E+00
          2   -1    0    0  502    0  0.00000000000E+00  0.00000000000E+00  0.14726926771E+04  0.14726926771E+04  0.00000000000E+00 0. -1.
          1   -1    0    0  501    0 -0.00000000000E+00 -0.00000000000E+00 -0.10416483752E+04  0.10416483752E+04  0.00000000000E+00 0. -1.
         25    2    1    2    0    0  0.43045341057E+02  0.82612750226E+02  0.15074611462E+03  0.21685655837E+03  0.12499843179E+03 0.  0.
          2    1    1    2  501    0  0.10432219810E+03  0.95096284351E+01 -0.99998628051E+03  0.10054581619E+04  0.00000000000E+00 0. -1.
          1    1    1    2  502    0 -0.14736753915E+03 -0.92122378661E+02  0.12802844678E+04  0.12920263320E+04  0.00000000000E+00 0. -1.
         22    1    3    3    0    0  0.38459980691E+02 -0.37148664645E+01 -0.47652066060E+01  0.38931703554E+02  0.00000000000E+00 0.  1.
         22    1    3    3    0    0  0.45853603657E+01  0.86327616690E+02  0.15551132122E+03  0.17792485482E+03  0.00000000000E+00 0.  1.
</event>
<event>
 7    1  0.4915160E-006  0.5632814E+02  0.7818608E-02  0.1441531E+00
          2   -1    0    0  502    0  0.00000000000E+00  0.00000000000E+00  0.27249466710E+03  0.27249466710E+03  0.00000000000E+00 0. -1.
          1   -1    0    0  501    0 -0.00000000000E+00 -0.00000000000E+00 -0.66273789684E+03  0.66273789684E+03  0.00000000000E+00 0. -1.
         25    2    1    2    0    0 -0.62511511972E+02 -0.86006401138E+01 -0.93137326836E+01  0.14033142158E+03  0.12499800849E+03 0.  0.
          2    1    1    2  501    0  0.27651126965E+02 -0.36333411510E+02 -0.58309952228E+03  0.58488439413E+03  0.00000000000E+00 0. -1.
          1    1    1    2  502    0  0.34860385006E+02  0.44934051624E+02  0.20217002522E+03  0.21001674823E+03  0.00000000000E+00 0. -1.
         22    1    3    3    0    0 -0.56263005590E+02  0.44758631475E+02 -0.35933050856E+02  0.80374405337E+02  0.00000000000E+00 0.  1.
         22    1    3    3    0    0 -0.62485063818E+01 -0.53359271589E+02  0.26619318172E+02  0.59957016240E+02  0.00000000000E+00 0.  1.
</event>
<event>
 7    1  0.4915160E-006  0.6979145E+02  0.7818608E-02  0.1442180E+00
          2   -1    0    0  502    0  0.00000000000E+00  0.00000000000E+00  0.49569152231E+03  0.49569152231E+03  0.00000000000E+00 0. -1.
          1   -1    0    0  501    0 -0.00000000000E+00 -0.00000000000E+00 -0.13796000615E+04  0.13796000615E+04  0.00000000000E+00 0. -1.
         25    2    1    2    0    0 -0.50812624431E+02 -0.90116377136E+02 -0.16655052209E+03  0.23252287778E+03  0.12499971221E+03 0.  0.
          2    1    1    2  501    0  0.24953023582E+02  0.64113169976E+02 -0.11783317880E+04  0.11803384916E+04  0.00000000000E+00 0. -1.
          1    1    1    2  502    0  0.25859600849E+02  0.26003207160E+02  0.46097377095E+03  0.46243021446E+03  0.00000000000E+00 0. -1.
         22    1    3    3    0    0 -0.52881494921E+02 -0.94657492435E+01 -0.75825368152E+01  0.54254472427E+02  0.00000000000E+00 0. -1.
         22    1    3    3    0    0  0.20688704897E+01 -0.80650627892E+02 -0.15896798527E+03  0.17826840535E+03  0.00000000000E+00 0. -1.
</event>
<event>
 7    1  0.4915160E-006  0.4235528E+02  0.7818608E-02  0.1500693E+00
          2   -1    0    0  502    0  0.00000000000E+00  0.00000000000E+00  0.72347705951E+03  0.72347705951E+03  0.00000000000E+00 0. -1.
          1   -1    0    0  501    0 -0.00000000000E+00 -0.00000000000E+00 -0.58340609570E+02  0.58340609570E+02  0.00000000000E+00 0. -1.
         25    2    1    2    0    0  0.53455246535E+01  0.29135033895E+02  0.26488613225E+03  0.29439201243E+03  0.12499827634E+03 0.  0.
          2    1    1    2  501    0  0.36825023783E+02 -0.15008636503E+02 -0.33136664654E+02  0.51762728780E+02  0.00000000000E+00 0. -1.
          1    1    1    2  502    0 -0.42170548436E+02 -0.14126397392E+02  0.43338698235E+03  0.43566292788E+03  0.00000000000E+00 0. -1.
         22    1    3    3    0    0  0.36803095478E+02 -0.15173959186E+02  0.21962950268E+02  0.45465240114E+02  0.00000000000E+00 0. -1.
         22    1    3    3    0    0 -0.31457570824E+02  0.44308993081E+02  0.24292318198E+03  0.24892677231E+03  0.00000000000E+00 0. -1.
</event>
<event>
 7    1  0.4915160E-006  0.5866611E+02  0.7818608E-02  0.1404967E+00
          2   -1    0    0  502    0  0.00000000000E+00  0.00000000000E+00  0.12904608092E+04  0.12904608092E+04  0.00000000000E+00 0. -1.
          1   -1    0    0  501    0 -0.00000000000E+00 -0.00000000000E+00 -0.57087177852E+03  0.57087177852E+03  0.00000000000E+00 0. -1.
         25    2    1    2    0    0  0.16645975701E+02 -0.11496419971E+03 -0.40704507307E+03  0.44136691347E+03  0.12500082031E+03 0.  0.
          2    1    1    2  501    0 -0.34358024403E+01  0.57898217924E+02 -0.14022835398E+03  0.15174979288E+03  0.00000000000E+00 0. -1.
          1    1    1    2  502    0 -0.13210173260E+02  0.57065981783E+02  0.12668624577E+04  0.12682158813E+04  0.00000000000E+00 0. -1.
         22    1    3    3    0    0 -0.18390315176E+02 -0.12963070753E+03 -0.28694950699E+03  0.31540821738E+03  0.00000000000E+00 0.  1.
         22    1    3    3    0    0  0.35036290877E+02  0.14666507824E+02 -0.12009556608E+03  0.12595869609E+03  0.00000000000E+00 0.  1.
</event>
<event>
 7    1  0.4915160E-006  0.6181704E+02  0.7818608E-02  0.1426369E+00
          2   -1    0    0  502    0  0.00000000000E+00  0.00000000000E+00  0.10033853818E+04  0.10033853818E+04  0.00000000000E+00 0. -1.
          1   -1    0    0  501    0 -0.00000000000E+00 -0.00000000000E+00 -0.43732910833E+02  0.43732910833E+02  0.00000000000E+00 0. -1.
         25    2    1    2    0    0 -0.80093947994E+02  0.29123382830E+02  0.15489169368E+03  0.21651531987E+03  0.12499694009E+03 0.  0.
          2    1    1    2  501    0  0.42437353442E+02  0.19351716123E+02  0.34784941145E+02  0.58184276352E+02  0.00000000000E+00 0. -1.
          1    1    1    2  502    0  0.37656594552E+02 -0.48475098954E+02  0.76997583613E+03  0.77241869640E+03  0.00000000000E+00 0. -1.
         22    1    3    3    0    0 -0.79854747202E+02  0.34924239790E+02  0.17504444789E+03  0.19554294135E+03  0.00000000000E+00 0. -1.
         22    1    3    3    0    0 -0.23920079233E+00 -0.58008569601E+01 -0.20152754207E+02  0.20972378516E+02  0.00000000000E+00 0. -1.
</event>
<event>
 7    1  0.4915160E-006  0.9060871E+02  0.7818608E-02  0.1342899E+00
          2   -1    0    0  502    0  0.00000000000E+00  0.00000000000E+00  0.25494365052E+04  0.25494365052E+04  0.00000000000E+00 0. -1.
          1   -1    0    0  501    0 -0.00000000000E+00 -0.00000000000E+00 -0.29750692524E+02  0.29750692524E+02  0.00000000000E+00 0. -1.
         25    2    1    2    0    0 -0.22765952677E+02  0.60974744715E+02  0.63189461954E+03  0.64741901598E+03  0.12499745580E+03 0.  0.
          2    1    1    2  501    0  0.84183025223E+02 -0.48849346455E+02  0.88995424874E+02  0.13188338043E+03  0.00000000000E+00 0. -1.
          1    1    1    2  502    0 -0.61417072546E+02 -0.12125398259E+02  0.17987957682E+04  0.17998848013E+04  0.00000000000E+00 0. -1.
         22    1    3    3    0    0 -0.12986461675E+02 -0.14567978045E+02  0.12103410004E+02  0.22964466136E+02  0.00000000000E+00 0. -1.
         22    1    3    3    0    0 -0.97794910015E+01  0.75542722760E+02  0.61979120953E+03  0.62445454984E+03  0.00000000000E+00 0. -1.
</event>
<event>
 7    1  0.4915160E-006  0.9376944E+02  0.7818608E-02  0.1314286E+00
          2   -1    0    0  502    0  0.00000000000E+00  0.00000000000E+00  0.75150795163E+03  0.75150795163E+03  0.00000000000E+00 0. -1.
          1   -1    0    0  501    0 -0.00000000000E+00 -0.00000000000E+00 -0.17819023635E+03  0.17819023635E+03  0.00000000000E+00 0. -1.
         25    2    1    2    0    0  0.72068242758E+02 -0.53983876210E+02  0.63509498711E+02  0.16663353771E+03  0.12500075583E+03 0.  0.
          2    1    1    2  501    0 -0.65572324844E+02 -0.41963751319E+02 -0.11059757028E+03  0.13524980134E+03  0.00000000000E+00 0. -1.
          1    1    1    2  502    0 -0.64959179147E+01  0.95947627530E+02  0.62040578685E+03  0.62781484893E+03  0.00000000000E+00 0. -1.
         22    1    3    3    0    0  0.88407334954E+02 -0.30050566525E+02 -0.36942520477E+01  0.93448065364E+02  0.00000000000E+00 0.  1.
         22    1    3    3    0    0 -0.16339092195E+02 -0.23933309686E+02  0.67203750758E+02  0.73185472344E+02  0.00000000000E+00 0.  1.
</event>
<event>
 7    1  0.4915160E-006  0.6694451E+02  0.7818608E-02  0.1456719E+00
          2   -1    0    0  502    0  0.00000000000E+00  0.00000000000E+00  0.30116249745E+02  0.30116249745E+02  0.00000000000E+00 0. -1.
          1   -1    0    0  501    0 -0.00000000000E+00 -0.00000000000E+00 -0.65933711688E+03  0.65933711688E+03  0.00000000000E+00 0. -1.
         25    2    1    2    0    0 -0.82938690167E+02 -0.16695781206E+02 -0.31671944102E+03  0.35084793906E+03  0.12500198632E+03 0.  0.
          2    1    1    2  501    0  0.29471741374E+02 -0.17636706371E+02 -0.23896168120E+03  0.24141731925E+03  0.00000000000E+00 0. -1.
          1    1    1    2  502    0  0.53466948793E+02  0.34332487577E+02 -0.73539744908E+02  0.97188108314E+02  0.00000000000E+00 0. -1.
         22    1    3    3    0    0 -0.65361714106E+02 -0.35120286168E+02 -0.31681074666E+03  0.32538383084E+03  0.00000000000E+00 0.  1.
         22    1    3    3    0    0 -0.17576976061E+02  0.18424504962E+02  0.91305640857E-01  0.25464108217E+02  0.00000000000E+00 0.  1.
</event>
<event>
 7    1  0.4915160E-006  0.7869624E+02  0.7818608E-02  0.1458592E+00
          2   -1    0    0  502    0  0.00000000000E+00  0.00000000000E+00  0.17924221250E+03  0.17924221250E+03  0.00000000000E+00 0. -1.
          1   -1    0    0  501    0 -0.00000000000E+00 -0.00000000000E+00 -0.16032058888E+04  0.16032058888E+04  0.00000000000E+00 0. -1.
         25    2    1    2    0    0  0.10236398242E+03 -0.40271104888E+01 -0.25708198717E+03  0.30366023361E+03  0.12499514724E+03 0.  0.
          2    1    1    2  501    0 -0.76995435412E+02 -0.96507379656E+01 -0.13203542814E+04  0.13226325499E+04  0.00000000000E+00 0. -1.
          1    1    1    2  502    0 -0.25368547008E+02  0.13677848454E+02  0.15347259221E+03  0.15615531779E+03  0.00000000000E+00 0. -1.
         22    1    3    3    0    0  0.38751004672E+02 -0.14730913508E+02 -0.22998724699E+03  0.23369376105E+03  0.00000000000E+00 0.  1.
         22    1    3    3    0    0  0.63612977748E+02  0.10703803019E+02 -0.27094740179E+02  0.69966472559E+02  0.00000000000E+00 0.  1.
</event>
<event>
 7    1  0.4915160E-006  0.6096170E+03  0.7818608E-02  0.1166490E+00
          2   -1    0    0  502    0  0.00000000000E+00  0.00000000000E+00  0.32130413702E+04  0.32130413702E+04  0.00000000000E+00 0. -1.
          1   -1    0    0  501    0 -0.00000000000E+00 -0.00000000000E+00 -0.12382098842E+04  0.12382098842E+04  0.00000000000E+00 0. -1.
         25    2    1    2    0    0 -0.54376886273E+03 -0.31195841690E+03  0.49707257993E+03  0.80975832528E+03  0.12499906280E+03 0.  0.
          2    1    1    2  501    0  0.54993702511E+03  0.25835573559E+03 -0.99623916594E+03  0.11669065487E+04  0.00000000000E+00 0. -1.
          1    1    1    2  502    0 -0.61681623796E+01  0.53602681305E+02  0.24739980720E+04  0.24745863804E+04  0.00000000000E+00 0. -1.
         22    1    3    3    0    0 -0.43556513498E+03 -0.21646092448E+03  0.32405387349E+03  0.58445122257E+03  0.00000000000E+00 0. -1.
         22    1    3    3    0    0 -0.10820372775E+03 -0.95497492416E+02  0.17301870643E+03  0.22530710271E+03  0.00000000000E+00 0. -1.
</event>
<event>
 7    1  0.4915160E-006  0.7933764E+02  0.7818608E-02  0.1366628E+00
          2   -1    0    0  502    0  0.00000000000E+00  0.00000000000E+00  0.13935115099E+02  0.13935115099E+02  0.00000000000E+00 0. -1.
          1   -1    0    0  501    0 -0.00000000000E+00 -0.00000000000E+00 -0.25116621179E+04  0.25116621179E+04  0.00000000000E+00 0. -1.
         25    2    1    2    0    0 -0.30622135603E+02  0.49496442784E+02 -0.15903014590E+04  0.15962679275E+04  0.12499981215E+03 0.  0.
          2    1    1    2  501    0  0.87136233518E+02 -0.64521129752E+02 -0.79732221625E+03  0.80466043515E+03  0.00000000000E+00 0. -1.
          1    1    1    2  502    0 -0.56514097915E+02  0.15024686968E+02 -0.11010332763E+03  0.12466887036E+03  0.00000000000E+00 0. -1.
         22    1    3    3    0    0  0.14161311948E+02 -0.35662474276E+02 -0.31203421224E+03  0.31438464408E+03  0.00000000000E+00 0.  1.
         22    1    3    3    0    0 -0.44783447551E+02  0.85158917059E+02 -0.12782672467E+04  0.12818832834E+04  0.00000000000E+00 0.  1.
</event>
<event>
 7    1  0.4915160E-006  0.7899102E+02  0.7818608E-02  0.1444631E+00
          2   -1    0    0  502    0  0.00000000000E+00  0.00000000000E+00  0.19840477954E+04  0.19840477954E+04  0.00000000000E+00 0. -1.
          1   -1    0    0  501    0 -0.00000000000E+00 -0.00000000000E+00 -0.97401385666E+03  0.97401385666E+03  0.00000000000E+00 0. -1.
         25    2    1    2    0    0  0.55910055316E+01 -0.47509498890E+02  0.22716596984E+03  0.26366375342E+03  0.12500314071E+03 0.  0.
          2    1    1    2  501    0 -0.16052897145E+02  0.77556625532E+02 -0.95397825965E+03  0.95726028099E+03  0.00000000000E+00 0. -1.
          1    1    1    2  502    0  0.10461891613E+02 -0.30047126642E+02  0.17368462286E+04  0.17371376176E+04  0.00000000000E+00 0. -1.
         22    1    3    3    0    0  0.37842605550E+02 -0.20343268012E+02  0.12287311303E+02  0.44686568086E+02  0.00000000000E+00 0. -1.
         22    1    3    3    0    0 -0.32251600019E+02 -0.27166230878E+02  0.21487865853E+03  0.21897718533E+03  0.00000000000E+00 0. -1.
</event>
<event>
 7    1  0.4915160E-006  0.9502302E+02  0.7818608E-02  0.1400088E+00
          2   -1    0    0  502    0  0.00000000000E+00  0.00000000000E+00  0.17718448465E+04  0.17718448465E+04  0.00000000000E+00 0. -1.
          1   -1    0    0  501    0 -0.00000000000E+00 -0.00000000000E+00 -0.12600859023E+04  0.12600859023E+04  0.00000000000E+00 0. -1.
         25    2    1    2    0    0  0.71900481270E+02  0.70819410951E+02  0.10532443554E+04  0.10654217230E+04  0.12495882314E+03 0.  0.
          2    1    1    2  501    0 -0.38359136169E+02 -0.86938694319E+02 -0.12517091870E+04  0.12553109769E+04  0.00000000000E+00 0. -1.
          1    1    1    2  502    0 -0.33541345101E+02  0.16119283368E+02  0.71022377579E+03  0.71119804895E+03  0.00000000000E+00 0. -1.
         22    1    3    3    0    0 -0.21361264110E+02  0.63081868208E+02  0.47726389401E+03  0.48188842093E+03  0.00000000000E+00 0. -1.
         22    1    3    3    0    0  0.93261745380E+02  0.77375427431E+01  0.57598046137E+03  0.58353330205E+03  0.00000000000E+00 0. -1.
</event>
<event>
 7    1  0.4915160E-006  0.2896753E+02  0.7818608E-02  0.1623790E+00
          2   -1    0    0  502    0  0.00000000000E+00  0.00000000000E+00  0.23564930954E+03  0.23564930954E+03  0.00000000000E+00 0. -1.
          1   -1    0    0  501    0 -0.00000000000E+00 -0.00000000000E+00 -0.37058952715E+02  0.37058952715E+02  0.00000000000E+00 0. -1.
         25    2    1    2    0    0 -0.49165856529E+01 -0.17723251220E+01  0.14778018836E+03  0.19362489840E+03  0.12499721300E+03 0.  0.
          2    1    1    2  501    0  0.20886292259E+02 -0.22395553821E+02  0.18900698193E+02  0.35986586771E+02  0.00000000000E+00 0. -1.
          1    1    1    2  502    0 -0.15969706607E+02  0.24167878943E+02  0.31909470267E+02  0.43096777077E+02  0.00000000000E+00 0. -1.
         22    1    3    3    0    0 -0.21823020875E+02 -0.13235528809E+02  0.16496714878E+03  0.16692987641E+03  0.00000000000E+00 0. -1.
         22    1    3    3    0    0  0.16906435222E+02  0.11463203687E+02 -0.17186960417E+02  0.26695021991E+02  0.00000000000E+00 0. -1.
</event>
<event>
 7    1  0.4915160E-006  0.6280844E+02  0.7818608E-02  0.1460074E+00
          2   -1    0    0  502    0  0.00000000000E+00  0.00000000000E+00  0.42316355205E+03  0.42316355205E+03  0.00000000000E+00 0. -1.
          1   -1    0    0  501    0 -0.00000000000E+00 -0.00000000000E+00 -0.46681547233E+03  0.46681547233E+03  0.00000000000E+00 0. -1.
         25    2    1    2    0    0 -0.35393411903E+02 -0.49309005791E+00 -0.27166497943E+02  0.13272178890E+03  0.12499647153E+03 0.  0.
          2    1    1    2  501    0  0.57811894263E+02  0.28307551230E+02 -0.38332001120E+03  0.38868723102E+03  0.00000000000E+00 0. -1.
          1    1    1    2  502    0 -0.22418482361E+02 -0.27814461172E+02  0.36683458886E+03  0.36857000446E+03  0.00000000000E+00 0. -1.
         22    1    3    3    0    0 -0.42117944737E+02  0.57002167630E+02 -0.61620993836E+01  0.71141688567E+02  0.00000000000E+00 0.  1.
         22    1    3    3    0    0  0.67245328339E+01 -0.57495257687E+02 -0.21004398560E+02  0.61580100335E+02  0.00000000000E+00 0.  1.
</event>
<event>
 7    1  0.4915160E-006  0.3920461E+02  0.7818608E-02  0.1547745E+00
          2   -1    0    0  502    0  0.00000000000E+00  0.00000000000E+00  0.63354226269E+02  0.63354226269E+02  0.00000000000E+00 0. -1.
          1   -1    0    0  501    0 -0.00000000000E+00 -0.00000000000E+00 -0.88263327591E+03  0.88263327591E+03  0.00000000000E+00 0. -1.
         25    2    1    2    0    0  0.20780064285E+02 -0.48327581257E+02 -0.17398997709E+03  0.22060169732E+03  0.12500092220E+03 0.  0.
          2    1    1    2  501    0 -0.29672371481E+02  0.10329233339E+02 -0.67537781253E+03  0.67610822532E+03  0.00000000000E+00 0. -1.
          1    1    1    2  502    0  0.88923071961E+01  0.37998347918E+02  0.30088739976E+02  0.49277579538E+02  0.00000000000E+00 0. -1.
         22    1    3    3    0    0  0.30896951077E+02 -0.87995266617E+02 -0.10552118393E+03  0.14082794038E+03  0.00000000000E+00 0.  1.
         22    1    3    3    0    0 -0.10116886792E+02  0.39667685359E+02 -0.68468793160E+02  0.79773756943E+02  0.00000000000E+00 0.  1.
</event>
<event>
 7    1  0.4915160E-006  0.1240033E+03  0.7818608E-02  0.1254929E+00
          2   -1    0    0  502    0  0.00000000000E+00  0.00000000000E+00  0.33970148678E+03  0.33970148678E+03  0.00000000000E+00 0. -1.
          1   -1    0    0  501    0 -0.00000000000E+00 -0.00000000000E+00 -0.50336916826E+03  0.50336916826E+03  0.00000000000E+00 0. -1.
         25    2    1    2    0    0 -0.90761223636E+02  0.20034589741E+03 -0.99548002791E+02  0.27186550023E+03  0.12499986813E+03 0.  0.
          2    1    1    2  501    0  0.41187663638E+02 -0.94582024220E+02 -0.29496847722E+03  0.31248773655E+03  0.00000000000E+00 0. -1.
          1    1    1    2  502    0  0.49573559999E+02 -0.10576387319E+03  0.23084879853E+03  0.25871741825E+03  0.00000000000E+00 0. -1.
         22    1    3    3    0    0 -0.11982886034E+03  0.14659716029E+03 -0.91309682749E+02  0.21020737699E+03  0.00000000000E+00 0.  1.
         22    1    3    3    0    0  0.29067636704E+02  0.53748737113E+02 -0.82383200412E+01  0.61658123244E+02  0.00000000000E+00 0.  1.
</event>
<event>
 7    1  0.4915160E-006  0.8595139E+02  0.7818608E-02  0.1318063E+00
          2   -1    0    0  502    0  0.00000000000E+00  0.00000000000E+00  0.31297777987E+04  0.31297777987E+04  0.00000000000E+00 0. -1.
          1   -1    0    0  501    0 -0.00000000000E+00 -0.00000000000E+00 -0.40058738715E+03  0.40058738715E+03  0.00000000000E+00 0. -1.
         25    2    1    2    0    0  0.15154542253E+03  0.54307836585E+02  0.44575041426E+02  0.20863036215E+03  0.12499734992E+03 0.  0.
          2    1    1    2  501    0 -0.70057243691E+02 -0.44325734918E+02 -0.31259447017E+03  0.32340082089E+03  0.00000000000E+00 0. -1.
          1    1    1    2  502    0 -0.81488178843E+02 -0.99821016667E+01  0.29972098403E+04  0.29983340028E+04  0.00000000000E+00 0. -1.
         22    1    3    3    0    0  0.34616494385E+02  0.48443898337E+02 -0.33107496606E+02  0.68126494854E+02  0.00000000000E+00 0.  1.
         22    1    3    3    0    0  0.11692892815E+03  0.58639382484E+01  0.77682538032E+02  0.14050386730E+03  0.00000000000E+00 0.  1.
</event>
<event>
 7    1  0.4915160E-006  0.1803663E+03  0.7818608E-02  0.1173304E+00
          2   -1    0    0  502    0  0.00000000000E+00  0.00000000000E+00  0.51073675462E+03  0.51073675462E+03  0.00000000000E+00 0. -1.
          1   -1    0    0  501    0 -0.00000000000E+00 -0.00000000000E+00 -0.93334536982E+03  0.93334536982E+03  0.00000000000E+00 0. -1.
         25    2    1    2    0    0  0.16116458867E+03  0.13504505801E+03 -0.16513463721E+03  0.29513658971E+03  0.12499986338E+03 0.  0.
          2    1    1    2  501    0 -0.61410318137E+00 -0.18681968509E+03 -0.67407583024E+03  0.69948566588E+03  0.00000000000E+00 0. -1.
          1    1    1    2  502    0 -0.16055048549E+03  0.51774627078E+02  0.41660185225E+03  0.44945986884E+03  0.00000000000E+00 0. -1.
         22    1    3    3    0    0  0.12656025485E+03  0.15827801700E+03 -0.14213982029E+03  0.24753415377E+03  0.00000000000E+00 0.  1.
         22    1    3    3    0    0  0.34604333819E+02 -0.23232958984E+02 -0.22994816924E+02  0.47602435941E+02  0.00000000000E+00 0.  1.
</event>
<event>
 7    1  0.4915160E-006  0.3713666E+02  0.7818608E-02  0.1550156E+00
          2   -1    0    0  502    0  0.00000000000E+00  0.00000000000E+00  0.63546428723E+03  0.63546428723E+03  0.00000000000E+00 0. -1.
          1   -1    0    0  501    0 -0.00000000000E+00 -0.00000000000E+00 -0.11140917824E+04  0.11140917824E+04  0.00000000000E+00 0. -1.
         25    2    1    2    0    0  0.17180768651E+02 -0.13950991183E+02  0.20625113198E+03  0.24218389172E+03  0.12499479587E+03 0.  0.
          2    1    1    2  501    0  0.63151879542E+01  0.36633302397E+02 -0.10951611823E+04  0.10957919035E+04  0.00000000000E+00 0. -1.
          1    1    1    2  502    0 -0.23495956605E+02 -0.22682311213E+02  0.41028255518E+03  0.41158027444E+03  0.00000000000E+00 0. -1.
         22    1    3    3    0    0  0.34154122395E+02  0.40653405250E+02  0.16018282362E+03  0.16875349009E+03  0.00000000000E+00 0. -1.
         22    1    3    3    0    0 -0.16973353744E+02 -0.54604396434E+02  0.46068308361E+02  0.73430401623E+02  0.00000000000E+00 0. -1.
</event>
<event>
 7    1  0.4915160E-006  0.5023816E+02  0.7818608E-02  0.1497310E+00
          2   -1    0    0  502    0  0.00000000000E+00  0.00000000000E+00  0.17080770947E+04  0.17080770947E+04  0.00000000000E+00 0. -1.
          1   -1    0    0  501    0 -0.00000000000E+00 -0.00000000000E+00 -0.83374199338E+02  0.83374199338E+02  0.00000000000E+00 0. -1.
         25    2    1    2    0    0 -0.23223770379E+02 -0.44162348479E+02  0.15975439742E+03  0.20889118099E+03  0.12499760584E+03 0.  0.
          2    1    1    2  501    0 -0.23454668871E+02  0.25049099959E+02 -0.53344871962E+02  0.63429127893E+02  0.00000000000E+00 0. -1.
          1    1    1    2  502    0  0.46678439250E+02  0.19113248520E+02  0.15182933699E+04  0.15191309852E+04  0.00000000000E+00 0. -1.
         22    1    3    3    0    0  0.28575800152E+02 -0.96733444011E+01 -0.69424006632E+01  0.30957178056E+02  0.00000000000E+00 0.  1.
         22    1    3    3    0    0 -0.51799570531E+02 -0.34489004077E+02  0.16669679808E+03  0.17793400293E+03  0.00000000000E+00 0.  1.
</event>
<event>
 7    1  0.4915160E-006  0.7862361E+02  0.7818608E-02  0.1463785E+00
          2   -1    0    0  502    0  0.00000000000E+00  0.00000000000E+00  0.35890644048E+03  0.35890644048E+03  0.00000000000E+00 0. -1.
          1   -1    0    0  501    0 -0.00000000000E+00 -0.00000000000E+00 -0.34701290189E+03  0.34701290189E+03  0.00000000000E+00 0. -1.
         25    2    1    2    0    0 -0.16518301260E+02  0.48970233278E+02  0.13354065844E+03  0.19007651698E+03  0.12500014731E+03 0.  0.
          2    1    1    2  501    0  0.24444068218E+02 -0.75596991948E+02 -0.31277406611E+03  0.32270735054E+03  0.00000000000E+00 0. -1.
          1    1    1    2  502    0 -0.79257669585E+01  0.26626758670E+02  0.19112694626E+03  0.19313547485E+03  0.00000000000E+00 0. -1.
         22    1    3    3    0    0 -0.30006065796E+02  0.63009107729E+02  0.16878446686E+02  0.71801069657E+02  0.00000000000E+00 0. -1.
         22    1    3    3    0    0  0.13487764536E+02 -0.14038874451E+02  0.11666221175E+03  0.11827544732E+03  0.00000000000E+00 0. -1.
</event>
<event>
 7    1  0.4915160E-006  0.8702027E+02  0.7818608E-02  0.1359091E+00
          2   -1    0    0  502    0  0.00000000000E+00  0.00000000000E+00  0.13279823945E+04  0.13279823945E+04  0.00000000000E+00 0. -1.
          1   -1    0    0  501    0 -0.00000000000E+00 -0.00000000000E+00 -0.21120111697E+03  0.21120111697E+03  0.00000000000E+00 0. -1.
         25    2    1    2    0    0 -0.62935926415E+02 -0.89854851634E+02  0.59430636407E+03  0.61713659845E+03  0.12499080598E+03 0.  0.
          2    1    1    2  501    0  0.79328358435E+02  0.35487129890E+02 -0.18915065870E+03  0.20815930565E+03  0.00000000000E+00 0. -1.
          1    1    1    2  502    0 -0.16392432019E+02  0.54367721744E+02  0.71162557220E+03  0.71388760740E+03  0.00000000000E+00 0. -1.
         22    1    3    3    0    0  0.13707077386E+02  0.19215365686E+02  0.35362585808E+02  0.42516193667E+02  0.00000000000E+00 0. -1.
         22    1    3    3    0    0 -0.76643003801E+02 -0.10907021732E+03  0.55894377826E+03  0.57462040479E+03  0.00000000000E+00 0. -1.
</event>
<event>
 7    1  0.4915160E-006  0.1019600E+03  0.7818608E-02  0.1317664E+00
          2   -1    0    0  502    0  0.00000000000E+00  0.00000000000E+00  0.18197033702E+03  0.18197033702E+03  0.00000000000E+00 0. -1.
          1   -1    0    0  501    0 -0.00000000000E+00 -0.00000000000E+00 -0.20456199915E+04  0.20456199915E+04  0.00000000000E+00 0. -1.
         25    2    1    2    0    0 -0.74134317995E+02 -0.10062042808E+03 -0.60348401969E+02  0.18678225453E+03  0.12500125333E+03 0.  0.
          2    1    1    2  501    0 -0.20837001777E+02  0.66255598389E+02 -0.18998306111E+04  0.19010997701E+04  0.00000000000E+00 0. -1.
          1    1    1    2  502    0  0.94971319772E+02  0.34364829688E+02  0.96529358613E+02  0.13970830388E+03  0.00000000000E+00 0. -1.
         22    1    3    3    0    0 -0.70760610700E+01  0.23306479581E+02 -0.36486475804E+02  0.43869414713E+02  0.00000000000E+00 0.  1.
         22    1    3    3    0    0 -0.67058256925E+02 -0.12392690766E+03 -0.23861926165E+02  0.14291283981E+03  0.00000000000E+00 0.  1.
</event>
<event>
 7    1  0.4915160E-006  0.5728282E+02  0.7818608E-02  0.1546113E+00
          2   -1    0    0  502    0  0.00000000000E+00  0.00000000000E+00  0.31585190699E+02  0.31585190699E+02  0.00000000000E+00 0. -1.
          1   -1    0    0  501    0 -0.00000000000E+00 -0.00000000000E+00 -0.94832355868E+03  0.94832355868E+03  0.00000000000E+00 0. -1.
         25    2    1    2    0    0 -0.41893445339E+00  0.50425083093E+02 -0.15487068904E+03  0.20530945218E+03  0.12499670524E+03 0.  0.
          2    1    1    2  501    0  0.18111788697E+02  0.12007947923E+02 -0.59736663018E+03  0.59776175735E+03  0.00000000000E+00 0. -1.
          1    1    1    2  502    0 -0.17692854243E+02 -0.62433031016E+02 -0.16450104877E+03  0.17683753984E+03  0.00000000000E+00 0. -1.
         22    1    3    3    0    0  0.59065545841E+02  0.43902965225E+01 -0.75504331860E+02  0.95963105091E+02  0.00000000000E+00 0.  1.
         22    1    3    3    0    0 -0.59484480294E+02  0.46034786571E+02 -0.79366357179E+02  0.10934634709E+03  0.00000000000E+00 0.  1.
</event>
<event>
 7    1  0.4915160E-006  0.1122723E+03  0.7818608E-02  0.1414233E+00
          2   -1    0    0  502    0  0.00000000000E+00  0.00000000000E+00  0.88198456826E+03  0.88198456826E+03  0.00000000000E+00 0. -1.
          1   -1    0    0  501    0 -0.00000000000E+00 -0.00000000000E+00 -0.12229979662E+03  0.12229979662E+03  0.00000000000E+00 0. -1.
         25    2    1    2    0    0 -0.86564948044E+02 -0.95968743028E+02  0.43796239608E+03  0.47343595171E+03  0.12500820022E+03 0.  0.
          2    1    1    2  501    0  0.27038637036E+02  0.79812475154E+01 -0.95883715051E+02  0.99942358471E+02  0.00000000000E+00 0. -1.
          1    1    1    2  502    0  0.59526311008E+02  0.87987495513E+02  0.41760609062E+03  0.43090605471E+03  0.00000000000E+00 0. -1.
         22    1    3    3    0    0 -0.82672366035E+02 -0.12507560219E+03  0.35214577736E+03  0.38273394791E+03  0.00000000000E+00 0.  1.
         22    1    3    3    0    0 -0.38925820087E+01  0.29106859160E+02  0.85816618718E+02  0.90702003798E+02  0.00000000000E+00 0.  1.
</event>
<event>
 7    1  0.4915160E-006  0.8953079E+02  0.7818608E-02  0.1364407E+00
          2   -1    0    0  502    0  0.00000000000E+00  0.00000000000E+00  0.13499774053E+03  0.13499774053E+03  0.00000000000E+00 0. -1.
          1   -1    0    0  501    0 -0.00000000000E+00 -0.00000000000E+00 -0.15334312957E+04  0.15334312957E+04  0.00000000000E+00 0. -1.
         25    2    1    2    0    0 -0.13724706553E+03 -0.73869453763E+00 -0.49027735129E+03  0.52424434607E+03  0.12499180187E+03 0.  0.
          2    1    1    2  501    0  0.84534840986E+02  0.35637241184E+01 -0.10184240473E+04  0.10219326688E+04  0.00000000000E+00 0. -1.
          1    1    1    2  502    0  0.52712224539E+02 -0.28250295808E+01  0.11026784347E+03  0.12225202130E+03  0.00000000000E+00 0. -1.
         22    1    3    3    0    0 -0.24183963363E+02 -0.22374399601E+02 -0.30037289507E+03  0.30217437670E+03  0.00000000000E+00 0.  1.
         22    1    3    3    0    0 -0.11306310216E+03  0.21635705064E+02 -0.18990445622E+03  0.22206996937E+03  0.00000000000E+00 0.  1.
</event>
<event>
 7    1  0.4915160E-006  0.2541426E+03  0.7818608E-02  0.1161510E+00
          2   -1    0    0  502    0  0.00000000000E+00  0.00000000000E+00  0.78812852614E+03  0.78812852614E+03  0.00000000000E+00 0. -1.
          1   -1    0    0  501    0 -0.00000000000E+00 -0.00000000000E+00 -0.90490491309E+03  0.90490491309E+03  0.00000000000E+00 0. -1.
         25    2    1    2    0    0  0.30496738515E+03  0.16770949353E+03 -0.41070403202E+02  0.37208045772E+03  0.12500203505E+03 0.  0.
          2    1    1    2  501    0 -0.16815044149E+03 -0.17643075757E+03 -0.66900619072E+03  0.71201942840E+03  0.00000000000E+00 0. -1.
          1    1    1    2  502    0 -0.13681694366E+03  0.87212640424E+01  0.59330020697E+03  0.60893355312E+03  0.00000000000E+00 0. -1.
         22    1    3    3    0    0  0.14861222812E+03  0.92378995403E+02  0.41569503128E+02  0.17985409845E+03  0.00000000000E+00 0. -1.
         22    1    3    3    0    0  0.15635515704E+03  0.75330498122E+02 -0.82639906330E+02  0.19222635927E+03  0.00000000000E+00 0. -1.
</event>
<event>
 7    1  0.4915160E-006  0.7431660E+02  0.7818608E-02  0.1417335E+00
          2   -1    0    0  502    0  0.00000000000E+00  0.00000000000E+00  0.12549755730E+03  0.12549755730E+03  0.00000000000E+00 0. -1.
          1   -1    0    0  501    0 -0.00000000000E+00 -0.00000000000E+00 -0.37842136315E+03  0.37842136315E+03  0.00000000000E+00 0. -1.
         25    2    1    2    0    0  0.74101529411E+02  0.47568225425E+02 -0.25558524032E+03  0.29783023472E+03  0.12500104365E+03 0.  0.
          2    1    1    2  501    0 -0.22360111631E+00 -0.41579860544E+02 -0.82987155144E+02  0.92821348402E+02  0.00000000000E+00 0. -1.
          1    1    1    2  502    0 -0.73877928295E+02 -0.59883648803E+01  0.85648589605E+02  0.11326733732E+03  0.00000000000E+00 0. -1.
         22    1    3    3    0    0  0.92098289257E+01 -0.32115626307E+02 -0.15811507434E+02  0.36962659120E+02  0.00000000000E+00 0.  1.
         22    1    3    3    0    0  0.64891700486E+02  0.79683851731E+02 -0.23977373288E+03  0.26086757560E+03  0.00000000000E+00 0.  1.
</event>
<event>
 7    1  0.4915160E-006  0.7293680E+02  0.7818608E-02  0.1392802E+00
          2   -1    0    0  502    0  0.00000000000E+00  0.00000000000E+00  0.74874326680E+03  0.74874326680E+03  0.00000000000E+00 0. -1.
          1   -1    0    0  501    0 -0.00000000000E+00 -0.00000000000E+00 -0.15314854862E+03  0.15314854862E+03  0.00000000000E+00 0. -1.
         25    2    1    2    0    0 -0.84572792355E+02 -0.63852271985E+02  0.15664896787E+02  0.16463267824E+03  0.12501543868E+03 0.  0.
          2    1    1    2  501    0  0.66792722330E+02  0.15649818625E+02 -0.62485027948E+02  0.92793120957E+02  0.00000000000E+00 0. -1.
          1    1    1    2  502    0  0.17780070025E+02  0.48202453361E+02  0.64241484934E+03  0.64446601622E+03  0.00000000000E+00 0. -1.
         22    1    3    3    0    0 -0.13315034830E+02  0.36482390988E+02 -0.71028363457E+01  0.39480441852E+02  0.00000000000E+00 0. -1.
         22    1    3    3    0    0 -0.71257757525E+02 -0.10033466297E+03  0.22767733133E+02  0.12515223639E+03  0.00000000000E+00 0. -1.
</event>
<event>
 7    1  0.4915160E-006  0.7994904E+02  0.7818608E-02  0.1332051E+00
          2   -1    0    0  502    0  0.00000000000E+00  0.00000000000E+00  0.22862255549E+04  0.22862255549E+04  0.00000000000E+00 0. -1.
          1   -1    0    0  501    0 -0.00000000000E+00 -0.00000000000E+00 -0.21572594969E+04  0.21572594969E+04  0.00000000000E+00 0. -1.
         25    2    1    2    0    0  0.51028619846E+02  0.13743340878E+03  0.10094403557E+03  0.21750070000E+03  0.12499997717E+03 0.  0.
          2    1    1    2  501    0 -0.51868861952E+02 -0.58212535360E+02 -0.20975188734E+04  0.20989674848E+04  0.00000000000E+00 0. -1.
          1    1    1    2  502    0  0.84024210620E+00 -0.79220873416E+02  0.21255408958E+04  0.21270168670E+04  0.00000000000E+00 0. -1.
         22    1    3    3    0    0 -0.11823870126E+02  0.83156260784E+02  0.10487432947E+03  0.13436291376E+03  0.00000000000E+00 0. -1.
         22    1    3    3    0    0  0.62852489972E+02  0.54277147992E+02 -0.39302939043E+01  0.83137786235E+02  0.00000000000E+00 0. -1.
</event>
<event>
 7    1  0.4915160E-006  0.4579106E+02  0.7818608E-02  0.1577296E+00
          2   -1    0    0  502    0  0.00000000000E+00  0.00000000000E+00  0.65937130030E+03  0.65937130030E+03  0.00000000000E+00 0. -1.
          1   -1    0    0  501    0 -0.00000000000E+00 -0.00000000000E+00 -0.12499853559E+04  0.12499853559E+04  0.00000000000E+00 0. -1.
         25    2    1    2    0    0 -0.10950851339E+02  0.25607079886E+02  0.14961707289E+03  0.19694144183E+03  0.12500007729E+03 0.  0.
          2    1    1    2  501    0  0.32105849625E+02 -0.32718971813E+02 -0.12256382960E+04  0.12264952300E+04  0.00000000000E+00 0. -1.
          1    1    1    2  502    0 -0.21154998286E+02  0.71118919264E+01  0.48540716748E+03  0.48591998436E+03  0.00000000000E+00 0. -1.
         22    1    3    3    0    0 -0.14278075665E+01  0.15504248623E+02 -0.20787669423E+02  0.25972053439E+02  0.00000000000E+00 0.  1.
         22    1    3    3    0    0 -0.95230437721E+01  0.10102831263E+02  0.17040474231E+03  0.17096938839E+03  0.00000000000E+00 0.  1.
</event>
<event>
 7    1  0.4915160E-006  0.4636408E+03  0.7818608E-02  0.1236864E+00
          2   -1    0    0  502    0  0.00000000000E+00  0.00000000000E+00  0.31299854316E+04  0.31299854316E+04  0.00000000000E+00 0. -1.
          1   -1    0    0  501    0 -0.00000000000E+00 -0.00000000000E+00 -0.33430037520E+03  0.33430037520E+03  0.00000000000E+00 0. -1.
         25    2    1    2    0    0 -0.43409873071E+03  0.21966023497E+03  0.65453721797E+03  0.82506747967E+03  0.12500019788E+03 0.  0.
          2    1    1    2  501    0  0.41446034132E+03 -0.19303022593E+03 -0.38956015389E+02  0.45886339337E+03  0.00000000000E+00 0. -1.
          1    1    1    2  502    0  0.19638389390E+02 -0.26630009046E+02  0.21801038538E+04  0.21803549337E+04  0.00000000000E+00 0. -1.
         22    1    3    3    0    0 -0.12036080313E+03  0.80446748548E+02  0.29143983146E+03  0.32541600705E+03  0.00000000000E+00 0.  1.
         22    1    3    3    0    0 -0.31373792757E+03  0.13921348643E+03  0.36309738651E+03  0.49965147262E+03  0.00000000000E+00 0.  1.
</event>
<event>
 7    1  0.4915160E-006  0.1349128E+03  0.7818608E-02  0.1308283E+00
          2   -1    0    0  502    0  0.00000000000E+00  0.00000000000E+00  0.62608055837E+03  0.62608055837E+03  0.00000000000E+00 0. -1.
          1   -1    0    0  501    0 -0.00000000000E+00 -0.00000000000E+00 -0.14715148427E+03  0.14715148427E+03  0.00000000000E+00 0. -1.
         25    2    1    2    0    0  0.38726972538E+02  0.10609129833E+03  0.11678378956E+03  0.20498394282E+03  0.12499928531E+03 0.  0.
          2    1    1    2  501    0 -0.95843190757E+02 -0.10742202237E+03 -0.49820195651E+02  0.15233994880E+03  0.00000000000E+00 0. -1.
          1    1    1    2  502    0  0.57116218219E+02  0.13307240400E+01  0.41196548020E+03  0.41590815102E+03  0.00000000000E+00 0. -1.
         22    1    3    3    0    0 -0.18306249538E+02  0.51305795310E+02  0.11342628308E+03  0.12582895175E+03  0.00000000000E+00 0. -1.
         22    1    3    3    0    0  0.57033222075E+02  0.54785503020E+02  0.33575064752E+01  0.79154991069E+02  0.00000000000E+00 0. -1.
</event>
<event>
 7    1  0.4915160E-006  0.9950093E+02  0.7818608E-02  0.1447327E+00
          2   -1    0    0  502    0  0.00000000000E+00  0.00000000000E+00  0.93376062796E+02  0.93376062796E+02  0.00000000000E+00 0. -1.
          1   -1    0    0  501    0 -0.00000000000E+00 -0.00000000000E+00 -0.10694634507E+04  0.10694634507E+04  0.00000000000E+00 0. -1.
         25    2    1    2    0    0  0.80508000780E+02 -0.13407885174E+02 -0.37173349891E+03  0.40059332863E+03  0.12501164408E+03 0.  0.
          2    1    1    2  501    0  0.15017808831E+02 -0.19684005433E+02 -0.65060311806E+03  0.65107404486E+03  0.00000000000E+00 0. -1.
          1    1    1    2  502    0 -0.95525809611E+02  0.33091890607E+02  0.46249229065E+02  0.11117214001E+03  0.00000000000E+00 0. -1.
         22    1    3    3    0    0  0.58707068451E+02 -0.57575538090E+02 -0.12948263142E+03  0.15338583478E+03  0.00000000000E+00 0. -1.
         22    1    3    3    0    0  0.21800932329E+02  0.44167652916E+02 -0.24225086750E+03  0.24720749385E+03  0.00000000000E+00 0. -1.
</event>
<event>
 7    1  0.4915160E-006  0.7474455E+02  0.7818608E-02  0.1369374E+00
          2   -1    0    0  502    0  0.00000000000E+00  0.00000000000E+00  0.23152418701E+03  0.23152418701E+03  0.00000000000E+00 0. -1.
          1   -1    0    0  501    0 -0.00000000000E+00 -0.00000000000E+00 -0.12182446386E+04  0.12182446386E+04  0.00000000000E+00 0. -1.
         25    2    1    2    0    0  0.35270955885E+02  0.24277037911E+02 -0.23389030020E+03  0.26863217882E+03  0.12500064027E+03 0.  0.
          2    1    1    2  501    0 -0.83167722694E+01 -0.78632529081E+02 -0.96102965657E+03  0.96427705776E+03  0.00000000000E+00 0. -1.
          1    1    1    2  502    0 -0.26954183616E+02  0.54355491169E+02  0.20819950514E+03  0.21685958908E+03  0.00000000000E+00 0. -1.
         22    1    3    3    0    0  0.80911976713E+02  0.20467805626E+02 -0.12286332432E+03  0.14852971253E+03  0.00000000000E+00 0. -1.
         22    1    3    3    0    0 -0.45641020828E+02  0.38092322850E+01 -0.11102697589E+03  0.12010246628E+03  0.00000000000E+00 0. -1.
</event>
<event>
 7    1  0.4915160E-006  0.7147635E+02  0.7818608E-02  0.1386999E+00
          2   -1    0    0  502    0  0.00000000000E+00  0.00000000000E+00  0.86570335501E+02  0.86570335501E+02  0.00000000000E+00 0. -1.
          1   -1    0    0  501    0 -0.00000000000E+00 -0.00000000000E+00 -0.13738281142E+04  0.13738281142E+04  0.00000000000E+00 0. -1.
         25    2    1    2    0    0 -0.97942478520E+02 -0.63966029035E+02 -0.25354276554E+03  0.30593258636E+03  0.12500572576E+03 0.  0.
          2    1    1    2  501    0  0.53698528089E+02  0.11565309014E+02 -0.10736837158E+04  0.10750879079E+04  0.00000000000E+00 0. -1.
          1    1    1    2  502    0  0.44243950431E+02  0.52400720021E+02  0.39968702635E+02  0.79377955370E+02  0.00000000000E+00 0. -1.
         22    1    3    3    0    0  0.87085907818E+01 -0.25774995180E+01  0.10943020789E+02  0.14220856555E+02  0.00000000000E+00 0.  1.
         22    1    3    3    0    0 -0.10665106930E+03 -0.61388529517E+02 -0.26448578633E+03  0.29171172981E+03  0.00000000000E+00 0.  1.
</event>
<event>
 7    1  0.4915160E-006  0.1001142E+03  0.7818608E-02  0.1411248E+00
          2   -1    0    0  502    0  0.00000000000E+00  0.00000000000E+00  0.18193119248E+04  0.18193119248E+04  0.00000000000E+00 0. -1.
          1   -1    0    0  501    0 -0.00000000000E+00 -0.00000000000E+00 -0.58447488042E+03  0.58447488042E+03  0.00000000000E+00 0. -1.
         25    2    1    2    0    0 -0.15242337751E+02  0.79767835352E+02  0.10804384525E+04  0.10906694199E+04  0.12496918592E+03 0.  0.
          2    1    1    2  501    0 -0.10266332838E+02 -0.99676009518E+02 -0.57466518121E+03  0.58333590234E+03  0.00000000000E+00 0. -1.
          1    1    1    2  502    0  0.25508670589E+02  0.19908174166E+02  0.72906377312E+03  0.72978148302E+03  0.00000000000E+00 0. -1.
         22    1    3    3    0    0 -0.27738170160E+02 -0.28661001283E+02  0.29373361021E+03  0.29642923750E+03  0.00000000000E+00 0. -1.
         22    1    3    3    0    0  0.12495832409E+02  0.10842883664E+03  0.78670484230E+03  0.79424018241E+03  0.00000000000E+00 0. -1.
</event>
<event>
 7    1  0.4915160E-006  0.1527473E+03  0.7818608E-02  0.1308029E+00
          2   -1    0    0  502    0  0.00000000000E+00  0.00000000000E+00  0.16655234401E+04  0.16655234401E+04  0.00000000000E+00 0. -1.
          1   -1    0    0  501    0 -0.00000000000E+00 -0.00000000000E+00 -0.51252285763E+03  0.51252285763E+03  0.00000000000E+00 0. -1.
         25    2    1    2    0    0 -0.11075968829E+03  0.51854382383E+02 -0.33974469113E+02  0.17814327521E+03  0.12499670566E+03 0.  0.
          2    1    1    2  501    0  0.12459081643E+03 -0.10050449784E+03 -0.39028255469E+03  0.42183468103E+03  0.00000000000E+00 0. -1.
          1    1    1    2  502    0 -0.13831128136E+02  0.48650115460E+02  0.15772576063E+04  0.15780683415E+04  0.00000000000E+00 0. -1.
         22    1    3    3    0    0 -0.67484568445E+02  0.84520640769E+02 -0.53306562542E+02  0.12057982959E+03  0.00000000000E+00 0. -1.
         22    1    3    3    0    0 -0.43275119846E+02 -0.32666258387E+02  0.19332093429E+02  0.57563445615E+02  0.00000000000E+00 0. -1.
</event>
<event>
 7    1  0.4915160E-006  0.5194646E+02  0.7818608E-02  0.1483196E+00
          2   -1    0    0  502    0  0.00000000000E+00  0.00000000000E+00  0.11703682611E+04  0.11703682611E+04  0.00000000000E+00 0. -1.
          1   -1    0    0  501    0 -0.00000000000E+00 -0.00000000000E+00 -0.49331025138E+02  0.49331025138E+02  0.00000000000E+00 0. -1.
         25    2    1    2    0    0 -0.79416403578E+02 -0.17789983829E+02  0.60642544899E+03  0.62450022314E+03  0.12500101934E+03 0.  0.
          2    1    1    2  501    0  0.43861067772E+02  0.26535947747E+02 -0.23110167188E+02  0.56231927020E+02  0.00000000000E+00 0. -1.
          1    1    1    2  502    0  0.35555335806E+02 -0.87459639177E+01  0.53772195415E+03  0.53896713607E+03  0.00000000000E+00 0. -1.
         22    1    3    3    0    0 -0.68414349382E+02  0.44999949174E+01  0.12611584179E+03  0.14354782724E+03  0.00000000000E+00 0.  1.
         22    1    3    3    0    0 -0.11002054196E+02 -0.22289978746E+02  0.48030960720E+03  0.48095239590E+03  0.00000000000E+00 0.  1.
</event>
<event>
 7    1  0.4915160E-006  0.6106375E+02  0.7818608E-02  0.1510122E+00
          2   -1    0    0  502    0  0.00000000000E+00  0.00000000000E+00  0.14825060644E+04  0.14825060644E+04  0.00000000000E+00 0. -1.
          1   -1    0    0  501    0 -0.00000000000E+00 -0.00000000000E+00 -0.87645520707E+02  0.87645520707E+02  0.00000000000E+00 0. -1.
         25    2    1    2    0    0  0.28632973223E+02 -0.36215954544E+02  0.45262874759E+02  0.14073260094E+03  0.12500197845E+03 0.  0.
          2    1    1    2  501    0  0.25027501765E+02  0.65271345386E+01 -0.34968941454E+02  0.43494898508E+02  0.00000000000E+00 0. -1.
          1    1    1    2  502    0 -0.53660474988E+02  0.29688820006E+02  0.13845666103E+04  0.13859240856E+04  0.00000000000E+00 0. -1.
         22    1    3    3    0    0 -0.46660400192E+02  0.55349236787E+01  0.19428202053E+02  0.50845681834E+02  0.00000000000E+00 0.  1.
         22    1    3    3    0    0  0.75293373415E+02 -0.41750878223E+02  0.25834672706E+02  0.89886919106E+02  0.00000000000E+00 0.  1.
</event>
<event>
 7    1  0.4915160E-006  0.1510850E+03  0.7818608E-02  0.1230067E+00
          2   -1    0    0  502    0  0.00000000000E+00  0.00000000000E+00  0.34386982632E+03  0.34386982632E+03  0.00000000000E+00 0. -1.
          1   -1    0    0  501    0 -0.00000000000E+00 -0.00000000000E+00 -0.10653482059E+04  0.10653482059E+04  0.00000000000E+00 0. -1.
         25    2    1    2    0    0 -0.10242040796E+03  0.83644288991E+02 -0.67406192991E+03  0.69819155631E+03  0.12500262756E+03 0.  0.
          2    1    1    2  501    0  0.89094976595E+02 -0.19170165927E+03 -0.33915057775E+03  0.39963803049E+03  0.00000000000E+00 0. -1.
          1    1    1    2  502    0  0.13325431366E+02  0.10805737028E+03  0.29173412814E+03  0.31138844537E+03  0.00000000000E+00 0. -1.
         22    1    3    3    0    0 -0.91338302487E+02  0.37519790498E+02 -0.21391260993E+03  0.23560353322E+03  0.00000000000E+00 0. -1.
         22    1    3    3    0    0 -0.11082105474E+02  0.46124498493E+02 -0.46014931999E+03  0.46258802309E+03  0.00000000000E+00 0. -1.
</event>
<event>
 7    1  0.4915160E-006  0.1904974E+03  0.7818608E-02  0.1250593E+00
          2   -1    0    0  502    0  0.00000000000E+00  0.00000000000E+00  0.93897272967E+03  0.93897272967E+03  0.00000000000E+00 0. -1.
          1   -1    0    0  501    0 -0.00000000000E+00 -0.00000000000E+00 -0.80843892320E+03  0.80843892320E+03  0.00000000000E+00 0. -1.
         25    2    1    2    0    0 -0.24354459917E+03 -0.79370300644E+02  0.11426014243E+03  0.30707321854E+03  0.12499985993E+03 0.  0.
          2    1    1    2  501    0  0.17481950373E+03  0.65501029305E+02 -0.69804972146E+03  0.72258263012E+03  0.00000000000E+00 0. -1.
          1    1    1    2  502    0  0.68725095442E+02  0.13869271339E+02  0.71432338549E+03  0.71775580422E+03  0.00000000000E+00 0. -1.
         22    1    3    3    0    0 -0.16675630308E+03  0.69525752532E+01  0.47024309135E+02  0.17339921732E+03  0.00000000000E+00 0. -1.
         22    1    3    3    0    0 -0.76788296095E+02 -0.86322875898E+02  0.67235833299E+02  0.13367400121E+03  0.00000000000E+00 0. -1.
</event>
<event>
 7    1  0.4915160E-006  0.8849191E+02  0.7818608E-02  0.1341296E+00
          2   -1    0    0  502    0  0.00000000000E+00  0.00000000000E+00  0.24915207704E+04  0.24915207704E+04  0.00000000000E+00 0. -1.
          1   -1    0    0  501    0 -0.00000000000E+00 -0.00000000000E+00 -0.48634098291E+02  0.48634098291E+02  0.00000000000E+00 0. -1.
         25    2    1    2    0    0  0.11856146392E+03  0.87149917800E+02  0.73431854782E+03  0.75928013693E+03  0.12502266901E+03 0.  0.
          2    1    1    2  501    0 -0.58062374248E+02 -0.29204626473E+02 -0.50693415036E+01  0.65190856215E+02  0.00000000000E+00 0. -1.
          1    1    1    2  502    0 -0.60499089672E+02 -0.57945291327E+02  0.17136374658E+04  0.17156838756E+04  0.00000000000E+00 0. -1.
         22    1    3    3    0    0  0.81359321330E+02  0.79779527474E+02  0.26536120060E+03  0.28879175707E+03  0.00000000000E+00 0.  1.
         22    1    3    3    0    0  0.37202142590E+02  0.73703903256E+01  0.46895734723E+03  0.47048837986E+03  0.00000000000E+00 0.  1.
</event>
<event>
 7    1  0.4915160E-006  0.1071882E+03  0.7818608E-02  0.1417458E+00
          2   -1    0    0  502    0  0.00000000000E+00  0.00000000000E+00  0.11087785909E+04  0.11087785909E+04  0.00000000000E+00 0. -1.
          1   -1    0    0  501    0 -0.00000000000E+00 -0.00000000000E+00 -0.74645382010E+03  0.74645382010E+03  0.00000000000E+00 0. -1.
         25    2    1    2    0    0 -0.76369539063E+02 -0.48799731579E+02 -0.52586592021E+02  0.16310989850E+03  0.12500307608E+03 0.  0.
          2    1    1    2  501    0  0.10243326997E+03  0.36543734335E+02 -0.63377601556E+03  0.64303970112E+03  0.00000000000E+00 0. -1.
          1    1    1    2  502    0 -0.26063730903E+02  0.12255997244E+02  0.10486873784E+04  0.10490828114E+04  0.00000000000E+00 0. -1.
         22    1    3    3    0    0 -0.53153091212E+02  0.37484772414E+02 -0.21451099446E+02  0.68487290323E+02  0.00000000000E+00 0. -1.
         22    1    3    3    0    0 -0.23216447851E+02 -0.86284503993E+02 -0.31135492575E+02  0.94622608176E+02  0.00000000000E+00 0. -1.
</event>
<event>
 7    1  0.4915160E-006  0.1365765E+03  0.7818608E-02  0.1378903E+00
          2   -1    0    0  502    0  0.00000000000E+00  0.00000000000E+00  0.86407264846E+03  0.86407264846E+03  0.00000000000E+00 0. -1.
          1   -1    0    0  501    0 -0.00000000000E+00 -0.00000000000E+00 -0.10489468897E+03  0.10489468897E+03  0.00000000000E+00 0. -1.
         25    2    1    2    0    0  0.12205982909E+03  0.28014445467E+02  0.47822870214E+02  0.18329109636E+03  0.12500075222E+03 0.  0.
          2    1    1    2  501    0 -0.14442269715E+03 -0.49047951337E+02  0.12144532678E+03  0.19496816248E+03  0.00000000000E+00 0. -1.
          1    1    1    2  502    0  0.22362868058E+02  0.21033505869E+02  0.58990976249E+03  0.59070807860E+03  0.00000000000E+00 0. -1.
         22    1    3    3    0    0  0.16684593873E+02  0.57456611524E+02  0.43174618485E+02  0.73781336135E+02  0.00000000000E+00 0. -1.
         22    1    3    3    0    0  0.10537523522E+03 -0.29442166057E+02  0.46482517289E+01  0.10950976022E+03  0.00000000000E+00 0. -1.
</event>
<event>
 7    1  0.4915160E-006  0.5990088E+02  0.7818608E-02  0.1523412E+00
          2   -1    0    0  502    0  0.00000000000E+00  0.00000000000E+00  0.14883583416E+04  0.14883583416E+04  0.00000000000E+00 0. -1.
          1   -1    0    0  501    0 -0.00000000000E+00 -0.00000000000E+00 -0.28653785691E+04  0.28653785691E+04  0.00000000000E+00 0. -1.
         25    2    1    2    0    0 -0.47654502106E+02  0.59273428824E+02  0.20439122418E+03  0.25135403575E+03  0.12497514886E+03 0.  0.
          2    1    1    2  501    0  0.48464761867E+02 -0.35171665008E+02 -0.28414663313E+04  0.28420972522E+04  0.00000000000E+00 0. -1.
          1    1    1    2  502    0 -0.81025976111E+00 -0.24101763816E+02  0.12600548795E+04  0.12602856228E+04  0.00000000000E+00 0. -1.
         22    1    3    3    0    0 -0.69569054866E+02  0.19037608893E+02  0.19015813562E+03  0.20337748275E+03  0.00000000000E+00 0. -1.
         22    1    3    3    0    0  0.21914552760E+02  0.40235819930E+02  0.14233088556E+02  0.47976553002E+02  0.00000000000E+00 0. -1.
</event>
<event>
 7    1  0.5407030E-006  0.4508663E+02  0.7818608E-02  0.1534578E+00
          2   -1    0    0  502    0  0.00000000000E+00  0.00000000000E+00  0.12063648623E+04  0.12063648623E+04  0.00000000000E+00 0. -1.
          1   -1    0    0  501    0 -0.00000000000E+00 -0.00000000000E+00 -0.67001230111E+03  0.67001230111E+03  0.00000000000E+00 0. -1.
         25    2    1    2    0    0 -0.71820447279E+02  0.20454663301E+02 -0.32284311222E+02  0.14911616544E+03  0.12496713226E+03 0.  0.
          2    1    1    2  501    0  0.28334337976E+02 -0.91036284045E+01 -0.57848950978E+03  0.57925454136E+03  0.00000000000E+00 0. -1.
          1    1    1    2  502    0  0.43486109303E+02 -0.11351034897E+02  0.11471263822E+04  0.11480064566E+04  0.00000000000E+00 0. -1.
         22    1    3    3    0    0 -0.41426309671E+01 -0.36331423070E+02 -0.47004118754E+02  0.59552673101E+02  0.00000000000E+00 0. -1.
         22    1    3    3    0    0 -0.67677816312E+02  0.56786086371E+02  0.14719807532E+02  0.89563492338E+02  0.00000000000E+00 0. -1.
</event>
<event>
 7    1  0.4915160E-006  0.1274566E+03  0.7818608E-02  0.1272689E+00
          2   -1    0    0  502    0  0.00000000000E+00  0.00000000000E+00  0.31170725771E+04  0.31170725771E+04  0.00000000000E+00 0. -1.
          1   -1    0    0  501    0 -0.00000000000E+00 -0.00000000000E+00 -0.12153070995E+03  0.12153070995E+03  0.00000000000E+00 0. -1.
         25    2    1    2    0    0  0.31005420802E+02  0.76170566115E+02  0.61089082976E+03  0.62894870061E+03  0.12500228335E+03 0.  0.
          2    1    1    2  501    0 -0.11454570593E+03 -0.64279768553E+02 -0.73190878155E+02  0.15036459702E+03  0.00000000000E+00 0. -1.
          1    1    1    2  502    0  0.83540285133E+02 -0.11890797562E+02  0.24578419155E+04  0.24592899894E+04  0.00000000000E+00 0. -1.
         22    1    3    3    0    0  0.46582679533E+02  0.65432683512E+02  0.17395053280E+03  0.19159898216E+03  0.00000000000E+00 0. -1.
         22    1    3    3    0    0 -0.15577258731E+02  0.10737882603E+02  0.43694029696E+03  0.43734971844E+03  0.00000000000E+00 0. -1.
</event>
<event>
 7    1  0.4915160E-006  0.2050093E+03  0.7818608E-02  0.1297942E+00
          2   -1    0    0  502    0  0.00000000000E+00  0.00000000000E+00  0.87807367757E+03  0.87807367757E+03  0.00000000000E+00 0. -1.
          1   -1    0    0  501    0 -0.00000000000E+00 -0.00000000000E+00 -0.16841305564E+03  0.16841305564E+03  0.00000000000E+00 0. -1.
         25    2    1    2    0    0 -0.10553040044E+03 -0.20792874862E+03  0.32864634371E+03  0.42191278093E+03  0.12502377997E+03 0.  0.
          2    1    1    2  501    0  0.28090858990E+02  0.30327599212E+02 -0.98809941641E+02  0.10710865605E+03  0.00000000000E+00 0. -1.
          1    1    1    2  502    0  0.77439541445E+02  0.17760114941E+03  0.47982421985E+03  0.51746529623E+03  0.00000000000E+00 0. -1.
         22    1    3    3    0    0  0.92481251937E+01 -0.66287291616E+02  0.33115317856E+02  0.74673670903E+02  0.00000000000E+00 0.  1.
         22    1    3    3    0    0 -0.11477852563E+03 -0.14164145700E+03  0.29553102586E+03  0.34723911003E+03  0.00000000000E+00 0.  1.
</event>
<event>
 7    1  0.4915160E-006  0.7712223E+02  0.7818608E-02  0.1393986E+00
          2   -1    0    0  502    0  0.00000000000E+00  0.00000000000E+00  0.52313668797E+03  0.52313668797E+03  0.00000000000E+00 0. -1.
          1   -1    0    0  501    0 -0.00000000000E+00 -0.00000000000E+00 -0.41156904100E+03  0.41156904100E+03  0.00000000000E+00 0. -1.
         25    2    1    2    0    0  0.44493267324E+02  0.67782679355E+02 -0.11298832062E+03  0.18699250857E+03  0.12500278080E+03 0.  0.
          2    1    1    2  501    0  0.27493672017E+02 -0.39505783460E+02 -0.25624769150E+03  0.26072876390E+03  0.00000000000E+00 0. -1.
          1    1    1    2  502    0 -0.71986939342E+02 -0.28276895894E+02  0.48080365909E+03  0.48698445650E+03  0.00000000000E+00 0. -1.
         22    1    3    3    0    0  0.33819322428E+02  0.69400629495E+02 -0.38253591002E+01  0.77297007161E+02  0.00000000000E+00 0.  1.
         22    1    3    3    0    0  0.10673944897E+02 -0.16179501407E+01 -0.10916296152E+03  0.10969550141E+03  0.00000000000E+00 0.  1.
</event>
<event>
 7    1  0.4915160E-006  0.8065710E+02  0.7818608E-02  0.1348597E+00
          2   -1    0    0  502    0  0.00000000000E+00  0.00000000000E+00  0.21934997584E+03  0.21934997584E+03  0.00000000000E+00 0. -1.
          1   -1    0    0  501    0 -0.00000000000E+00 -0.00000000000E+00 -0.16723047176E+03  0.16723047176E+03  0.00000000000E+00 0. -1.
         25    2    1    2    0    0  0.33516610568E+01 -0.77104855957E+02 -0.45563100182E+02  0.15381030632E+03  0.12500088714E+03 0.  0.
          2    1    1    2  501    0  0.62275640495E+02  0.24627711714E+02 -0.35118147483E+02  0.75617880597E+02  0.00000000000E+00 0. -1.
          1    1    1    2  502    0 -0.65627301551E+02  0.52477144242E+02  0.13280075174E+03  0.15715226069E+03  0.00000000000E+00 0. -1.
         22    1    3    3    0    0 -0.43369723376E+02 -0.69458982561E+02 -0.63042925085E+02  0.10334357052E+03  0.00000000000E+00 0.  1.
         22    1    3    3    0    0  0.46721384433E+02 -0.76458733957E+01  0.17479824903E+02  0.50466735797E+02  0.00000000000E+00 0.  1.
</event>
<event>
 7    1  0.4915160E-006  0.1301061E+03  0.7818608E-02  0.1329287E+00
          2   -1    0    0  502    0  0.00000000000E+00  0.00000000000E+00  0.18231743764E+04  0.18231743764E+04  0.00000000000E+00 0. -1.
          1   -1    0    0  501    0 -0.00000000000E+00 -0.00000000000E+00 -0.12126837640E+04  0.12126837640E+04  0.00000000000E+00 0. -1.
         25    2    1    2    0    0 -0.45876127871E+02  0.89340525089E+02  0.34998593870E+03  0.38496034612E+03  0.12497184589E+03 0.  0.
          2    1    1    2  501    0  0.17350543059E+02 -0.12929023665E+03 -0.11912210155E+04  0.11983424028E+04  0.00000000000E+00 0. -1.
          1    1    1    2  502    0  0.28525584812E+02  0.39949711561E+02  0.14517256893E+04  0.14525553915E+04  0.00000000000E+00 0. -1.
         22    1    3    3    0    0 -0.48515282703E+01  0.59054158524E+02  0.41627332519E+02  0.72413850735E+02  0.00000000000E+00 0. -1.
         22    1    3    3    0    0 -0.41024599601E+02  0.30286366564E+02  0.30835860618E+03  0.31254649538E+03  0.00000000000E+00 0. -1.
</event>
<event>
 7    1  0.4915160E-006  0.1250698E+03  0.7818608E-02  0.1254705E+00
          2   -1    0    0  502    0  0.00000000000E+00  0.00000000000E+00  0.50293736084E+03  0.50293736084E+03  0.00000000000E+00 0. -1.
          1   -1    0    0  501    0 -0.00000000000E+00 -0.00000000000E+00 -0.83144339098E+03  0.83144339098E+03  0.00000000000E+00 0. -1.
         25    2    1    2    0    0  0.33089323505E+02  0.86363153698E+02  0.22059107604E+03  0.26987892220E+03  0.12498284751E+03 0.  0.
          2    1    1    2  501    0 -0.12163058003E+03 -0.34705852317E+02 -0.79138078793E+03  0.80142500940E+03  0.00000000000E+00 0. -1.
          1    1    1    2  502    0  0.88541256530E+02 -0.51657301382E+02  0.24228368175E+03  0.26307682022E+03  0.00000000000E+00 0. -1.
         22    1    3    3    0    0  0.89348230708E+01  0.11429730908E+03  0.19007246054E+03  0.22197127333E+03  0.00000000000E+00 0.  1.
         22    1    3    3    0    0  0.24154500434E+02 -0.27934155385E+02  0.30518615501E+02  0.47907648871E+02  0.00000000000E+00 0.  1.
</event>
<event>
 7    1  0.4915160E-006  0.8188291E+02  0.7818608E-02  0.1445964E+00
          2   -1    0    0  502    0  0.00000000000E+00  0.00000000000E+00  0.29280885583E+02  0.29280885583E+02  0.00000000000E+00 0. -1.
          1   -1    0    0  501    0 -0.00000000000E+00 -0.00000000000E+00 -0.12078053749E+04  0.12078053749E+04  0.00000000000E+00 0. -1.
         25    2    1    2    0    0 -0.71448197342E+02 -0.74502756913E+02 -0.59575671724E+03  0.61741953042E+03  0.12500121887E+03 0.  0.
          2    1    1    2  501    0  0.29454593305E+02  0.74857888358E+01 -0.51389967142E+03  0.51479751591E+03  0.00000000000E+00 0. -1.
          1    1    1    2  502    0  0.41993604036E+02  0.67016968077E+02 -0.68868100683E+02  0.10486921418E+03  0.00000000000E+00 0. -1.
         22    1    3    3    0    0  0.34713613240E+01 -0.74615558213E+02 -0.17864003404E+03  0.19362797742E+03  0.00000000000E+00 0. -1.
         22    1    3    3    0    0 -0.74919558666E+02  0.11280129981E+00 -0.41711668320E+03  0.42379155300E+03  0.00000000000E+00 0. -1.
</event>
<event>
 7    1  0.5499580E-006  0.8498400E+02  0.7818608E-02  0.1341717E+00
          2   -1    0    0  502    0  0.00000000000E+00  0.00000000000E+00  0.69575379670E+03  0.69575379670E+03  0.00000000000E+00 0. -1.
          1   -1    0    0  501    0 -0.00000000000E+00 -0.00000000000E+00 -0.16650613780E+04  0.16650613780E+04  0.00000000000E+00 0. -1.
         25    2    1    2    0    0 -0.30338696449E+02  0.14735466011E+02 -0.26522501841E+03  0.29513819217E+03  0.12499868651E+03 0.  0.
          2    1    1    2  501    0  0.40045298637E+02 -0.81463314683E+02 -0.13817171686E+04  0.13846957180E+04  0.00000000000E+00 0. -1.
          1    1    1    2  502    0 -0.97066021882E+01  0.66727848672E+02  0.67763460564E+03  0.68098126455E+03  0.00000000000E+00 0. -1.
         22    1    3    3    0    0 -0.34403752569E+02  0.66662579765E+02 -0.18331145303E+03  0.19806717684E+03  0.00000000000E+00 0.  1.
         22    1    3    3    0    0  0.40650561204E+01 -0.51927113754E+02 -0.81913565380E+02  0.97071015331E+02  0.00000000000E+00 0.  1.
</event>
<event>
 7    1  0.4915160E-006  0.1708169E+03  0.7818608E-02  0.1300952E+00
          2   -1    0    0  502    0  0.00000000000E+00  0.00000000000E+00  0.17936736794E+04  0.17936736794E+04  0.00000000000E+00 0. -1.
          1   -1    0    0  501    0 -0.00000000000E+00 -0.00000000000E+00 -0.13820493468E+04  0.13820493468E+04  0.00000000000E+00 0. -1.
         25    2    1    2    0    0  0.19966361632E+03 -0.87257435357E+02 -0.10933034499E+03  0.27396497050E+03  0.12499704403E+03 0.  0.
          2    1    1    2  501    0 -0.45413705757E+02  0.16312355257E+02 -0.11856987072E+04  0.11866802104E+04  0.00000000000E+00 0. -1.
          1    1    1    2  502    0 -0.15424991056E+03  0.70945080101E+02  0.17066533848E+04  0.17150778452E+04  0.00000000000E+00 0. -1.
         22    1    3    3    0    0  0.31750949644E+02 -0.74577096781E+02 -0.20620267724E+02  0.83636484913E+02  0.00000000000E+00 0.  1.
         22    1    3    3    0    0  0.16791266667E+03 -0.12680338577E+02 -0.88710077265E+02  0.19032848558E+03  0.00000000000E+00 0.  1.
</event>
<event>
 7    1  0.4915160E-006  0.1140735E+03  0.7818608E-02  0.1272541E+00
          2   -1    0    0  502    0  0.00000000000E+00  0.00000000000E+00  0.24183125101E+04  0.24183125101E+04  0.00000000000E+00 0. -1.
          1   -1    0    0  501    0 -0.00000000000E+00 -0.00000000000E+00 -0.96930900198E+02  0.96930900198E+02  0.00000000000E+00 0. -1.
         25    2    1    2    0    0  0.93211575660E+02  0.19820545270E+02  0.81800366154E+02  0.17719250313E+03  0.12499852563E+03 0.  0.
          2    1    1    2  501    0 -0.70307286967E+02  0.91929856773E+02  0.22330905989E+02  0.11786807256E+03  0.00000000000E+00 0. -1.
          1    1    1    2  502    0 -0.22904288693E+02 -0.11175040204E+03  0.22172503378E+04  0.22201828346E+04  0.00000000000E+00 0. -1.
         22    1    3    3    0    0  0.25342305655E+02  0.43130155675E+02 -0.18954332484E+02  0.53494948400E+02  0.00000000000E+00 0.  1.
         22    1    3    3    0    0  0.67869270005E+02 -0.23309610405E+02  0.10075469864E+03  0.12369755473E+03  0.00000000000E+00 0.  1.
</event>
<event>
 7    1  0.4915160E-006  0.7153581E+02  0.7818608E-02  0.1431916E+00
          2   -1    0    0  502    0  0.00000000000E+00  0.00000000000E+00  0.21624297029E+04  0.21624297029E+04  0.00000000000E+00 0. -1.
          1   -1    0    0  501    0 -0.00000000000E+00 -0.00000000000E+00 -0.64970002949E+03  0.64970002949E+03  0.00000000000E+00 0. -1.
         25    2    1    2    0    0 -0.80828191720E+02 -0.72509120796E+02  0.39040698539E+03  0.42406690873E+03  0.12499743861E+03 0.  0.
          2    1    1    2  501    0  0.29871310080E+02  0.24515242801E+02 -0.63158136114E+03  0.63276244203E+03  0.00000000000E+00 0. -1.
          1    1    1    2  502    0  0.50956881640E+02  0.47993877995E+02  0.17539040492E+04  0.17553003816E+04  0.00000000000E+00 0. -1.
         22    1    3    3    0    0  0.15947457779E+02  0.45958142813E+01  0.23524951560E+01  0.16762373101E+02  0.00000000000E+00 0. -1.
         22    1    3    3    0    0 -0.96775649499E+02 -0.77104935077E+02  0.38805449024E+03  0.40730453563E+03  0.00000000000E+00 0. -1.
</event>
<event>
 7    1  0.4915160E-006  0.6552218E+02  0.7818608E-02  0.1398215E+00
          2   -1    0    0  502    0  0.00000000000E+00  0.00000000000E+00  0.47267726673E+04  0.47267726673E+04  0.00000000000E+00 0. -1.
          1   -1    0    0  501    0 -0.00000000000E+00 -0.00000000000E+00 -0.75790612283E+03  0.75790612283E+03  0.00000000000E+00 0. -1.
         25    2    1    2    0    0  0.10603614317E+02 -0.51839914863E+02  0.19134951328E+03  0.23460497029E+03  0.12500016977E+03 0.  0.
          2    1    1    2  501    0 -0.54700922024E+02  0.28684542845E+01 -0.73501870035E+03  0.73705692370E+03  0.00000000000E+00 0. -1.
          1    1    1    2  502    0  0.44097307708E+02  0.48971460579E+02  0.45125357315E+04  0.45130168961E+04  0.00000000000E+00 0. -1.
         22    1    3    3    0    0 -0.23929636203E+02  0.34835432051E+02  0.54243758029E+02  0.68764235618E+02  0.00000000000E+00 0.  1.
         22    1    3    3    0    0  0.34533250520E+02 -0.86675346914E+02  0.13710575525E+03  0.16584073468E+03  0.00000000000E+00 0.  1.
</event>
<event>
 7    1  0.4915160E-006  0.5999292E+02  0.7818608E-02  0.1461443E+00
          2   -1    0    0  502    0  0.00000000000E+00  0.00000000000E+00  0.43803044029E+02  0.43803044029E+02  0.00000000000E+00 0. -1.
          1   -1    0    0  501    0 -0.00000000000E+00 -0.00000000000E+00 -0.16363788976E+04  0.16363788976E+04  0.00000000000E+00 0. -1.
         25    2    1    2    0    0 -0.92591483469E+02  0.22708245302E+02 -0.57859229177E+03  0.59956894358E+03  0.12500012314E+03 0.  0.
          2    1    1    2  501    0  0.35285449243E+02 -0.11235956414E+02 -0.10210705003E+04  0.10217417855E+04  0.00000000000E+00 0. -1.
          1    1    1    2  502    0  0.57306034226E+02 -0.11472288888E+02  0.70869384993E+01  0.58871212561E+02  0.00000000000E+00 0. -1.
         22    1    3    3    0    0 -0.54642838977E+02 -0.88478552294E+01 -0.73204896389E+02  0.91777346056E+02  0.00000000000E+00 0. -1.
         22    1    3    3    0    0 -0.37948644492E+02  0.31556100531E+02 -0.50538739538E+03  0.50779159752E+03  0.00000000000E+00 0. -1.
</event>
<event>
 7    1  0.4915160E-006  0.6810596E+02  0.7818608E-02  0.1512648E+00
          2   -1    0    0  502    0  0.00000000000E+00  0.00000000000E+00  0.34189398619E+03  0.34189398619E+03  0.00000000000E+00 0. -1.
          1   -1    0    0  501    0 -0.00000000000E+00 -0.00000000000E+00 -0.86017138679E+03  0.86017138679E+03  0.00000000000E+00 0. -1.
         25    2    1    2    0    0  0.38786932984E+02 -0.65917399650E+02  0.52196718839E+02  0.15556078947E+03  0.12500052806E+03 0.  0.
          2    1    1    2  501    0 -0.22796089355E+02  0.23370684532E+00 -0.80352425208E+03  0.80384758505E+03  0.00000000000E+00 0. -1.
          1    1    1    2  502    0 -0.15990843630E+02  0.65683692804E+02  0.23305013264E+03  0.24265699846E+03  0.00000000000E+00 0. -1.
         22    1    3    3    0    0  0.59089927750E+02  0.13700905013E+02  0.39587364199E+02  0.72432684362E+02  0.00000000000E+00 0. -1.
         22    1    3    3    0    0 -0.20302994765E+02 -0.79618304662E+02  0.12609354641E+02  0.83128105104E+02  0.00000000000E+00 0. -1.
</event>
<event>
 7    1  0.4915160E-006  0.8475370E+02  0.7818608E-02  0.1341264E+00
          2   -1    0    0  502    0  0.00000000000E+00  0.00000000000E+00  0.12192623428E+04  0.12192623428E+04  0.00000000000E+00 0. -1.
          1   -1    0    0  501    0 -0.00000000000E+00 -0.00000000000E+00 -0.14294967141E+03  0.14294967141E+03  0.00000000000E+00 0. -1.
         25    2    1    2    0    0 -0.21772953585E+02 -0.11934787426E+02  0.63743383125E+03  0.65004991983E+03  0.12500603339E+03 0.  0.
          2    1    1    2  501    0  0.85307549473E+02 -0.11958055030E+02 -0.12080788010E+03  0.14837424632E+03  0.00000000000E+00 0. -1.
          1    1    1    2  502    0 -0.63534595888E+02  0.23892842456E+02  0.55968672027E+03  0.56378784808E+03  0.00000000000E+00 0. -1.
         22    1    3    3    0    0 -0.68232091265E+02 -0.33477757337E+02  0.39994120057E+03  0.40709868881E+03  0.00000000000E+00 0.  1.
         22    1    3    3    0    0  0.46459137679E+02  0.21542969911E+02  0.23749263068E+03  0.24295123102E+03  0.00000000000E+00 0.  1.
</event>
<event>
 7    1  0.4915160E-006  0.9278066E+03  0.7818608E-02  0.1093089E+00
          2   -1    0    0  502    0  0.00000000000E+00  0.00000000000E+00  0.28320293092E+04  0.28320293092E+04  0.00000000000E+00 0. -1.
          1   -1    0    0  501    0 -0.00000000000E+00 -0.00000000000E+00 -0.23143773841E+04  0.23143773841E+04  0.00000000000E+00 0. -1.
         25    2    1    2    0    0 -0.31831591342E+03  0.86581491175E+03 -0.47240220597E+03  0.10439109922E+04  0.12500333338E+03 0.  0.
          2    1    1    2  501    0  0.81268008860E+02  0.32241062091E+02 -0.14701770732E+04  0.14727744573E+04  0.00000000000E+00 0. -1.
          1    1    1    2  502    0  0.23704790456E+03 -0.89805597384E+03  0.24602312043E+04  0.26297212437E+04  0.00000000000E+00 0. -1.
         22    1    3    3    0    0 -0.17280155873E+03  0.31862969435E+03 -0.21987801716E+03  0.42394764211E+03  0.00000000000E+00 0. -1.
         22    1    3    3    0    0 -0.14551435469E+03  0.54718521739E+03 -0.25252418881E+03  0.61996335012E+03  0.00000000000E+00 0. -1.
</event>
<event>
 7    1  0.4915160E-006  0.8784175E+02  0.7818608E-02  0.1365378E+00
          2   -1    0    0  502    0  0.00000000000E+00  0.00000000000E+00  0.14278586322E+04  0.14278586322E+04  0.00000000000E+00 0. -1.
          1   -1    0    0  501    0 -0.00000000000E+00 -0.00000000000E+00 -0.70591219060E+03  0.70591219060E+03  0.00000000000E+00 0. -1.
         25    2    1    2    0    0 -0.92326087505E+02  0.85474739154E+02  0.49565082659E+02  0.18415243442E+03  0.12500153685E+03 0.  0.
          2    1    1    2  501    0  0.52801037856E+02 -0.77629263107E+01 -0.63605021551E+03  0.63828527265E+03  0.00000000000E+00 0. -1.
          1    1    1    2  502    0  0.39525049649E+02 -0.77711812843E+02  0.13084315745E+04  0.13113331158E+04  0.00000000000E+00 0. -1.
         22    1    3    3    0    0 -0.88996447071E+02  0.31761478924E+02  0.78682681197E+02  0.12296391119E+03  0.00000000000E+00 0. -1.
         22    1    3    3    0    0 -0.33296404343E+01  0.53713260230E+02 -0.29117598538E+02  0.61188523226E+02  0.00000000000E+00 0. -1.
</event>
<event>
 7    1  0.4915160E-006  0.6669658E+02  0.7818608E-02  0.1476863E+00
          2   -1    0    0  502    0  0.00000000000E+00  0.00000000000E+00  0.19123640492E+04  0.19123640492E+04  0.00000000000E+00 0. -1.
          1   -1    0    0  501    0 -0.00000000000E+00 -0.00000000000E+00 -0.37454460507E+03  0.37454460507E+03  0.00000000000E+00 0. -1.
         25    2    1    2    0    0 -0.34405483782E+01  0.74062375059E+02  0.76857814032E+03  0.78219866307E+03  0.12500127181E+03 0.  0.
          2    1    1    2  501    0 -0.26030321157E+02 -0.14552617234E+02 -0.36615794299E+03  0.36737037919E+03  0.00000000000E+00 0. -1.
          1    1    1    2  502    0  0.29470869535E+02 -0.59509757825E+02  0.11353992468E+04  0.11373396120E+04  0.00000000000E+00 0. -1.
         22    1    3    3    0    0 -0.18858871053E+02  0.57112302092E+02  0.75077875899E+03  0.75318405255E+03  0.00000000000E+00 0.  1.
         22    1    3    3    0    0  0.15418322675E+02  0.16950072968E+02  0.17799381335E+02  0.29014610520E+02  0.00000000000E+00 0.  1.
</event>
<event>
 7    1  0.4915160E-006  0.8326900E+02  0.7818608E-02  0.1388772E+00
          2   -1    0    0  502    0  0.00000000000E+00  0.00000000000E+00  0.15322160171E+03  0.15322160171E+03  0.00000000000E+00 0. -1.
          1   -1    0    0  501    0 -0.00000000000E+00 -0.00000000000E+00 -0.62768220617E+03  0.62768220617E+03  0.00000000000E+00 0. -1.
         25    2    1    2    0    0  0.78122773935E+02 -0.59633139400E+02  0.49298797863E+02  0.16648190942E+03  0.12500630212E+03 0.  0.
          2    1    1    2  501    0 -0.34494884182E+02  0.75669086961E+02 -0.55319037699E+03  0.55940620389E+03  0.00000000000E+00 0. -1.
          1    1    1    2  502    0 -0.43627889753E+02 -0.16035947561E+02  0.29430974671E+02  0.55015694566E+02  0.00000000000E+00 0. -1.
         22    1    3    3    0    0  0.10958906851E+03 -0.62695317418E+02  0.31202158062E+02  0.13005399429E+03  0.00000000000E+00 0. -1.
         22    1    3    3    0    0 -0.31466294576E+02  0.30621780176E+01  0.18096639801E+02  0.36427915128E+02  0.00000000000E+00 0. -1.
</event>
<event>
 7    1  0.4915160E-006  0.1060068E+03  0.7818608E-02  0.1287318E+00
          2   -1    0    0  502    0  0.00000000000E+00  0.00000000000E+00  0.16972148971E+04  0.16972148971E+04  0.00000000000E+00 0. -1.
          1   -1    0    0  501    0 -0.00000000000E+00 -0.00000000000E+00 -0.52945500693E+03  0.52945500693E+03  0.00000000000E+00 0. -1.
         25    2    1    2    0    0 -0.15815701635E+02 -0.77481059103E+02  0.62943844042E+02  0.16074635746E+03  0.12499605192E+03 0.  0.
          2    1    1    2  501    0  0.88223402221E+02 -0.29397606215E+01 -0.47463302520E+03  0.48277170537E+03  0.00000000000E+00 0. -1.
          1    1    1    2  502    0 -0.72407700586E+02  0.80420819725E+02  0.15794490713E+04  0.15831518412E+04  0.00000000000E+00 0. -1.
         22    1    3    3    0    0 -0.39825246066E+02  0.21583415885E+02  0.26588261286E+02  0.52524562860E+02  0.00000000000E+00 0. -1.
         22    1    3    3    0    0  0.24009544430E+02 -0.99064474988E+02  0.36355582756E+02  0.10822179460E+03  0.00000000000E+00 0. -1.
</event>
<event>
 7    1  0.4915160E-006  0.3810390E+02  0.7818608E-02  0.1523961E+00
          2   -1    0    0  502    0  0.00000000000E+00  0.00000000000E+00  0.10180504493E+03  0.10180504493E+03  0.00000000000E+00 0. -1.
          1   -1    0    0  501    0 -0.00000000000E+00 -0.00000000000E+00 -0.54305279594E+03  0.54305279594E+03  0.00000000000E+00 0. -1.
         25    2    1    2    0    0  0.10145017301E+01 -0.59407215107E+00 -0.19656164332E+03  0.23293885828E+03  0.12499059939E+03 0.  0.
          2    1    1    2  501    0  0.36869661589E+02 -0.82073875823E+01 -0.32261766321E+03  0.32482131977E+03  0.00000000000E+00 0. -1.
          1    1    1    2  502    0 -0.37884163319E+02  0.88014597334E+01  0.77931555524E+02  0.87097662829E+02  0.00000000000E+00 0. -1.
         22    1    3    3    0    0 -0.18551063277E+02  0.54580795884E+02 -0.14057204491E+03  0.15193322559E+03  0.00000000000E+00 0. -1.
         22    1    3    3    0    0  0.19565565007E+02 -0.55174868035E+02 -0.55989598411E+02  0.81005632686E+02  0.00000000000E+00 0. -1.
</event>
<event>
 7    1  0.4915160E-006  0.1363408E+03  0.7818608E-02  0.1284523E+00
          2   -1    0    0  502    0  0.00000000000E+00  0.00000000000E+00  0.29397743885E+04  0.29397743885E+04  0.00000000000E+00 0. -1.
          1   -1    0    0  501    0 -0.00000000000E+00 -0.00000000000E+00 -0.10082738339E+03  0.10082738339E+03  0.00000000000E+00 0. -1.
         25    2    1    2    0    0  0.33461943778E+02 -0.75156961083E+02  0.13791552069E+04  0.13872496341E+04  0.12499676917E+03 0.  0.
          2    1    1    2  501    0 -0.10119026677E+03  0.94603293537E+02 -0.45961429351E+02  0.14595104051E+03  0.00000000000E+00 0. -1.
          1    1    1    2  502    0  0.67728322997E+02 -0.19446332454E+02  0.15057532276E+04  0.15074010973E+04  0.00000000000E+00 0. -1.
         22    1    3    3    0    0  0.14138203304E+02 -0.68727879826E+02  0.30762156484E+03  0.31552248321E+03  0.00000000000E+00 0.  1.
         22    1    3    3    0    0  0.19323740474E+02 -0.64290812570E+01  0.10715336420E+04  0.10717271509E+04  0.00000000000E+00 0.  1.
</event>
<event>
 7    1  0.4915160E-006  0.1752624E+03  0.7818608E-02  0.1248157E+00
          2   -1    0    0  502    0  0.00000000000E+00  0.00000000000E+00  0.61242352828E+03  0.61242352828E+03  0.00000000000E+00 0. -1.
          1   -1    0    0  501    0 -0.00000000000E+00 -0.00000000000E+00 -0.11049915412E+03  0.11049915412E+03  0.00000000000E+00 0. -1.
         25    2    1    2    0    0  0.51409975318E+02  0.12163681364E+03  0.11961728393E+03  0.21765496035E+03  0.12500754840E+03 0.  0.
          2    1    1    2  501    0 -0.22756863719E+02  0.74694680929E+02  0.41195924054E+01  0.78192974410E+02  0.00000000000E+00 0. -1.
          1    1    1    2  502    0 -0.28653111599E+02 -0.19633149457E+03  0.37818749782E+03  0.42707474764E+03  0.00000000000E+00 0. -1.
         22    1    3    3    0    0 -0.84502651891E+01 -0.53701622906E+01 -0.18288884809E+02  0.20850154252E+02  0.00000000000E+00 0.  1.
         22    1    3    3    0    0  0.59860240507E+02  0.12700697593E+03  0.13790616874E+03  0.19680480610E+03  0.00000000000E+00 0.  1.
</event>
<event>
 7    1  0.4915160E-006  0.4818411E+02  0.7818608E-02  0.1535353E+00
          2   -1    0    0  502    0  0.00000000000E+00  0.00000000000E+00  0.15634805699E+04  0.15634805699E+04  0.00000000000E+00 0. -1.
          1   -1    0    0  501    0 -0.00000000000E+00 -0.00000000000E+00 -0.78540369297E+03  0.78540369297E+03  0.00000000000E+00 0. -1.
         25    2    1    2    0    0  0.58101181609E+00  0.67531365339E+02 -0.18661157344E+03  0.23451049393E+03  0.12494186464E+03 0.  0.
          2    1    1    2  501    0  0.16276690644E+02 -0.22421591537E+02 -0.57413191506E+03  0.57480006465E+03  0.00000000000E+00 0. -1.
          1    1    1    2  502    0 -0.16857702460E+02 -0.45109773802E+02  0.15388203654E+04  0.15395737043E+04  0.00000000000E+00 0. -1.
         22    1    3    3    0    0 -0.27595849253E+02 -0.28648208101E+02 -0.36303461666E+02  0.53853431203E+02  0.00000000000E+00 0. -1.
         22    1    3    3    0    0  0.28176861069E+02  0.96179573441E+02 -0.15030811178E+03  0.18065706273E+03  0.00000000000E+00 0. -1.
</event>
<event>
 7    1  0.4915160E-006  0.6206098E+02  0.7818608E-02  0.1481407E+00
          2   -1    0    0  502    0  0.00000000000E+00  0.00000000000E+00  0.20205747843E+03  0.20205747843E+03  0.00000000000E+00 0. -1.
          1   -1    0    0  501    0 -0.00000000000E+00 -0.00000000000E+00 -0.10226399744E+03  0.10226399744E+03  0.00000000000E+00 0. -1.
         25    2    1    2    0    0 -0.73067601636E+02 -0.17634474072E+02 -0.42393208811E+01  0.14592099946E+03  0.12500046863E+03 0.  0.
          2    1    1    2  501    0  0.24241971235E+02 -0.19379672261E+02 -0.67882988696E+01  0.31769889327E+02  0.00000000000E+00 0. -1.
          1    1    1    2  502    0  0.48825630401E+02  0.37014146333E+02  0.11082110074E+03  0.12663058707E+03  0.00000000000E+00 0. -1.
         22    1    3    3    0    0 -0.27339224707E+02 -0.31989475682E+02 -0.59432884297E+02  0.72821888865E+02  0.00000000000E+00 0.  1.
         22    1    3    3    0    0 -0.45728376929E+02  0.14355001610E+02  0.55193563416E+02  0.73099110599E+02  0.00000000000E+00 0.  1.
</event>
<event>
 7    1  0.4915160E-006  0.5712816E+02  0.7818608E-02  0.1434082E+00
          2   -1    0    0  502    0  0.00000000000E+00  0.00000000000E+00  0.12520706099E+03  0.12520706099E+03  0.00000000000E+00 0. -1.
          1   -1    0    0  501    0 -0.00000000000E+00 -0.00000000000E+00 -0.20783843557E+03  0.20783843557E+03  0.00000000000E+00 0. -1.
         25    2    1    2    0    0 -0.29494305069E+01  0.33921210807E+01 -0.75616281512E+02  0.14616203569E+03  0.12500125209E+03 0.  0.
          2    1    1    2  501    0  0.92473540900E+01 -0.60172067817E+02 -0.75960183105E+02  0.97345470980E+02  0.00000000000E+00 0. -1.
          1    1    1    2  502    0 -0.62979235831E+01  0.56779946736E+02  0.68945090041E+02  0.89537989890E+02  0.00000000000E+00 0. -1.
         22    1    3    3    0    0 -0.60008066593E+02 -0.16011528202E+02 -0.23232231047E+02  0.66310433953E+02  0.00000000000E+00 0.  1.
         22    1    3    3    0    0  0.57058636086E+02  0.19403649282E+02 -0.52384050465E+02  0.79851601741E+02  0.00000000000E+00 0.  1.
</event>
<event>
 7    1  0.4915160E-006  0.1185870E+03  0.7818608E-02  0.1329133E+00
          2   -1    0    0  502    0  0.00000000000E+00  0.00000000000E+00  0.21622446465E+03  0.21622446465E+03  0.00000000000E+00 0. -1.
          1   -1    0    0  501    0 -0.00000000000E+00 -0.00000000000E+00 -0.16593914044E+04  0.16593914044E+04  0.00000000000E+00 0. -1.
         25    2    1    2    0    0 -0.11714535090E+03  0.33307659975E+01 -0.34864289889E+03  0.38848009502E+03  0.12502314201E+03 0.  0.
          2    1    1    2  501    0  0.11854605745E+02  0.52611054614E+02 -0.12721018091E+04  0.12732444650E+04  0.00000000000E+00 0. -1.
          1    1    1    2  502    0  0.10529074515E+03 -0.55941820611E+02  0.17757776828E+03  0.21389130907E+03  0.00000000000E+00 0. -1.
         22    1    3    3    0    0 -0.78747919738E+02 -0.48723008404E+02 -0.12432329358E+03  0.15502079776E+03  0.00000000000E+00 0.  1.
         22    1    3    3    0    0 -0.38397431160E+02  0.52053774402E+02 -0.22431960531E+03  0.23345929726E+03  0.00000000000E+00 0.  1.
</event>
<event>
 7    1  0.4915160E-006  0.9891574E+02  0.7818608E-02  0.1314607E+00
          2   -1    0    0  502    0  0.00000000000E+00  0.00000000000E+00  0.43775342446E+03  0.43775342446E+03  0.00000000000E+00 0. -1.
          1   -1    0    0  501    0 -0.00000000000E+00 -0.00000000000E+00 -0.36603643842E+03  0.36603643842E+03  0.00000000000E+00 0. -1.
         25    2    1    2    0    0 -0.16836210011E+02  0.42110150975E+02 -0.64681815054E+02  0.14786952097E+03  0.12499974100E+03 0.  0.
          2    1    1    2  501    0  0.70026503125E+02 -0.92961073041E+02 -0.24300928416E+03  0.26944198713E+03  0.00000000000E+00 0. -1.
          1    1    1    2  502    0 -0.53190293114E+02  0.50850922066E+02  0.37940808525E+03  0.38647835478E+03  0.00000000000E+00 0. -1.
         22    1    3    3    0    0 -0.29536670345E+02  0.80642693072E+02 -0.21323284776E+02  0.88489215810E+02  0.00000000000E+00 0.  1.
         22    1    3    3    0    0  0.12700460334E+02 -0.38532542098E+02 -0.43358530278E+02  0.59380305161E+02  0.00000000000E+00 0.  1.
</event>
<event>
 7    1  0.4915160E-006  0.1001649E+03  0.7818608E-02  0.1355050E+00
          2   -1    0    0  502    0  0.00000000000E+00  0.00000000000E+00  0.39440489601E+03  0.39440489601E+03  0.00000000000E+00 0. -1.
          1   -1    0    0  501    0 -0.00000000000E+00 -0.00000000000E+00 -0.13432049998E+04  0.13432049998E+04  0.00000000000E+00 0. -1.
         25    2    1    2    0    0  0.77068371806E+02 -0.28875166510E+02 -0.15259729414E+03  0.21373082366E+03  0.12498648578E+03 0.  0.
          2    1    1    2  501    0 -0.12825686491E+02 -0.49407319147E+02 -0.11524184285E+04  0.11535483587E+04  0.00000000000E+00 0. -1.
          1    1    1    2  502    0 -0.64242685315E+02  0.78282485658E+02  0.35621561890E+03  0.37033071345E+03  0.00000000000E+00 0. -1.
         22    1    3    3    0    0  0.56368804391E+01  0.45888435553E+02 -0.45821436919E+02  0.65093217925E+02  0.00000000000E+00 0.  1.
         22    1    3    3    0    0  0.71431491367E+02 -0.74763602063E+02 -0.10677585722E+03  0.14863760573E+03  0.00000000000E+00 0.  1.
</event>
<event>
 7    1  0.4915160E-006  0.4685431E+02  0.7818608E-02  0.1474825E+00
          2   -1    0    0  502    0  0.00000000000E+00  0.00000000000E+00  0.87006905094E+03  0.87006905094E+03  0.00000000000E+00 0. -1.
          1   -1    0    0  501    0 -0.00000000000E+00 -0.00000000000E+00 -0.81014735212E+03  0.81014735212E+03  0.00000000000E+00 0. -1.
         25    2    1    2    0    0  0.15500816710E+02  0.40650423284E+02 -0.92321156645E+02  0.16137175134E+03  0.12499965574E+03 0.  0.
          2    1    1    2  501    0  0.30371635134E+02 -0.30539371673E+02 -0.68196077708E+03  0.68331953793E+03  0.00000000000E+00 0. -1.
          1    1    1    2  502    0 -0.45872451844E+02 -0.10111051611E+02  0.83420363255E+03  0.83552511378E+03  0.00000000000E+00 0. -1.
         22    1    3    3    0    0 -0.44246380774E+02 -0.18555614026E+02 -0.38455664519E+02  0.61488951504E+02  0.00000000000E+00 0. -1.
         22    1    3    3    0    0  0.59747197485E+02  0.59206037310E+02 -0.53865492127E+02  0.99882799837E+02  0.00000000000E+00 0. -1.
</event>
<event>
 7    1  0.4915160E-006  0.1077816E+03  0.7818608E-02  0.1326801E+00
          2   -1    0    0  502    0  0.00000000000E+00  0.00000000000E+00  0.14793100435E+04  0.14793100435E+04  0.00000000000E+00 0. -1.
          1   -1    0    0  501    0 -0.00000000000E+00 -0.00000000000E+00 -0.17224143936E+04  0.17224143936E+04  0.00000000000E+00 0. -1.
         25    2    1    2    0    0 -0.47370328313E+02 -0.24053647803E+02  0.15485070867E+03  0.20597694431E+03  0.12500093453E+03 0.  0.
          2    1    1    2  501    0 -0.58532528215E+02 -0.15579061930E+02 -0.16938479713E+04  0.16949305927E+04  0.00000000000E+00 0. -1.
          1    1    1    2  502    0  0.10590285653E+03  0.39632709733E+02  0.12958929126E+04  0.13008169001E+04  0.00000000000E+00 0. -1.
         22    1    3    3    0    0  0.11061037490E+02 -0.63482106087E+02  0.62212663759E+02  0.89569748663E+02  0.00000000000E+00 0.  1.
         22    1    3    3    0    0 -0.58431365803E+02  0.39428458284E+02  0.92638044915E+02  0.11640719565E+03  0.00000000000E+00 0.  1.
</event>
<event>
 7    1  0.4915160E-006  0.9134712E+02  0.7818608E-02  0.1378782E+00
          2   -1    0    0  502    0  0.00000000000E+00  0.00000000000E+00  0.10168660637E+04  0.10168660637E+04  0.00000000000E+00 0. -1.
          1   -1    0    0  501    0 -0.00000000000E+00 -0.00000000000E+00 -0.99469600793E+02  0.99469600793E+02  0.00000000000E+00 0. -1.
         25    2    1    2    0    0  0.25463914739E+02 -0.78030220875E+02  0.36310532264E+03  0.39269213694E+03  0.12499805101E+03 0.  0.
          2    1    1    2  501    0  0.18682856876E+02  0.90764433787E+02 -0.58202293161E+02  0.10942914836E+03  0.00000000000E+00 0. -1.
          1    1    1    2  502    0 -0.44146771615E+02 -0.12734212912E+02  0.61249343337E+03  0.61421437915E+03  0.00000000000E+00 0. -1.
         22    1    3    3    0    0 -0.14395323715E+02 -0.19954476351E+00 -0.42992724351E+01  0.15024942810E+02  0.00000000000E+00 0.  1.
         22    1    3    3    0    0  0.39859238455E+02 -0.77830676112E+02  0.36740459508E+03  0.37766719413E+03  0.00000000000E+00 0.  1.
</event>
<event>
 7    1  0.4915160E-006  0.4985361E+02  0.7818608E-02  0.1449565E+00
          2   -1    0    0  502    0  0.00000000000E+00  0.00000000000E+00  0.95592896799E+03  0.95592896799E+03  0.00000000000E+00 0. -1.
          1   -1    0    0  501    0 -0.00000000000E+00 -0.00000000000E+00 -0.38556229403E+02  0.38556229403E+02  0.00000000000E+00 0. -1.
         25    2    1    2    0    0 -0.53472118556E+02 -0.38935537882E+02  0.37169981255E+03  0.39769461448E+03  0.12500004865E+03 0.  0.
          2    1    1    2  501    0  0.47390947589E+02 -0.10795757116E+02 -0.21778463163E+00  0.48605531735E+02  0.00000000000E+00 0. -1.
          1    1    1    2  502    0  0.60811709661E+01  0.49731294998E+02  0.54589071067E+03  0.54818505118E+03  0.00000000000E+00 0. -1.
         22    1    3    3    0    0 -0.42868120081E+02 -0.29993174103E+02  0.40392509666E+02  0.66097057795E+02  0.00000000000E+00 0. -1.
         22    1    3    3    0    0 -0.10603998475E+02 -0.89423637797E+01  0.33130730289E+03  0.33159755669E+03  0.00000000000E+00 0. -1.
</event>
<event>
 7    1  0.4915160E-006  0.7014337E+02  0.7818608E-02  0.1382736E+00
          2   -1    0    0  502    0  0.00000000000E+00  0.00000000000E+00  0.10296940727E+04  0.10296940727E+04  0.00000000000E+00 0. -1.
          1   -1    0    0  501    0 -0.00000000000E+00 -0.00000000000E+00 -0.12420077164E+04  0.12420077164E+04  0.00000000000E+00 0. -1.
         25    2    1    2    0    0  0.63995441753E+01 -0.72596751408E+02  0.45918758748E+03  0.48144017338E+03  0.12498062878E+03 0.  0.
          2    1    1    2  501    0 -0.55886304255E+02  0.42463116351E+02 -0.12283766153E+04  0.12303802275E+04  0.00000000000E+00 0. -1.
          1    1    1    2  502    0  0.49486760079E+02  0.30133635057E+02  0.55687538415E+03  0.55988138821E+03  0.00000000000E+00 0. -1.
         22    1    3    3    0    0 -0.86163382107E+01 -0.10055353651E+03  0.41463876514E+03  0.42674413944E+03  0.00000000000E+00 0. -1.
         22    1    3    3    0    0  0.15015882386E+02  0.27956785103E+02  0.44548822333E+02  0.54696033936E+02  0.00000000000E+00 0. -1.
</event>
<event>
 7    1  0.4915160E-006  0.1383152E+03  0.7818608E-02  0.1257386E+00
          2   -1    0    0  502    0  0.00000000000E+00  0.00000000000E+00  0.11995161593E+04  0.11995161593E+04  0.00000000000E+00 0. -1.
          1   -1    0    0  501    0 -0.00000000000E+00 -0.00000000000E+00 -0.52346008160E+03  0.52346008160E+03  0.00000000000E+00 0. -1.
         25    2    1    2    0    0 -0.78206456854E+01 -0.21710076551E+03 -0.12663726481E+03  0.28081122881E+03  0.12499617796E+03 0.  0.
          2    1    1    2  501    0 -0.29234483015E+02  0.85401366157E+02 -0.30908709335E+03  0.32199826026E+03  0.00000000000E+00 0. -1.
          1    1    1    2  502    0  0.37055128700E+02  0.13169939935E+03  0.11117804359E+04  0.11201667519E+04  0.00000000000E+00 0. -1.
         22    1    3    3    0    0 -0.27835786832E+02 -0.30583936191E+02  0.16832175058E+02  0.44648967498E+02  0.00000000000E+00 0.  1.
         22    1    3    3    0    0  0.20015141146E+02 -0.18651682932E+03 -0.14346943986E+03  0.23616226131E+03  0.00000000000E+00 0.  1.
</event>
<event>
 7    1  0.4915160E-006  0.6066431E+02  0.7818608E-02  0.1524123E+00
          2   -1    0    0  502    0  0.00000000000E+00  0.00000000000E+00  0.20018508775E+02  0.20018508775E+02  0.00000000000E+00 0. -1.
          1   -1    0    0  501    0 -0.00000000000E+00 -0.00000000000E+00 -0.63311689755E+03  0.63311689755E+03  0.00000000000E+00 0. -1.
         25    2    1    2    0    0  0.31156093189E+02 -0.49397553100E+02 -0.38647835392E+03  0.41036564244E+03  0.12499448811E+03 0.  0.
          2    1    1    2  501    0 -0.11258513903E+02  0.62272125498E+02 -0.15999831734E+03  0.17205822649E+03  0.00000000000E+00 0. -1.
          1    1    1    2  502    0 -0.19897579287E+02 -0.12874572398E+02 -0.66621717520E+02  0.70711537399E+02  0.00000000000E+00 0. -1.
         22    1    3    3    0    0 -0.35957701357E+02 -0.48359641286E+02 -0.26307365080E+03  0.26988767467E+03  0.00000000000E+00 0. -1.
         22    1    3    3    0    0  0.67113794547E+02 -0.10379118135E+01 -0.12340470311E+03  0.14047796777E+03  0.00000000000E+00 0. -1.
</event>
<event>
 7    1  0.4915160E-006  0.6972226E+02  0.7818608E-02  0.1436260E+00
          2   -1    0    0  502    0  0.00000000000E+00  0.00000000000E+00  0.23191173302E+04  0.23191173302E+04  0.00000000000E+00 0. -1.
          1   -1    0    0  501    0 -0.00000000000E+00 -0.00000000000E+00 -0.57374498393E+03  0.57374498393E+03  0.00000000000E+00 0. -1.
         25    2    1    2    0    0  0.85869575832E+02 -0.72343621200E+01  0.69686526486E+03  0.71321203428E+03  0.12499715364E+03 0.  0.
          2    1    1    2  501    0 -0.65058940035E+02 -0.25003714384E+02 -0.56319505648E+03  0.56749142994E+03  0.00000000000E+00 0. -1.
          1    1    1    2  502    0 -0.20810635797E+02  0.32238076504E+02  0.16117021379E+04  0.16121588499E+04  0.00000000000E+00 0. -1.
         22    1    3    3    0    0  0.46431916335E+02 -0.27758843676E+02  0.92082162984E+02  0.10679700837E+03  0.00000000000E+00 0. -1.
         22    1    3    3    0    0  0.39437659497E+02  0.20524481556E+02  0.60478310188E+03  0.60641502591E+03  0.00000000000E+00 0. -1.
</event>
<event>
 7    1  0.4915160E-006  0.6360750E+02  0.7818608E-02  0.1520232E+00
          2   -1    0    0  502    0  0.00000000000E+00  0.00000000000E+00  0.11642433658E+04  0.11642433658E+04  0.00000000000E+00 0. -1.
          1   -1    0    0  501    0 -0.00000000000E+00 -0.00000000000E+00 -0.12759402076E+04  0.12759402076E+04  0.00000000000E+00 0. -1.
         25    2    1    2    0    0 -0.23093296563E+02  0.67883855715E+02  0.44244926467E+03  0.46532484148E+03  0.12499735227E+03 0.  0.
          2    1    1    2  501    0  0.22679500462E+02 -0.48722720913E+01 -0.12629982983E+04  0.12632113047E+04  0.00000000000E+00 0. -1.
          1    1    1    2  502    0  0.41379610167E+00 -0.63011583624E+02  0.70885219177E+03  0.71164742723E+03  0.00000000000E+00 0. -1.
         22    1    3    3    0    0  0.41303846775E+02 -0.92459176977E+01  0.10423847085E+03  0.11250401574E+03  0.00000000000E+00 0. -1.
         22    1    3    3    0    0 -0.64397143338E+02  0.77129773413E+02  0.33821079383E+03  0.35282082575E+03  0.00000000000E+00 0. -1.
</event>
<event>
 7    1  0.4915160E-006  0.9283894E+02  0.7818608E-02  0.1432013E+00
          2   -1    0    0  502    0  0.00000000000E+00  0.00000000000E+00  0.95685850126E+03  0.95685850126E+03  0.00000000000E+00 0. -1.
          1   -1    0    0  501    0 -0.00000000000E+00 -0.00000000000E+00 -0.33310034482E+03  0.33310034482E+03  0.00000000000E+00 0. -1.
         25    2    1    2    0    0 -0.98703174744E+02 -0.45526770288E+02 -0.90878590450E+02  0.18894156815E+03  0.12499997782E+03 0.  0.
          2    1    1    2  501    0  0.76053357821E+01  0.28765707783E+02 -0.18966468263E+03  0.19198437154E+03  0.00000000000E+00 0. -1.
          1    1    1    2  502    0  0.91097838962E+02  0.16761062505E+02  0.90430142952E+03  0.90903290640E+03  0.00000000000E+00 0. -1.
         22    1    3    3    0    0  0.96939022401E+01  0.46685578776E+01  0.22063680330E+02  0.24547365704E+02  0.00000000000E+00 0.  1.
         22    1    3    3    0    0 -0.10839707698E+03 -0.50195328165E+02 -0.11294227078E+03  0.16439420244E+03  0.00000000000E+00 0.  1.
</event>
<event>
 7    1  0.4915160E-006  0.4406985E+02  0.7818608E-02  0.1483633E+00
          2   -1    0    0  502    0  0.00000000000E+00  0.00000000000E+00  0.12978590455E+04  0.12978590455E+04  0.00000000000E+00 0. -1.
          1   -1    0    0  501    0 -0.00000000000E+00 -0.00000000000E+00 -0.21174741630E+04  0.21174741630E+04  0.00000000000E+00 0. -1.
         25    2    1    2    0    0  0.14166337437E+02 -0.85868317830E+02  0.10864983661E+03  0.18708689028E+03  0.12499065723E+03 0.  0.
          2    1    1    2  501    0 -0.70896748181E+01  0.43427267794E+02 -0.20776201344E+04  0.20780860458E+04  0.00000000000E+00 0. -1.
          1    1    1    2  502    0 -0.70766626190E+01  0.42441050036E+02  0.11493551802E+04  0.11501602724E+04  0.00000000000E+00 0. -1.
         22    1    3    3    0    0 -0.20255073850E+02 -0.51243454831E+02 -0.12471896656E+02  0.56495202327E+02  0.00000000000E+00 0.  1.
         22    1    3    3    0    0  0.34421411287E+02 -0.34624862999E+02  0.12112173327E+03  0.13059168795E+03  0.00000000000E+00 0.  1.
</event>
<event>
 7    1  0.4915160E-006  0.1261550E+03  0.7818608E-02  0.1270144E+00
          2   -1    0    0  502    0  0.00000000000E+00  0.00000000000E+00  0.34211900798E+03  0.34211900798E+03  0.00000000000E+00 0. -1.
          1   -1    0    0  501    0 -0.00000000000E+00 -0.00000000000E+00 -0.25618950046E+04  0.25618950046E+04  0.00000000000E+00 0. -1.
         25    2    1    2    0    0  0.99661041233E+02 -0.12978549493E+03 -0.69883653911E+01  0.20603610004E+03  0.12500175773E+03 0.  0.
          2    1    1    2  501    0 -0.87109217444E+02  0.67728078104E+01 -0.24387931372E+04  0.24403577305E+04  0.00000000000E+00 0. -1.
          1    1    1    2  502    0 -0.12551823789E+02  0.12301268711E+03  0.22600550597E+03  0.25762018206E+03  0.00000000000E+00 0. -1.
         22    1    3    3    0    0  0.53148684030E+02 -0.14455841387E+03 -0.20551681629E+02  0.15538432757E+03  0.00000000000E+00 0. -1.
         22    1    3    3    0    0  0.46512357204E+02  0.14772918949E+02  0.13563316238E+02  0.50651772469E+02  0.00000000000E+00 0. -1.
</event>
<event>
 7    1  0.4915160E-006  0.1079735E+03  0.7818608E-02  0.1343588E+00
          2   -1    0    0  502    0  0.00000000000E+00  0.00000000000E+00  0.13822761285E+03  0.13822761285E+03  0.00000000000E+00 0. -1.
          1   -1    0    0  501    0 -0.00000000000E+00 -0.00000000000E+00 -0.19226291198E+04  0.19226291198E+04  0.00000000000E+00 0. -1.
         25    2    1    2    0    0  0.56620577677E+02  0.81761186274E+01 -0.81344067287E+03  0.82497919816E+03  0.12502883820E+03 0.  0.
          2    1    1    2  501    0  0.52045793627E+02  0.42993836519E+01 -0.10800995220E+04  0.10813612841E+04  0.00000000000E+00 0. -1.
          1    1    1    2  502    0 -0.10866637130E+03 -0.12475502279E+02  0.10913868797E+03  0.15451625034E+03  0.00000000000E+00 0. -1.
         22    1    3    3    0    0  0.11765524661E+02  0.15190802024E+02 -0.72775855328E+03  0.72801215643E+03  0.00000000000E+00 0. -1.
         22    1    3    3    0    0  0.44855053016E+02 -0.70146833966E+01 -0.85682119589E+02  0.96967041728E+02  0.00000000000E+00 0. -1.
</event>
<event>
 7    1  0.4915160E-006  0.9979156E+02  0.7818608E-02  0.1345992E+00
          2   -1    0    0  502    0  0.00000000000E+00  0.00000000000E+00  0.12117113423E+04  0.12117113423E+04  0.00000000000E+00 0. -1.
          1   -1    0    0  501    0 -0.00000000000E+00 -0.00000000000E+00 -0.56380281005E+03  0.56380281005E+03  0.00000000000E+00 0. -1.
         25    2    1    2    0    0 -0.10716552807E+03 -0.74643761864E+02  0.49038591626E+02  0.18731436208E+03  0.12500298069E+03 0.  0.
          2    1    1    2  501    0  0.96815386249E+02  0.20271331637E+02 -0.48900949764E+03  0.49891325367E+03  0.00000000000E+00 0. -1.
          1    1    1    2  502    0  0.10350141817E+02  0.54372430227E+02  0.10878794382E+04  0.10892865366E+04  0.00000000000E+00 0. -1.
         22    1    3    3    0    0 -0.83771575105E+02 -0.16897441088E+02 -0.26427729960E+02  0.89451803904E+02  0.00000000000E+00 0. -1.
         22    1    3    3    0    0 -0.23393952961E+02 -0.57746320777E+02  0.75466321586E+02  0.97862558173E+02  0.00000000000E+00 0. -1.
</event>
<event>
 7    1  0.4915160E-006  0.4320160E+02  0.7818608E-02  0.1499307E+00
          2   -1    0    0  502    0  0.00000000000E+00  0.00000000000E+00  0.12978593487E+03  0.12978593487E+03  0.00000000000E+00 0. -1.
          1   -1    0    0  501    0 -0.00000000000E+00 -0.00000000000E+00 -0.24739793506E+03  0.24739793506E+03  0.00000000000E+00 0. -1.
         25    2    1    2    0    0  0.42352572168E+02 -0.53878498505E+02 -0.10321076401E+03  0.17599479811E+03  0.12500029673E+03 0.  0.
          2    1    1    2  501    0 -0.38568590578E+02  0.14700832205E+02 -0.99340142859E+02  0.10757376367E+03  0.00000000000E+00 0. -1.
          1    1    1    2  502    0 -0.37839815903E+01  0.39177666299E+02  0.84938906673E+02  0.93615308151E+02  0.00000000000E+00 0. -1.
         22    1    3    3    0    0 -0.12946275171E+02  0.14857298530E+02 -0.83243723119E+02  0.85544507709E+02  0.00000000000E+00 0. -1.
         22    1    3    3    0    0  0.55298847339E+02 -0.68735797035E+02 -0.19967040886E+02  0.90450290397E+02  0.00000000000E+00 0. -1.
</event>
<event>
 7    1  0.4915160E-006  0.2129466E+03  0.7818608E-02  0.1155012E+00
          2   -1    0    0  502    0  0.00000000000E+00  0.00000000000E+00  0.82477904370E+03  0.82477904370E+03  0.00000000000E+00 0. -1.
          1   -1    0    0  501    0 -0.00000000000E+00 -0.00000000000E+00 -0.36307397659E+03  0.36307397659E+03  0.00000000000E+00 0. -1.
         25    2    1    2    0    0 -0.16035219473E+03 -0.14881804175E+03  0.12115091047E+03  0.27957254856E+03  0.12499452346E+03 0.  0.
          2    1    1    2  501    0 -0.65716030362E+02  0.16382291386E+03 -0.23258771515E+03  0.29198217239E+03  0.00000000000E+00 0. -1.
          1    1    1    2  502    0  0.22606822509E+03 -0.15004872108E+02  0.57314187179E+03  0.61629829935E+03  0.00000000000E+00 0. -1.
         22    1    3    3    0    0  0.90027483115E+01 -0.38206372367E+02  0.53350739989E+02  0.66235019620E+02  0.00000000000E+00 0. -1.
         22    1    3    3    0    0 -0.16935494304E+03 -0.11061166938E+03  0.67800170479E+02  0.21333752894E+03  0.00000000000E+00 0. -1.
</event>
<event>
 7    1  0.4915160E-006  0.9483585E+02  0.7818608E-02  0.1432613E+00
          2   -1    0    0  502    0  0.00000000000E+00  0.00000000000E+00  0.54194396568E+03  0.54194396568E+03  0.00000000000E+00 0. -1.
          1   -1    0    0  501    0 -0.00000000000E+00 -0.00000000000E+00 -0.10617949567E+03  0.10617949567E+03  0.00000000000E+00 0. -1.
         25    2    1    2    0    0  0.66726273977E+02 -0.29794768656E+02  0.13964380299E+03  0.20116187937E+03  0.12500234446E+03 0.  0.
          2    1    1    2  501    0  0.28949725155E+02  0.16374703602E+01 -0.65611164512E+02  0.71732787512E+02  0.00000000000E+00 0. -1.
          1    1    1    2  502    0 -0.95675999132E+02  0.28157298295E+02  0.36173183153E+03  0.37522879447E+03  0.00000000000E+00 0. -1.
         22    1    3    3    0    0  0.83181381833E+02  0.78953264694E+01  0.38542804548E+02  0.92016445520E+02  0.00000000000E+00 0.  1.
         22    1    3    3    0    0 -0.16455107855E+02 -0.37690095125E+02  0.10110099844E+03  0.10914543385E+03  0.00000000000E+00 0.  1.
</event>
<event>
 7    1  0.4915160E-006  0.6779927E+02  0.7818608E-02  0.1410296E+00
          2   -1    0    0  502    0  0.00000000000E+00  0.00000000000E+00  0.34032363972E+04  0.34032363972E+04  0.00000000000E+00 0. -1.
          1   -1    0    0  501    0 -0.00000000000E+00 -0.00000000000E+00 -0.99578561303E+02  0.99578561303E+02  0.00000000000E+00 0. -1.
         25    2    1    2    0    0  0.94119217903E+02 -0.65635713345E+02  0.46087486726E+03  0.49112290826E+03  0.12501837345E+03 0.  0.
          2    1    1    2  501    0 -0.39921215871E+02  0.26895371290E+02 -0.77184693613E+02  0.90964506273E+02  0.00000000000E+00 0. -1.
          1    1    1    2  502    0 -0.54198002032E+02  0.38740342055E+02  0.29199676623E+04  0.29207275440E+04  0.00000000000E+00 0. -1.
         22    1    3    3    0    0  0.84182881551E+02  0.17484232295E+02  0.23495342239E+03  0.25019106023E+03  0.00000000000E+00 0.  1.
         22    1    3    3    0    0  0.99363363519E+01 -0.83119945640E+02  0.22592144486E+03  0.24093184803E+03  0.00000000000E+00 0.  1.
</event>
<event>
 7    1  0.4915160E-006  0.1439642E+03  0.7818608E-02  0.1364266E+00
          2   -1    0    0  502    0  0.00000000000E+00  0.00000000000E+00  0.10726891777E+04  0.10726891777E+04  0.00000000000E+00 0. -1.
          1   -1    0    0  501    0 -0.00000000000E+00 -0.00000000000E+00 -0.18194933284E+03  0.18194933284E+03  0.00000000000E+00 0. -1.
         25    2    1    2    0    0  0.24685897931E+02  0.12958139349E+03  0.14873786916E+03  0.23483973850E+03  0.12500407177E+03 0.  0.
          2    1    1    2  501    0  0.32634139742E+01 -0.14687534663E+03 -0.99640960415E+02  0.17751433269E+03  0.00000000000E+00 0. -1.
          1    1    1    2  502    0 -0.27949311905E+02  0.17293953139E+02  0.84164293610E+03  0.84228443933E+03  0.00000000000E+00 0. -1.
         22    1    3    3    0    0  0.72668237419E+02  0.81151936281E+02  0.11627722921E+03  0.15933205429E+03  0.00000000000E+00 0. -1.
         22    1    3    3    0    0 -0.47982339488E+02  0.48429457209E+02  0.32460639950E+02  0.75507684206E+02  0.00000000000E+00 0. -1.
</event>
<event>
 7    1  0.4915160E-006  0.1281867E+03  0.7818608E-02  0.1253455E+00
          2   -1    0    0  502    0  0.00000000000E+00  0.00000000000E+00  0.94593912763E+03  0.94593912763E+03  0.00000000000E+00 0. -1.
          1   -1    0    0  501    0 -0.00000000000E+00 -0.00000000000E+00 -0.14431363184E+03  0.14431363184E+03  0.00000000000E+00 0. -1.
         25    2    1    2    0    0 -0.42257266021E+02  0.48100070311E+02  0.22158213530E+02  0.14218473150E+03  0.12500487250E+03 0.  0.
          2    1    1    2  501    0  0.51147156107E+02  0.87398583684E+02 -0.46202399009E+02  0.11130680879E+03  0.00000000000E+00 0. -1.
          1    1    1    2  502    0 -0.88898900860E+01 -0.13549865399E+03  0.82566968127E+03  0.83676121919E+03  0.00000000000E+00 0. -1.
         22    1    3    3    0    0 -0.72026523939E+02  0.69461693910E+02  0.14018840179E+01  0.10007353472E+03  0.00000000000E+00 0. -1.
         22    1    3    3    0    0  0.29769257918E+02 -0.21361623599E+02  0.20756329512E+02  0.42111196784E+02  0.00000000000E+00 0. -1.
</event>
<event>
 7    1  0.4915160E-006  0.6657864E+02  0.7818608E-02  0.1413199E+00
          2   -1    0    0  502    0  0.00000000000E+00  0.00000000000E+00  0.20288015811E+03  0.20288015811E+03  0.00000000000E+00 0. -1.
          1   -1    0    0  501    0 -0.00000000000E+00 -0.00000000000E+00 -0.19589907190E+04  0.19589907190E+04  0.00000000000E+00 0. -1.
         25    2    1    2    0    0 -0.40426944318E+02  0.38735904966E+02 -0.89967515179E+03  0.91004295349E+03  0.12501196057E+03 0.  0.
          2    1    1    2  501    0  0.38897992136E+02  0.27992885828E+02 -0.10479346736E+04  0.10490299022E+04  0.00000000000E+00 0. -1.
          1    1    1    2  502    0  0.15289521816E+01 -0.66728790794E+02  0.19149926449E+03  0.20279802148E+03  0.00000000000E+00 0. -1.
         22    1    3    3    0    0 -0.17233661965E+02  0.82524798057E+02 -0.65477706233E+03  0.66018205274E+03  0.00000000000E+00 0.  1.
         22    1    3    3    0    0 -0.23193282353E+02 -0.43788893091E+02 -0.24489808946E+03  0.24986090075E+03  0.00000000000E+00 0.  1.
</event>
<event>
 7    1  0.4915160E-006  0.9348697E+02  0.7818608E-02  0.1298629E+00
          2   -1    0    0  502    0  0.00000000000E+00  0.00000000000E+00  0.31078663927E+04  0.31078663927E+04  0.00000000000E+00 0. -1.
          1   -1    0    0  501    0 -0.00000000000E+00 -0.00000000000E+00 -0.44674129017E+03  0.44674129017E+03  0.00000000000E+00 0. -1.
         25    2    1    2    0    0 -0.14004432519E+03 -0.70218491085E+01  0.56678714885E+02  0.19620159286E+03  0.12498347465E+03 0.  0.
          2    1    1    2  501    0  0.74678317563E+02 -0.54957124102E+02 -0.37058650502E+03  0.38200980918E+03  0.00000000000E+00 0. -1.
          1    1    1    2  502    0  0.65366007629E+02  0.61978973211E+02  0.29750328926E+04  0.29763962808E+04  0.00000000000E+00 0. -1.
         22    1    3    3    0    0  0.34308973647E+01  0.24584029133E+02  0.41694852451E+02  0.48524285322E+02  0.00000000000E+00 0. -1.
         22    1    3    3    0    0 -0.14347522256E+03 -0.31605878242E+02  0.14983862434E+02  0.14767730753E+03  0.00000000000E+00 0. -1.
</event>
<event>
 7    1  0.4915160E-006  0.1695592E+03  0.7818608E-02  0.1245102E+00
          2   -1    0    0  502    0  0.00000000000E+00  0.00000000000E+00  0.34960474830E+03  0.34960474830E+03  0.00000000000E+00 0. -1.
          1   -1    0    0  501    0 -0.00000000000E+00 -0.00000000000E+00 -0.20511260049E+04  0.20511260049E+04  0.00000000000E+00 0. -1.
         25    2    1    2    0    0  0.11643647535E+03 -0.81849660866E+02 -0.70683496677E+03  0.73177665664E+03  0.12499834071E+03 0.  0.
          2    1    1    2  501    0 -0.96515125888E+02  0.16265598769E+03 -0.13198376347E+04  0.13333204873E+04  0.00000000000E+00 0. -1.
          1    1    1    2  502    0 -0.19921349461E+02 -0.80806326824E+02  0.32515134486E+03  0.33563360929E+03  0.00000000000E+00 0. -1.
         22    1    3    3    0    0  0.13916780982E+03 -0.86449016409E+02 -0.57360625676E+03  0.59654442376E+03  0.00000000000E+00 0.  1.
         22    1    3    3    0    0 -0.22731334470E+02  0.45993555431E+01 -0.13322871001E+03  0.13523223288E+03  0.00000000000E+00 0.  1.
</event>
<event>
 7    1  0.4915160E-006  0.1112910E+03  0.7818608E-02  0.1371320E+00
          2   -1    0    0  502    0  0.00000000000E+00  0.00000000000E+00  0.19603428131E+04  0.19603428131E+04  0.00000000000E+00 0. -1.
          1   -1    0    0  501    0 -0.00000000000E+00 -0.00000000000E+00 -0.17856577724E+03  0.17856577724E+03  0.00000000000E+00 0. -1.
         25    2    1    2    0    0 -0.13238352705E+03  0.48827857909E+02  0.52250234627E+02  0.19561154984E+03  0.12499693384E+03 0.  0.
          2    1    1    2  501    0  0.10308513806E+03 -0.21453093741E+02 -0.80677593055E+02  0.13264861455E+03  0.00000000000E+00 0. -1.
          1    1    1    2  502    0  0.29298388995E+02 -0.27374764168E+02  0.18102043942E+04  0.18106484259E+04  0.00000000000E+00 0. -1.
         22    1    3    3    0    0 -0.13784913853E+03  0.88507547685E+00  0.52068973253E+02  0.14735788519E+03  0.00000000000E+00 0. -1.
         22    1    3    3    0    0  0.54656114771E+01  0.47942782432E+02  0.18126137396E+00  0.48253664647E+02  0.00000000000E+00 0. -1.
</event>
<event>
 7    1  0.7106562E-006  0.1676908E+03  0.7818608E-02  0.1234478E+00
          2   -1    0    0  502    0  0.00000000000E+00  0.00000000000E+00  0.19069482958E+04  0.19069482958E+04  0.00000000000E+00 0. -1.
          1   -1    0    0  501    0 -0.00000000000E+00 -0.00000000000E+00 -0.74817891024E+03  0.74817891024E+03  0.00000000000E+00 0. -1.
         25    2    1    2    0    0 -0.17248253711E+03 -0.19312911975E+02 -0.31549879752E+03  0.38116485093E+03  0.12499575262E+03 0.  0.
          2    1    1    2  501    0  0.20837017590E+02  0.91398326782E+02 -0.39052830120E+03  0.40162194845E+03  0.00000000000E+00 0. -1.
          1    1    1    2  502    0  0.15164551952E+03 -0.72085414808E+02  0.18647964843E+04  0.18723404067E+04  0.00000000000E+00 0. -1.
         22    1    3    3    0    0 -0.67862419456E+02 -0.57205353853E+02 -0.20933062731E+03  0.22736990129E+03  0.00000000000E+00 0.  1.
         22    1    3    3    0    0 -0.10462011765E+03  0.37892441878E+02 -0.10616817022E+03  0.15379494964E+03  0.00000000000E+00 0.  1.
</event>
<event>
 7    1  0.4915160E-006  0.1768221E+03  0.7818608E-02  0.1245711E+00
          2   -1    0    0  502    0  0.00000000000E+00  0.00000000000E+00  0.28561176970E+04  0.28561176970E+04  0.00000000000E+00 0. -1.
          1   -1    0    0  501    0 -0.00000000000E+00 -0.00000000000E+00 -0.53109981461E+03  0.53109981461E+03  0.00000000000E+00 0. -1.
         25    2    1    2    0    0  0.52562721848E+02 -0.18020136915E+03  0.10495268864E+04  0.10734832525E+04  0.12499693973E+03 0.  0.
          2    1    1    2  501    0  0.26579959126E+02  0.17490377394E+03 -0.50313953644E+03  0.53333593306E+03  0.00000000000E+00 0. -1.
          1    1    1    2  502    0 -0.79142680974E+02  0.52975952110E+01  0.17786305324E+04  0.17803983260E+04  0.00000000000E+00 0. -1.
         22    1    3    3    0    0  0.74748459013E+02 -0.43456071609E+02  0.43949333153E+03  0.44791757137E+03  0.00000000000E+00 0. -1.
         22    1    3    3    0    0 -0.22185737165E+02 -0.13674529754E+03  0.61003355491E+03  0.62556568116E+03  0.00000000000E+00 0. -1.
</event>
<event>
 7    1  0.4915160E-006  0.2008212E+03  0.7818608E-02  0.1229616E+00
          2   -1    0    0  502    0  0.00000000000E+00  0.00000000000E+00  0.26775120102E+04  0.26775120102E+04  0.00000000000E+00 0. -1.
          1   -1    0    0  501    0 -0.00000000000E+00 -0.00000000000E+00 -0.32474439983E+03  0.32474439983E+03  0.00000000000E+00 0. -1.
         25    2    1    2    0    0  0.12352760460E+03  0.19061107676E+03  0.11070989439E+04  0.11370507541E+04  0.12499877593E+03 0.  0.
          2    1    1    2  501    0 -0.82289159638E+02 -0.84772924316E+00 -0.29811054700E+03  0.30926060640E+03  0.00000000000E+00 0. -1.
          1    1    1    2  502    0 -0.41238444962E+02 -0.18976334752E+03  0.15437792134E+04  0.15559450495E+04  0.00000000000E+00 0. -1.
         22    1    3    3    0    0  0.12712047878E+03  0.91421487501E+02  0.58449198775E+03  0.60510196516E+03  0.00000000000E+00 0. -1.
         22    1    3    3    0    0 -0.35928741825E+01  0.99189589263E+02  0.52260695619E+03  0.53194878891E+03  0.00000000000E+00 0. -1.
</event>
<event>
 7    1  0.4915160E-006  0.5750134E+02  0.7818608E-02  0.1516054E+00
          2   -1    0    0  502    0  0.00000000000E+00  0.00000000000E+00  0.83100722864E+03  0.83100722864E+03  0.00000000000E+00 0. -1.
          1   -1    0    0  501    0 -0.00000000000E+00 -0.00000000000E+00 -0.14174769970E+04  0.14174769970E+04  0.00000000000E+00 0. -1.
         25    2    1    2    0    0 -0.22169848708E+02  0.77434404076E+02 -0.27423139899E+02  0.15121136970E+03  0.12500104239E+03 0.  0.
          2    1    1    2  501    0  0.25563297883E+02 -0.51264527242E+02 -0.13273154130E+04  0.13285509925E+04  0.00000000000E+00 0. -1.
          1    1    1    2  502    0 -0.33934491748E+01 -0.26169876834E+02  0.76826878459E+03  0.76872186344E+03  0.00000000000E+00 0. -1.
         22    1    3    3    0    0 -0.60060516259E+02 -0.32277586018E+00  0.12813381698E+01  0.60075049938E+02  0.00000000000E+00 0. -1.
         22    1    3    3    0    0  0.37890667551E+02  0.77757179936E+02 -0.28704478069E+02  0.91136319765E+02  0.00000000000E+00 0. -1.
</event>
<event>
 7    1  0.4915160E-006  0.6926393E+02  0.7818608E-02  0.1506453E+00
          2   -1    0    0  502    0  0.00000000000E+00  0.00000000000E+00  0.43220897919E+03  0.43220897919E+03  0.00000000000E+00 0. -1.
          1   -1    0    0  501    0 -0.00000000000E+00 -0.00000000000E+00 -0.33769772861E+03  0.33769772861E+03  0.00000000000E+00 0. -1.
         25    2    1    2    0    0 -0.83330616946E+02  0.33274381059E+02  0.54215798360E+02  0.16314155135E+03  0.12499854731E+03 0.  0.
          2    1    1    2  501    0  0.59952847241E+02 -0.33151665520E+02 -0.27865812307E+03  0.28695596591E+03  0.00000000000E+00 0. -1.
          1    1    1    2  502    0  0.23377769705E+02 -0.12271553931E+00  0.31895357528E+03  0.31980919055E+03  0.00000000000E+00 0. -1.
         22    1    3    3    0    0 -0.88454152927E+02  0.19242248000E+02 -0.15502546216E+02  0.91840787329E+02  0.00000000000E+00 0.  1.
         22    1    3    3    0    0  0.51235359806E+01  0.14032133059E+02  0.69718344576E+02  0.71300764018E+02  0.00000000000E+00 0.  1.
</event>
<event>
 7    1  0.4915160E-006  0.9999145E+02  0.7818608E-02  0.1299977E+00
          2   -1    0    0  502    0  0.00000000000E+00  0.00000000000E+00  0.13582328628E+04  0.13582328628E+04  0.00000000000E+00 0. -1.
          1   -1    0    0  501    0 -0.00000000000E+00 -0.00000000000E+00 -0.14447318219E+04  0.14447318219E+04  0.00000000000E+00 0. -1.
         25    2    1    2    0    0  0.89534422350E+00 -0.18393631179E+02  0.47582019584E+03  0.49231148241E+03  0.12500643839E+03 0.  0.
          2    1    1    2  501    0  0.72411903365E+02 -0.68955101549E+02 -0.14310152577E+04  0.14345044292E+04  0.00000000000E+00 0. -1.
          1    1    1    2  502    0 -0.73307247589E+02  0.87348732728E+02  0.86869610270E+03  0.87614877304E+03  0.00000000000E+00 0. -1.
         22    1    3    3    0    0 -0.19387299289E+01  0.15268650371E+02  0.98181430480E-01  0.15391556045E+02  0.00000000000E+00 0.  1.
         22    1    3    3    0    0  0.28340741524E+01 -0.33662281550E+02  0.47572201441E+03  0.47691992637E+03  0.00000000000E+00 0.  1.
</event>
<event>
 7    1  0.4915160E-006  0.1120871E+03  0.7818608E-02  0.1331046E+00
          2   -1    0    0  502    0  0.00000000000E+00  0.00000000000E+00  0.58990528471E+03  0.58990528471E+03  0.00000000000E+00 0. -1.
          1   -1    0    0  501    0 -0.00000000000E+00 -0.00000000000E+00 -0.97610401257E+03  0.97610401257E+03  0.00000000000E+00 0. -1.
         25    2    1    2    0    0  0.81755928796E+02 -0.58081309400E+02 -0.49366450082E+02  0.16768822489E+03  0.12499929591E+03 0.  0.
          2    1    1    2  501    0 -0.33839448231E+02 -0.44751475337E+02 -0.86059025219E+03  0.86241717571E+03  0.00000000000E+00 0. -1.
          1    1    1    2  502    0 -0.47916480565E+02  0.10283278474E+03  0.52375797441E+03  0.53590389669E+03  0.00000000000E+00 0. -1.
         22    1    3    3    0    0  0.31492800730E+02  0.25436416383E+02 -0.57000908042E+02  0.69913598776E+02  0.00000000000E+00 0. -1.
         22    1    3    3    0    0  0.50263128067E+02 -0.83517725783E+02  0.76344579608E+01  0.97774626112E+02  0.00000000000E+00 0. -1.
</event>
<event>
 7    1  0.4915160E-006  0.1103446E+03  0.7818608E-02  0.1410765E+00
          2   -1    0    0  502    0  0.00000000000E+00  0.00000000000E+00  0.30854537608E+03  0.30854537608E+03  0.00000000000E+00 0. -1.
          1   -1    0    0  501    0 -0.00000000000E+00 -0.00000000000E+00 -0.57996811591E+03  0.57996811591E+03  0.00000000000E+00 0. -1.
         25    2    1    2    0    0  0.67925317176E+02  0.48462540071E+02 -0.93571191661E+02  0.17703755791E+03  0.12499704996E+03 0.  0.
          2    1    1    2  501    0  0.21527750345E+02  0.20123277936E+02 -0.43223437550E+03  0.43323774733E+03  0.00000000000E+00 0. -1.
          1    1    1    2  502    0 -0.89453067521E+02 -0.68585818007E+02  0.25438282733E+03  0.27823818674E+03  0.00000000000E+00 0. -1.
         22    1    3    3    0    0 -0.20480556413E+02 -0.26782474670E+02 -0.15306109451E+02  0.37027437489E+02  0.00000000000E+00 0.  1.
         22    1    3    3    0    0  0.88405873588E+02  0.75245014742E+02 -0.78265082210E+02  0.14001012043E+03  0.00000000000E+00 0.  1.
</event>
<event>
 7    1  0.4915160E-006  0.1189925E+03  0.7818608E-02  0.1248167E+00
          2   -1    0    0  502    0  0.00000000000E+00  0.00000000000E+00  0.14227670959E+04  0.14227670959E+04  0.00000000000E+00 0. -1.
          1   -1    0    0  501    0 -0.00000000000E+00 -0.00000000000E+00 -0.23800900778E+03  0.23800900778E+03  0.00000000000E+00 0. -1.
         25    2    1    2    0    0  0.57905612236E+02 -0.92160357032E+02  0.38087938791E+03  0.41538050628E+03  0.12500106207E+03 0.  0.
          2    1    1    2  501    0  0.73854532227E+02  0.88148397166E+02 -0.20118039344E+03  0.23172868307E+03  0.00000000000E+00 0. -1.
          1    1    1    2  502    0 -0.13176014446E+03  0.40119598658E+01  0.10050590937E+04  0.10136669144E+04  0.00000000000E+00 0. -1.
         22    1    3    3    0    0  0.73042790445E+02 -0.46187116827E+02  0.10838581266E+03  0.13862172767E+03  0.00000000000E+00 0.  1.
         22    1    3    3    0    0 -0.15137178209E+02 -0.45973240204E+02  0.27249357526E+03  0.27675877861E+03  0.00000000000E+00 0.  1.
</event>
<event>
 7    1  0.4915160E-006  0.1020510E+03  0.7818608E-02  0.1296228E+00
          2   -1    0    0  502    0  0.00000000000E+00  0.00000000000E+00  0.30656577669E+03  0.30656577669E+03  0.00000000000E+00 0. -1.
          1   -1    0    0  501    0 -0.00000000000E+00 -0.00000000000E+00 -0.71911894289E+03  0.71911894289E+03  0.00000000000E+00 0. -1.
         25    2    1    2    0    0  0.28233411974E+02  0.81008392782E+02 -0.21447945813E+03  0.26264974785E+03  0.12499586728E+03 0.  0.
          2    1    1    2  501    0 -0.84105732332E+02  0.67136780008E+01 -0.46707161941E+03  0.47463116769E+03  0.00000000000E+00 0. -1.
          1    1    1    2  502    0  0.55872320359E+02 -0.87722070783E+02  0.26899791134E+03  0.28840380404E+03  0.00000000000E+00 0. -1.
         22    1    3    3    0    0  0.26920842367E+02  0.57461655374E+01 -0.17594618419E+03  0.17808652364E+03  0.00000000000E+00 0.  1.
         22    1    3    3    0    0  0.13125696068E+01  0.75262227245E+02 -0.38533273939E+02  0.84563224213E+02  0.00000000000E+00 0.  1.
</event>
<event>
 7    1  0.4915160E-006  0.4266798E+02  0.7818608E-02  0.1506194E+00
          2   -1    0    0  502    0  0.00000000000E+00  0.00000000000E+00  0.26181818284E+04  0.26181818284E+04  0.00000000000E+00 0. -1.
          1   -1    0    0  501    0 -0.00000000000E+00 -0.00000000000E+00 -0.65150849822E+02  0.65150849822E+02  0.00000000000E+00 0. -1.
         25    2    1    2    0    0 -0.73061200353E+02  0.52796180523E+00  0.77556489768E+02  0.16424953372E+03  0.12499872992E+03 0.  0.
          2    1    1    2  501    0  0.33899970448E+02 -0.17207265942E+02 -0.49105528308E+01  0.38332903969E+02  0.00000000000E+00 0. -1.
          1    1    1    2  502    0  0.39161229904E+02  0.16679304137E+02  0.24803850416E+04  0.24807502405E+04  0.00000000000E+00 0. -1.
         22    1    3    3    0    0  0.11349713480E+02  0.34125952715E+02  0.62571197131E+02  0.72170294132E+02  0.00000000000E+00 0.  1.
         22    1    3    3    0    0 -0.84410913833E+02 -0.33597990909E+02  0.14985292637E+02  0.92079239586E+02  0.00000000000E+00 0.  1.
</event>
<event>
 7    1  0.4915160E-006  0.5427453E+02  0.7818608E-02  0.1521930E+00
          2   -1    0    0  502    0  0.00000000000E+00  0.00000000000E+00  0.14061561925E+04  0.14061561925E+04  0.00000000000E+00 0. -1.
          1   -1    0    0  501    0 -0.00000000000E+00 -0.00000000000E+00 -0.19967551336E+04  0.19967551336E+04  0.00000000000E+00 0. -1.
         25    2    1    2    0    0  0.17192447289E+02  0.22046290772E+02 -0.16163260113E+03  0.20623381133E+03  0.12500267199E+03 0.  0.
          2    1    1    2  501    0 -0.35825218273E+02 -0.41419475036E+02 -0.18122777511E+04  0.18131049794E+04  0.00000000000E+00 0. -1.
          1    1    1    2  502    0  0.18632770984E+02  0.19373184265E+02  0.13833114111E+04  0.13835725354E+04  0.00000000000E+00 0. -1.
         22    1    3    3    0    0  0.24708918036E+01 -0.35694056652E+02 -0.19919989170E+01  0.35834885883E+02  0.00000000000E+00 0. -1.
         22    1    3    3    0    0  0.14721555485E+02  0.57740347424E+02 -0.15964060222E+03  0.17039892544E+03  0.00000000000E+00 0. -1.
</event>
<event>
 7    1  0.4915160E-006  0.3249597E+02  0.7818608E-02  0.1595614E+00
          2   -1    0    0  502    0  0.00000000000E+00  0.00000000000E+00  0.28064575595E+03  0.28064575595E+03  0.00000000000E+00 0. -1.
          1   -1    0    0  501    0 -0.00000000000E+00 -0.00000000000E+00 -0.91489024819E+02  0.91489024819E+02  0.00000000000E+00 0. -1.
         25    2    1    2    0    0 -0.52523161933E+01  0.68491679061E+01 -0.19699272190E+02  0.12683183703E+03  0.12499502244E+03 0.  0.
          2    1    1    2  501    0 -0.27656449276E+02 -0.50447655074E+01 -0.53150438476E+01  0.28610811535E+02  0.00000000000E+00 0. -1.
          1    1    1    2  502    0  0.32908765470E+02 -0.18044023987E+01  0.21417104717E+03  0.21669213221E+03  0.00000000000E+00 0. -1.
         22    1    3    3    0    0 -0.40753602176E+02 -0.25838919240E+02 -0.50288689318E+02  0.69695466934E+02  0.00000000000E+00 0.  1.
         22    1    3    3    0    0  0.35501285983E+02  0.32688087147E+02  0.30589417128E+02  0.57136370098E+02  0.00000000000E+00 0.  1.
</event>
<event>
 7    1  0.4915160E-006  0.8356847E+02  0.7818608E-02  0.1435986E+00
          2   -1    0    0  502    0  0.00000000000E+00  0.00000000000E+00  0.11487469130E+04  0.11487469130E+04  0.00000000000E+00 0. -1.
          1   -1    0    0  501    0 -0.00000000000E+00 -0.00000000000E+00 -0.12419210606E+03  0.12419210606E+03  0.00000000000E+00 0. -1.
         25    2    1    2    0    0 -0.37972977482E+01  0.80393252366E+02  0.54724954608E+02  0.15842324327E+03  0.12500243540E+03 0.  0.
          2    1    1    2  501    0  0.35755897273E+02 -0.77608233047E+02 -0.46769074300E+02  0.97410822486E+02  0.00000000000E+00 0. -1.
          1    1    1    2  502    0 -0.31958599525E+02 -0.27850193195E+01  0.10165989266E+04  0.10171049533E+04  0.00000000000E+00 0. -1.
         22    1    3    3    0    0 -0.29147557053E+02 -0.46498758822E+01 -0.25340350092E+02  0.38901603703E+02  0.00000000000E+00 0.  1.
         22    1    3    3    0    0  0.25350259305E+02  0.85043128248E+02  0.80065304700E+02  0.11952163957E+03  0.00000000000E+00 0.  1.
</event>
<event>
 7    1  0.4915160E-006  0.4827240E+02  0.7818608E-02  0.1468579E+00
          2   -1    0    0  502    0  0.00000000000E+00  0.00000000000E+00  0.15113127101E+04  0.15113127101E+04  0.00000000000E+00 0. -1.
          1   -1    0    0  501    0 -0.00000000000E+00 -0.00000000000E+00 -0.21666844646E+04  0.21666844646E+04  0.00000000000E+00 0. -1.
         25    2    1    2    0    0  0.22548248470E+01 -0.69319989905E+01 -0.30173032144E+02  0.12883015919E+03  0.12503464001E+03 0.  0.
          2    1    1    2  501    0 -0.24791660142E+02 -0.36003432552E+02 -0.20865517962E+04  0.20870096482E+04  0.00000000000E+00 0. -1.
          1    1    1    2  502    0  0.22536835295E+02  0.42935431543E+02  0.14613530739E+04  0.14621573673E+04  0.00000000000E+00 0. -1.
         22    1    3    3    0    0  0.42574726878E+02  0.41785678608E+02 -0.27087936573E+02  0.65516460628E+02  0.00000000000E+00 0. -1.
         22    1    3    3    0    0 -0.40319902031E+02 -0.48717677599E+02 -0.30850955714E+01  0.63313698558E+02  0.00000000000E+00 0. -1.
</event>
<event>
 7    1  0.4915160E-006  0.1948285E+03  0.7818608E-02  0.1182282E+00
          2   -1    0    0  502    0  0.00000000000E+00  0.00000000000E+00  0.77906162037E+03  0.77906162037E+03  0.00000000000E+00 0. -1.
          1   -1    0    0  501    0 -0.00000000000E+00 -0.00000000000E+00 -0.12675678826E+04  0.12675678826E+04  0.00000000000E+00 0. -1.
         25    2    1    2    0    0  0.61987637455E+02  0.16604871782E+01  0.11867386287E+03  0.18316981820E+03  0.12498988821E+03 0.  0.
          2    1    1    2  501    0 -0.19919822954E+03 -0.34670130989E+02 -0.12189589598E+04  0.12356143809E+04  0.00000000000E+00 0. -1.
          1    1    1    2  502    0  0.13721059209E+03  0.33009643810E+02  0.61177883463E+03  0.62784530393E+03  0.00000000000E+00 0. -1.
         22    1    3    3    0    0  0.72445094553E+02 -0.41677738427E+02  0.10933395783E+03  0.13761991113E+03  0.00000000000E+00 0. -1.
         22    1    3    3    0    0 -0.10457457097E+02  0.43338225606E+02  0.93399050413E+01  0.45549907067E+02  0.00000000000E+00 0. -1.
</event>
<event>
 7    1  0.4915160E-006  0.8328835E+02  0.7818608E-02  0.1435057E+00
          2   -1    0    0  502    0  0.00000000000E+00  0.00000000000E+00  0.48445988916E+03  0.48445988916E+03  0.00000000000E+00 0. -1.
          1   -1    0    0  501    0 -0.00000000000E+00 -0.00000000000E+00 -0.72318014978E+03  0.72318014978E+03  0.00000000000E+00 0. -1.
         25    2    1    2    0    0  0.29049910027E+02  0.54178033758E+02 -0.34915440836E+03  0.37591689250E+03  0.12500221029E+03 0.  0.
          2    1    1    2  501    0 -0.15787937943E+02  0.28308491055E+02 -0.35619861870E+03  0.35767035887E+03  0.00000000000E+00 0. -1.
          1    1    1    2  502    0 -0.13261972083E+02 -0.82486524813E+02  0.46663276644E+03  0.47405278756E+03  0.00000000000E+00 0. -1.
         22    1    3    3    0    0  0.49925974108E+02  0.65482407828E+02 -0.34102152305E+03  0.35082221681E+03  0.00000000000E+00 0. -1.
         22    1    3    3    0    0 -0.20876064082E+02 -0.11304374069E+02 -0.81328853138E+01  0.25094675694E+02  0.00000000000E+00 0. -1.
</event>
<event>
 7    1  0.4915160E-006  0.1614821E+03  0.7818608E-02  0.1353075E+00
          2   -1    0    0  502    0  0.00000000000E+00  0.00000000000E+00  0.60708871781E+03  0.60708871781E+03  0.00000000000E+00 0. -1.
          1   -1    0    0  501    0 -0.00000000000E+00 -0.00000000000E+00 -0.15106518039E+03  0.15106518039E+03  0.00000000000E+00 0. -1.
         25    2    1    2    0    0  0.90633283659E+02 -0.15609994013E+03  0.11137109918E+03  0.24619116037E+03  0.12499992918E+03 0.  0.
          2    1    1    2  501    0 -0.30472866332E+02  0.10394739197E+02 -0.65267791770E+02  0.72777268621E+02  0.00000000000E+00 0. -1.
          1    1    1    2  502    0 -0.60160417327E+02  0.14570520094E+03  0.40992023001E+03  0.43918546921E+03  0.00000000000E+00 0. -1.
         22    1    3    3    0    0  0.10703195124E+03 -0.13116589561E+03  0.12780797012E+03  0.21212073917E+03  0.00000000000E+00 0. -1.
         22    1    3    3    0    0 -0.16398667585E+02 -0.24934044519E+02 -0.16436870940E+02  0.34070421203E+02  0.00000000000E+00 0. -1.
</event>
<event>
 7    1  0.4915160E-006  0.1478320E+03  0.7818608E-02  0.1206414E+00
          2   -1    0    0  502    0  0.00000000000E+00  0.00000000000E+00  0.15104196638E+04  0.15104196638E+04  0.00000000000E+00 0. -1.
          1   -1    0    0  501    0 -0.00000000000E+00 -0.00000000000E+00 -0.84239608477E+03  0.84239608477E+03  0.00000000000E+00 0. -1.
         25    2    1    2    0    0  0.99786072013E+02  0.10556316134E+02  0.18647555094E+03  0.24589845417E+03  0.12499689071E+03 0.  0.
          2    1    1    2  501    0 -0.22304578608E+01 -0.14272671827E+03 -0.80113759128E+03  0.81375508060E+03  0.00000000000E+00 0. -1.
          1    1    1    2  502    0 -0.97555614152E+02  0.13217040214E+03  0.12826856194E+04  0.12931622138E+04  0.00000000000E+00 0. -1.
         22    1    3    3    0    0  0.26593725204E+02  0.63908145692E+02  0.90436502758E+02  0.11388695420E+03  0.00000000000E+00 0.  1.
         22    1    3    3    0    0  0.73192346808E+02 -0.53351829558E+02  0.96039048180E+02  0.13201149997E+03  0.00000000000E+00 0.  1.
</event>
<event>
 7    1  0.4915160E-006  0.8714864E+02  0.7818608E-02  0.1419145E+00
          2   -1    0    0  502    0  0.00000000000E+00  0.00000000000E+00  0.15143091988E+03  0.15143091988E+03  0.00000000000E+00 0. -1.
          1   -1    0    0  501    0 -0.00000000000E+00 -0.00000000000E+00 -0.93754829263E+03  0.93754829263E+03  0.00000000000E+00 0. -1.
         25    2    1    2    0    0  0.80373549699E+02 -0.37823707150E+01 -0.99845954680E+02  0.17907837043E+03  0.12500253706E+03 0.  0.
          2    1    1    2  501    0 -0.54132996650E+00 -0.34962275838E+02 -0.78002681976E+03  0.78081015191E+03  0.00000000000E+00 0. -1.
          1    1    1    2  502    0 -0.79832219733E+02  0.38744646553E+02  0.93755401684E+02  0.12909069017E+03  0.00000000000E+00 0. -1.
         22    1    3    3    0    0  0.33303012077E+02 -0.55418872725E+01  0.27344713425E+02  0.43445787831E+02  0.00000000000E+00 0.  1.
         22    1    3    3    0    0  0.47070537623E+02  0.17595165576E+01 -0.12719066811E+03  0.13563258260E+03  0.00000000000E+00 0.  1.
</event>
<event>
 7    1  0.4915160E-006  0.9378833E+02  0.7818608E-02  0.1339683E+00
          2   -1    0    0  502    0  0.00000000000E+00  0.00000000000E+00  0.51994511294E+03  0.51994511294E+03  0.00000000000E+00 0. -1.
          1   -1    0    0  501    0 -0.00000000000E+00 -0.00000000000E+00 -0.11857584007E+04  0.11857584007E+04  0.00000000000E+00 0. -1.
         25    2    1    2    0    0  0.12902781062E+03 -0.81702884974E+02  0.12348225008E+02  0.19773846672E+03  0.12499794092E+03 0.  0.
          2    1    1    2  501    0 -0.51013737563E+02  0.35561356296E+02 -0.10872140718E+04  0.10889910235E+04  0.00000000000E+00 0. -1.
          1    1    1    2  502    0 -0.78014073054E+02  0.46141528678E+02  0.40905255899E+03  0.41897402339E+03  0.00000000000E+00 0. -1.
         22    1    3    3    0    0  0.58527800902E+02 -0.67055955500E+02 -0.50351221516E+02  0.10226069702E+03  0.00000000000E+00 0. -1.
         22    1    3    3    0    0  0.70500009714E+02 -0.14646929473E+02  0.62699446524E+02  0.95477769702E+02  0.00000000000E+00 0. -1.
</event>
<event>
 7    1  0.4915160E-006  0.4153738E+02  0.7818608E-02  0.1599938E+00
          2   -1    0    0  502    0  0.00000000000E+00  0.00000000000E+00  0.96881469122E+02  0.96881469122E+02  0.00000000000E+00 0. -1.
          1   -1    0    0  501    0 -0.00000000000E+00 -0.00000000000E+00 -0.18215034045E+04  0.18215034045E+04  0.00000000000E+00 0. -1.
         25    2    1    2    0    0 -0.25794118193E+02 -0.19813379825E+02 -0.97018448787E+03  0.97874494891E+03  0.12500331177E+03 0.  0.
          2    1    1    2  501    0  0.10292770523E+02 -0.18793115108E+02 -0.84222294205E+03  0.84249546374E+03  0.00000000000E+00 0. -1.
          1    1    1    2  502    0  0.15501347670E+02  0.38606494934E+02  0.87785494586E+02  0.97144460935E+02  0.00000000000E+00 0. -1.
         22    1    3    3    0    0  0.15093728426E+02  0.37911322888E+02 -0.62804620860E+03  0.62937042286E+03  0.00000000000E+00 0.  1.
         22    1    3    3    0    0 -0.40887846619E+02 -0.57724702714E+02 -0.34213827927E+03  0.34937452604E+03  0.00000000000E+00 0.  1.
</event>
<event>
 7    1  0.4915160E-006  0.1829643E+03  0.7818608E-02  0.1270063E+00
          2   -1    0    0  502    0  0.00000000000E+00  0.00000000000E+00  0.18147680537E+04  0.18147680537E+04  0.00000000000E+00 0. -1.
          1   -1    0    0  501    0 -0.00000000000E+00 -0.00000000000E+00 -0.11614354581E+04  0.11614354581E+04  0.00000000000E+00 0. -1.
         25    2    1    2    0    0 -0.13813536604E+03  0.16032590255E+02  0.41735817237E+03  0.45733784864E+03  0.12502655898E+03 0.  0.
          2    1    1    2  501    0 -0.57913385735E+02  0.16763213042E+02 -0.11334691401E+04  0.11350714766E+04  0.00000000000E+00 0. -1.
          1    1    1    2  502    0  0.19604875178E+03 -0.32795803297E+02  0.13694435633E+04  0.13837941866E+04  0.00000000000E+00 0. -1.
         22    1    3    3    0    0  0.23422345036E+02  0.90854424701E+01  0.49685001672E+02  0.55675406626E+02  0.00000000000E+00 0. -1.
         22    1    3    3    0    0 -0.16155771108E+03  0.69471477850E+01  0.36767317070E+03  0.40166244201E+03  0.00000000000E+00 0. -1.
</event>
<event>
 7    1  0.4915160E-006  0.1218155E+03  0.7818608E-02  0.1357093E+00
          2   -1    0    0  502    0  0.00000000000E+00  0.00000000000E+00  0.18983816189E+02  0.18983816189E+02  0.00000000000E+00 0. -1.
          1   -1    0    0  501    0 -0.00000000000E+00 -0.00000000000E+00 -0.36420180458E+04  0.36420180458E+04  0.00000000000E+00 0. -1.
         25    2    1    2    0    0  0.10161831384E+02  0.11170509826E+03 -0.20464399647E+04  0.20533198279E+04  0.12499798013E+03 0.  0.
          2    1    1    2  501    0 -0.40423751792E+02  0.82354402693E+01 -0.13405904942E+04  0.13412251024E+04  0.00000000000E+00 0. -1.
          1    1    1    2  502    0  0.30261920407E+02 -0.11994053853E+03 -0.23600377069E+03  0.26645693158E+03  0.00000000000E+00 0. -1.
         22    1    3    3    0    0 -0.12938837244E+02  0.32214422408E+02 -0.11545509409E+03  0.12056144190E+03  0.00000000000E+00 0. -1.
         22    1    3    3    0    0  0.23100668628E+02  0.79490675856E+02 -0.19309848706E+04  0.19327583860E+04  0.00000000000E+00 0. -1.
</event>
<event>
 7    1  0.4915160E-006  0.1582710E+03  0.7818608E-02  0.1356019E+00
          2   -1    0    0  502    0  0.00000000000E+00  0.00000000000E+00  0.44076672184E+03  0.44076672184E+03  0.00000000000E+00 0. -1.
          1   -1    0    0  501    0 -0.00000000000E+00 -0.00000000000E+00 -0.53857846335E+03  0.53857846335E+03  0.00000000000E+00 0. -1.
         25    2    1    2    0    0 -0.17000796213E+03 -0.22250329573E+02 -0.60756642821E+02  0.22071338007E+03  0.12500096857E+03 0.  0.
          2    1    1    2  501    0  0.13213617530E+02  0.29189388770E+02 -0.38006880539E+03  0.38141698564E+03  0.00000000000E+00 0. -1.
          1    1    1    2  502    0  0.15679434460E+03 -0.69390591978E+01  0.34301370671E+03  0.37721481947E+03  0.00000000000E+00 0. -1.
         22    1    3    3    0    0 -0.11092665687E+03  0.54971964164E+01 -0.95761686901E+02  0.14664666055E+03  0.00000000000E+00 0. -1.
         22    1    3    3    0    0 -0.59081305261E+02 -0.27747525989E+02  0.35005044080E+02  0.74066719523E+02  0.00000000000E+00 0. -1.
</event>
<event>
 7    1  0.4915160E-006  0.1287966E+03  0.7818608E-02  0.1309926E+00
          2   -1    0    0  502    0  0.00000000000E+00  0.00000000000E+00  0.11168066781E+04  0.11168066781E+04  0.00000000000E+00 0. -1.
          1   -1    0    0  501    0 -0.00000000000E+00 -0.00000000000E+00 -0.70778113792E+03  0.70778113792E+03  0.00000000000E+00 0. -1.
         25    2    1    2    0    0 -0.16992648247E+03 -0.50132290790E+02  0.24271883394E+03  0.32546270491E+03  0.12500113564E+03 0.  0.
          2    1    1    2  501    0  0.58812800230E+02 -0.41371227841E+01 -0.66049803799E+03  0.66312421117E+03  0.00000000000E+00 0. -1.
          1    1    1    2  502    0  0.11111368224E+03  0.54269413574E+02  0.82680474426E+03  0.83600089998E+03  0.00000000000E+00 0. -1.
         22    1    3    3    0    0 -0.16164999007E+03 -0.83676814717E+01  0.22957918720E+03  0.28090450438E+03  0.00000000000E+00 0. -1.
         22    1    3    3    0    0 -0.82764924069E+01 -0.41764609319E+02  0.13139646735E+02  0.44558200529E+02  0.00000000000E+00 0. -1.
</event>
<event>
 7    1  0.4915160E-006  0.9608538E+02  0.7818608E-02  0.1357208E+00
          2   -1    0    0  502    0  0.00000000000E+00  0.00000000000E+00  0.10497784053E+04  0.10497784053E+04  0.00000000000E+00 0. -1.
          1   -1    0    0  501    0 -0.00000000000E+00 -0.00000000000E+00 -0.52564650403E+03  0.52564650403E+03  0.00000000000E+00 0. -1.
         25    2    1    2    0    0 -0.28706409518E+02  0.14067915317E+03  0.93706298358E+02  0.21218167957E+03  0.12500205083E+03 0.  0.
          2    1    1    2  501    0  0.41600613348E+01 -0.94553732574E+02 -0.46083436047E+03  0.47045299685E+03  0.00000000000E+00 0. -1.
          1    1    1    2  502    0  0.24546348183E+02 -0.46125420593E+02  0.89125996335E+03  0.89279023287E+03  0.00000000000E+00 0. -1.
         22    1    3    3    0    0 -0.18164332969E+02  0.48929536663E+02 -0.28136593703E+02  0.59293426748E+02  0.00000000000E+00 0. -1.
         22    1    3    3    0    0 -0.10542076549E+02  0.91749616504E+02  0.12184289206E+03  0.15288825283E+03  0.00000000000E+00 0. -1.
</event>
<event>
 7    1  0.4915160E-006  0.9197863E+02  0.7818608E-02  0.1454026E+00
          2   -1    0    0  502    0  0.00000000000E+00  0.00000000000E+00  0.87027950991E+03  0.87027950991E+03  0.00000000000E+00 0. -1.
          1   -1    0    0  501    0 -0.00000000000E+00 -0.00000000000E+00 -0.23785294771E+03  0.23785294771E+03  0.00000000000E+00 0. -1.
         25    2    1    2    0    0  0.90488715173E+02 -0.62562232636E+02  0.48368395562E+03  0.51154379186E+03  0.12499856613E+03 0.  0.
          2    1    1    2  501    0 -0.16422529456E+02  0.19501190091E+02 -0.21824714366E+03  0.21973122583E+03  0.00000000000E+00 0. -1.
          1    1    1    2  502    0 -0.74066185717E+02  0.43061042545E+02  0.36698975024E+03  0.37685743993E+03  0.00000000000E+00 0. -1.
         22    1    3    3    0    0 -0.72783550647E+01 -0.54692142655E+02  0.87852935688E+02  0.10374171403E+03  0.00000000000E+00 0. -1.
         22    1    3    3    0    0  0.97767070238E+02 -0.78700899809E+01  0.39583101994E+03  0.40780207783E+03  0.00000000000E+00 0. -1.
</event>
<event>
 7    1  0.4915160E-006  0.1328161E+03  0.7818608E-02  0.1279523E+00
          2   -1    0    0  502    0  0.00000000000E+00  0.00000000000E+00  0.10878612079E+04  0.10878612079E+04  0.00000000000E+00 0. -1.
          1   -1    0    0  501    0 -0.00000000000E+00 -0.00000000000E+00 -0.17222349405E+03  0.17222349405E+03  0.00000000000E+00 0. -1.
         25    2    1    2    0    0  0.90404617826E+01  0.13330660047E+03 -0.11211365315E+02  0.18331311356E+03  0.12500249283E+03 0.  0.
          2    1    1    2  501    0  0.71153254711E+02 -0.26271025550E+02 -0.49976294928E+02  0.90832717091E+02  0.00000000000E+00 0. -1.
          1    1    1    2  502    0 -0.80193716493E+02 -0.10703557492E+03  0.97682537405E+03  0.98593887126E+03  0.00000000000E+00 0. -1.
         22    1    3    3    0    0 -0.25012309077E+02  0.14244601200E+03 -0.22340108989E+02  0.14634056994E+03  0.00000000000E+00 0. -1.
         22    1    3    3    0    0  0.34052770860E+02 -0.91394115288E+01  0.11128743673E+02  0.36972543624E+02  0.00000000000E+00 0. -1.
</event>
<event>
 7    1  0.4915160E-006  0.1705536E+03  0.7818608E-02  0.1334972E+00
          2   -1    0    0  502    0  0.00000000000E+00  0.00000000000E+00  0.11008282084E+04  0.11008282084E+04  0.00000000000E+00 0. -1.
          1   -1    0    0  501    0 -0.00000000000E+00 -0.00000000000E+00 -0.11930740814E+04  0.11930740814E+04  0.00000000000E+00 0. -1.
         25    2    1    2    0    0  0.17683146411E+03 -0.38646866634E+02 -0.69088105365E+03  0.72505489854E+03  0.12500011445E+03 0.  0.
          2    1    1    2  501    0 -0.16328569540E+03  0.56963300086E+01 -0.47104400771E+03  0.49857509334E+03  0.00000000000E+00 0. -1.
          1    1    1    2  502    0 -0.13545768711E+02  0.32950536626E+02  0.10696791884E+04  0.10702722980E+04  0.00000000000E+00 0. -1.
         22    1    3    3    0    0 -0.46641464671E+01 -0.16916394236E+02 -0.10285347719E+02  0.20339789427E+02  0.00000000000E+00 0.  1.
         22    1    3    3    0    0  0.18149561058E+03 -0.21730472398E+02 -0.68059570593E+03  0.70471510912E+03  0.00000000000E+00 0.  1.
</event>
<event>
 7    1  0.4915160E-006  0.1921716E+03  0.7818608E-02  0.1282809E+00
          2   -1    0    0  502    0  0.00000000000E+00  0.00000000000E+00  0.12210184624E+03  0.12210184624E+03  0.00000000000E+00 0. -1.
          1   -1    0    0  501    0 -0.00000000000E+00 -0.00000000000E+00 -0.11640767406E+04  0.11640767406E+04  0.00000000000E+00 0. -1.
         25    2    1    2    0    0  0.19527582908E+03  0.90357994233E+02 -0.51017708642E+03  0.56762333029E+03  0.12497347333E+03 0.  0.
          2    1    1    2  501    0 -0.17754678219E+03 -0.42740909596E+02 -0.60358463258E+03  0.63060610044E+03  0.00000000000E+00 0. -1.
          1    1    1    2  502    0 -0.17729046891E+02 -0.47617084637E+02  0.71786824696E+02  0.87949156067E+02  0.00000000000E+00 0. -1.
         22    1    3    3    0    0  0.21240593962E+03  0.89908934665E+02 -0.45973930632E+03  0.51435408961E+03  0.00000000000E+00 0. -1.
         22    1    3    3    0    0 -0.17130110540E+02  0.44905956732E+00 -0.50437780101E+02  0.53269240684E+02  0.00000000000E+00 0. -1.
</event>
<event>
 7    1  0.4915160E-006  0.5104671E+02  0.7818608E-02  0.1554668E+00
          2   -1    0    0  502    0  0.00000000000E+00  0.00000000000E+00  0.54340858021E+03  0.54340858021E+03  0.00000000000E+00 0. -1.
          1   -1    0    0  501    0 -0.00000000000E+00 -0.00000000000E+00 -0.43120769994E+03  0.43120769994E+03  0.00000000000E+00 0. -1.
         25    2    1    2    0    0  0.39440025648E+01 -0.64173907302E+02  0.25656848869E+03  0.29255078719E+03  0.12499891265E+03 0.  0.
          2    1    1    2  501    0  0.13578956757E+02  0.49149278608E+02 -0.41114324317E+03  0.41429314025E+03  0.00000000000E+00 0. -1.
          1    1    1    2  502    0 -0.17522959322E+02  0.15024628694E+02  0.26677563476E+03  0.26777235270E+03  0.00000000000E+00 0. -1.
         22    1    3    3    0    0  0.49993017784E+02 -0.17614298826E+02  0.19706582228E+03  0.20406984996E+03  0.00000000000E+00 0. -1.
         22    1    3    3    0    0 -0.46049015219E+02 -0.46559608476E+02  0.59502666403E+02  0.88480937230E+02  0.00000000000E+00 0. -1.
</event>
<event>
 7    1  0.4915160E-006  0.1454095E+03  0.7818608E-02  0.1358861E+00
          2   -1    0    0  502    0  0.00000000000E+00  0.00000000000E+00  0.82246083614E+03  0.82246083614E+03  0.00000000000E+00 0. -1.
          1   -1    0    0  501    0 -0.00000000000E+00 -0.00000000000E+00 -0.41810444975E+03  0.41810444975E+03  0.00000000000E+00 0. -1.
         25    2    1    2    0    0  0.11368252985E+03 -0.13011529918E+03  0.30979424573E+02  0.21549381580E+03  0.12499660487E+03 0.  0.
          2    1    1    2  501    0 -0.10304849412E+03  0.97769665622E+02 -0.30992208445E+03  0.34092462229E+03  0.00000000000E+00 0. -1.
          1    1    1    2  502    0 -0.10634035731E+02  0.32345633554E+02  0.68329904626E+03  0.68414684780E+03  0.00000000000E+00 0. -1.
         22    1    3    3    0    0  0.90175460318E+02 -0.13868096430E+02  0.32593222754E+02  0.96882691496E+02  0.00000000000E+00 0. -1.
         22    1    3    3    0    0  0.23507069533E+02 -0.11624720275E+03 -0.16137981811E+01  0.11861112430E+03  0.00000000000E+00 0. -1.
</event>
<event>
 7    1  0.4915160E-006  0.3460854E+02  0.7818608E-02  0.1581835E+00
          2   -1    0    0  502    0  0.00000000000E+00  0.00000000000E+00  0.18318927481E+04  0.18318927481E+04  0.00000000000E+00 0. -1.
          1   -1    0    0  501    0 -0.00000000000E+00 -0.00000000000E+00 -0.11397901020E+03  0.11397901020E+03  0.00000000000E+00 0. -1.
         25    2    1    2    0    0 -0.24983322931E+02  0.40647607739E+02 -0.55101229608E+02  0.14470296991E+03  0.12500563810E+03 0.  0.
          2    1    1    2  501    0 -0.71490974589E+01 -0.27809129422E+02  0.91180909639E+00  0.28727837884E+02  0.00000000000E+00 0. -1.
          1    1    1    2  502    0  0.32132420390E+02 -0.12838478317E+02  0.17721031584E+04  0.17724409505E+04  0.00000000000E+00 0. -1.
         22    1    3    3    0    0 -0.65180312823E+02 -0.13124173098E+02 -0.31139700750E+02  0.73419330302E+02  0.00000000000E+00 0.  1.
         22    1    3    3    0    0  0.40196989892E+02  0.53771780837E+02 -0.23961528858E+02  0.71283639609E+02  0.00000000000E+00 0.  1.
</event>
<event>
 7    1  0.4915160E-006  0.7717676E+02  0.7818608E-02  0.1461616E+00
          2   -1    0    0  502    0  0.00000000000E+00  0.00000000000E+00  0.37103522737E+03  0.37103522737E+03  0.00000000000E+00 0. -1.
          1   -1    0    0  501    0 -0.00000000000E+00 -0.00000000000E+00 -0.26684423377E+03  0.26684423377E+03  0.00000000000E+00 0. -1.
         25    2    1    2    0    0 -0.57848627412E+02  0.33330556326E+02 -0.34634721373E+02  0.14588570367E+03  0.12500273969E+03 0.  0.
          2    1    1    2  501    0  0.78352731949E+02 -0.13177494441E+02 -0.16693804435E+03  0.18488133388E+03  0.00000000000E+00 0. -1.
          1    1    1    2  502    0 -0.20504104537E+02 -0.20153061885E+02  0.30576375933E+03  0.30711242359E+03  0.00000000000E+00 0. -1.
         22    1    3    3    0    0 -0.95277220227E+02  0.36098839946E+02 -0.13399776552E+02  0.10276394772E+03  0.00000000000E+00 0. -1.
         22    1    3    3    0    0  0.37428592814E+02 -0.27682836201E+01 -0.21234944821E+02  0.43121755945E+02  0.00000000000E+00 0. -1.
</event>
<event>
 7    1  0.4915160E-006  0.1872098E+03  0.7818608E-02  0.1242196E+00
          2   -1    0    0  502    0  0.00000000000E+00  0.00000000000E+00  0.42020527708E+04  0.42020527708E+04  0.00000000000E+00 0. -1.
          1   -1    0    0  501    0 -0.00000000000E+00 -0.00000000000E+00 -0.15490368211E+03  0.15490368211E+03  0.00000000000E+00 0. -1.
         25    2    1    2    0    0 -0.13399122813E+03 -0.76634434800E+01  0.42149595610E+03  0.45967970968E+03  0.12503686214E+03 0.  0.
          2    1    1    2  501    0  0.18516577589E+03  0.66028871330E+02 -0.64049920955E+02  0.20675727021E+03  0.00000000000E+00 0. -1.
          1    1    1    2  502    0 -0.51174547759E+02 -0.58365427850E+02  0.36897030536E+04  0.36905194731E+04  0.00000000000E+00 0. -1.
         22    1    3    3    0    0 -0.57858456130E+02 -0.23079522744E+02  0.49232695323E+02  0.79398511350E+02  0.00000000000E+00 0.  1.
         22    1    3    3    0    0 -0.76132772004E+02  0.15416079264E+02  0.37226326078E+03  0.38028119833E+03  0.00000000000E+00 0.  1.
</event>
<event>
 7    1  0.4915160E-006  0.7300133E+02  0.7818608E-02  0.1351784E+00
          2   -1    0    0  502    0  0.00000000000E+00  0.00000000000E+00  0.32805293447E+03  0.32805293447E+03  0.00000000000E+00 0. -1.
          1   -1    0    0  501    0 -0.00000000000E+00 -0.00000000000E+00 -0.42624073902E+03  0.42624073902E+03  0.00000000000E+00 0. -1.
         25    2    1    2    0    0 -0.86190440898E+01  0.23120595699E+02  0.15533776246E+02  0.12835761367E+03  0.12500211565E+03 0.  0.
          2    1    1    2  501    0 -0.61266241022E+02 -0.44221339272E+02 -0.36063074834E+03  0.36846114555E+03  0.00000000000E+00 0. -1.
          1    1    1    2  502    0  0.69885285112E+02  0.21100743573E+02  0.24690916755E+03  0.25747491426E+03  0.00000000000E+00 0. -1.
         22    1    3    3    0    0  0.51888850116E+02  0.23860991460E+01  0.33636336930E+02  0.61883353154E+02  0.00000000000E+00 0.  1.
         22    1    3    3    0    0 -0.60507894205E+02  0.20734496553E+02 -0.18102560685E+02  0.66474260521E+02  0.00000000000E+00 0.  1.
</event>
<event>
 7    1  0.4915160E-006  0.4856719E+02  0.7818608E-02  0.1470049E+00
          2   -1    0    0  502    0  0.00000000000E+00  0.00000000000E+00  0.29212332036E+03  0.29212332036E+03  0.00000000000E+00 0. -1.
          1   -1    0    0  501    0 -0.00000000000E+00 -0.00000000000E+00 -0.63172212406E+03  0.63172212406E+03  0.00000000000E+00 0. -1.
         25    2    1    2    0    0 -0.42867538743E+01  0.80341320010E+02 -0.52037948524E+02  0.15749920964E+03  0.12499979596E+03 0.  0.
          2    1    1    2  501    0  0.23549985638E+02 -0.41905832596E+02 -0.52391407042E+03  0.52611467743E+03  0.00000000000E+00 0. -1.
          1    1    1    2  502    0 -0.19263231763E+02 -0.38435487414E+02  0.23635321525E+03  0.24023155735E+03  0.00000000000E+00 0. -1.
         22    1    3    3    0    0  0.43393288818E+02  0.56494276473E+02 -0.71325582018E+02  0.10080634622E+03  0.00000000000E+00 0.  1.
         22    1    3    3    0    0 -0.47680042693E+02  0.23847043538E+02  0.19287633494E+02  0.56692863417E+02  0.00000000000E+00 0.  1.
</event>
<event>
 7    1  0.4915160E-006  0.5547076E+02  0.7818608E-02  0.1467998E+00
          2   -1    0    0  502    0  0.00000000000E+00  0.00000000000E+00  0.25613017501E+04  0.25613017501E+04  0.00000000000E+00 0. -1.
          1   -1    0    0  501    0 -0.00000000000E+00 -0.00000000000E+00 -0.36028315411E+03  0.36028315411E+03  0.00000000000E+00 0. -1.
         25    2    1    2    0    0 -0.42760255690E+02  0.82593151982E+02 -0.27068939573E+01  0.15583461551E+03  0.12500812731E+03 0.  0.
          2    1    1    2  501    0  0.13121859849E+02 -0.35875301658E+02 -0.27940465220E+03  0.28200386548E+03  0.00000000000E+00 0. -1.
          1    1    1    2  502    0  0.29638395841E+02 -0.46717850324E+02  0.24831301422E+04  0.24837464232E+04  0.00000000000E+00 0. -1.
         22    1    3    3    0    0  0.34096865223E+02  0.25508959117E+02 -0.34660283720E+02  0.54905723571E+02  0.00000000000E+00 0.  1.
         22    1    3    3    0    0 -0.76857120913E+02  0.57084192865E+02  0.31953389763E+02  0.10092889194E+03  0.00000000000E+00 0.  1.
</event>
<event>
 7    1  0.4915160E-006  0.1440960E+03  0.7818608E-02  0.1385158E+00
          2   -1    0    0  502    0  0.00000000000E+00  0.00000000000E+00  0.21367443260E+03  0.21367443260E+03  0.00000000000E+00 0. -1.
          1   -1    0    0  501    0 -0.00000000000E+00 -0.00000000000E+00 -0.28127971337E+04  0.28127971337E+04  0.00000000000E+00 0. -1.
         25    2    1    2    0    0  0.56043145602E+02  0.13452899952E+03  0.15273994739E+02  0.19259358581E+03  0.12498043247E+03 0.  0.
          2    1    1    2  501    0 -0.79641111064E+02 -0.12010832782E+03 -0.27204569553E+04  0.27242714187E+04  0.00000000000E+00 0. -1.
          1    1    1    2  502    0  0.23597965462E+02 -0.14420671692E+02  0.10606025949E+03  0.10960656179E+03  0.00000000000E+00 0. -1.
         22    1    3    3    0    0  0.45456544008E+02  0.15082988699E+03 -0.13238662895E+02  0.15808609806E+03  0.00000000000E+00 0.  1.
         22    1    3    3    0    0  0.10586601594E+02 -0.16300887476E+02  0.28512657635E+02  0.34507487756E+02  0.00000000000E+00 0.  1.
</event>
<event>
 7    1  0.4915160E-006  0.7484284E+02  0.7818608E-02  0.1481852E+00
          2   -1    0    0  502    0  0.00000000000E+00  0.00000000000E+00  0.23388704447E+03  0.23388704447E+03  0.00000000000E+00 0. -1.
          1   -1    0    0  501    0 -0.00000000000E+00 -0.00000000000E+00 -0.15168709073E+04  0.15168709073E+04  0.00000000000E+00 0. -1.
         25    2    1    2    0    0 -0.45850015840E+02  0.25232734254E+02 -0.43717965454E+03  0.45770126660E+03  0.12500193707E+03 0.  0.
          2    1    1    2  501    0  0.68980241674E+02 -0.36331254408E+02 -0.10672680406E+04  0.10701118186E+04  0.00000000000E+00 0. -1.
          1    1    1    2  502    0 -0.23130225834E+02  0.11098520154E+02  0.22146383234E+03  0.22294486657E+03  0.00000000000E+00 0. -1.
         22    1    3    3    0    0 -0.10813676395E+02  0.14205399040E+02 -0.41374811858E+03  0.41413311216E+03  0.00000000000E+00 0.  1.
         22    1    3    3    0    0 -0.35036339445E+02  0.11027335214E+02 -0.23431535962E+02  0.43568154438E+02  0.00000000000E+00 0.  1.
</event>
<event>
 7    1  0.4915160E-006  0.8243362E+02  0.7818608E-02  0.1453616E+00
          2   -1    0    0  502    0  0.00000000000E+00  0.00000000000E+00  0.48862182098E+02  0.48862182098E+02  0.00000000000E+00 0. -1.
          1   -1    0    0  501    0 -0.00000000000E+00 -0.00000000000E+00 -0.40862978621E+03  0.40862978621E+03  0.00000000000E+00 0. -1.
         25    2    1    2    0    0 -0.60264096717E+02  0.94345900575E+01 -0.14261310041E+03  0.19921104406E+03  0.12500308325E+03 0.  0.
          2    1    1    2  501    0  0.87493631867E+02 -0.17958761789E+02 -0.21095243264E+03  0.22908204116E+03  0.00000000000E+00 0. -1.
          1    1    1    2  502    0 -0.27229535151E+02  0.85241717311E+01 -0.62020710495E+01  0.29198883087E+02  0.00000000000E+00 0. -1.
         22    1    3    3    0    0 -0.54625815144E+02  0.20631694178E+02 -0.16418576693E+03  0.17426018635E+03  0.00000000000E+00 0. -1.
         22    1    3    3    0    0 -0.56382815728E+01 -0.11197104120E+02  0.21572666516E+02  0.24950857708E+02  0.00000000000E+00 0. -1.
</event>
<event>
 7    1  0.4915160E-006  0.7612708E+02  0.7818608E-02  0.1389778E+00
          2   -1    0    0  502    0  0.00000000000E+00  0.00000000000E+00  0.75315756057E+03  0.75315756057E+03  0.00000000000E+00 0. -1.
          1   -1    0    0  501    0 -0.00000000000E+00 -0.00000000000E+00 -0.47462674432E+03  0.47462674432E+03  0.00000000000E+00 0. -1.
         25    2    1    2    0    0  0.35687079208E+02  0.25544442796E+02 -0.83221290458E+02  0.15645101778E+03  0.12500020639E+03 0.  0.
          2    1    1    2  501    0  0.41067155580E+02 -0.29273282039E+02 -0.35092240865E+03  0.35452781724E+03  0.00000000000E+00 0. -1.
          1    1    1    2  502    0 -0.76754234789E+02  0.37288392427E+01  0.71267451535E+03  0.71680546987E+03  0.00000000000E+00 0. -1.
         22    1    3    3    0    0  0.79148377770E+02  0.78682421586E+01 -0.28788289362E+02  0.84588063831E+02  0.00000000000E+00 0.  1.
         22    1    3    3    0    0 -0.43461298562E+02  0.17676200638E+02 -0.54433001096E+02  0.71862953947E+02  0.00000000000E+00 0.  1.
</event>
<event>
 7    1  0.4915160E-006  0.6305130E+02  0.7818608E-02  0.1407812E+00
          2   -1    0    0  502    0  0.00000000000E+00  0.00000000000E+00  0.31578810333E+04  0.31578810333E+04  0.00000000000E+00 0. -1.
          1   -1    0    0  501    0 -0.00000000000E+00 -0.00000000000E+00 -0.13994410476E+02  0.13994410476E+02  0.00000000000E+00 0. -1.
         25    2    1    2    0    0  0.21905849550E+02 -0.10979173509E+02  0.14195981881E+04  0.14253017097E+04  0.12500215790E+03 0.  0.
          2    1    1    2  501    0 -0.18817086855E+02  0.63663822737E+02  0.92099768687E+02  0.11353207686E+03  0.00000000000E+00 0. -1.
          1    1    1    2  502    0 -0.30887626944E+01 -0.52684649227E+02  0.16321886660E+04  0.16330416572E+04  0.00000000000E+00 0. -1.
         22    1    3    3    0    0  0.60456940127E+02 -0.38675335625E+02  0.59043839291E+03  0.59478426258E+03  0.00000000000E+00 0.  1.
         22    1    3    3    0    0 -0.38551090577E+02  0.27696162116E+02  0.82915979521E+03  0.83051744712E+03  0.00000000000E+00 0.  1.
</event>
<event>
 7    1  0.4915160E-006  0.9503029E+02  0.7818608E-02  0.1311250E+00
          2   -1    0    0  502    0  0.00000000000E+00  0.00000000000E+00  0.32856045647E+03  0.32856045647E+03  0.00000000000E+00 0. -1.
          1   -1    0    0  501    0 -0.00000000000E+00 -0.00000000000E+00 -0.20659385975E+04  0.20659385975E+04  0.00000000000E+00 0. -1.
         25    2    1    2    0    0 -0.16384718155E+03  0.40059191824E+02 -0.18031764124E+03  0.27674982023E+03  0.12500149400E+03 0.  0.
          2    1    1    2  501    0  0.93157562497E+02 -0.48922653213E+01 -0.18306345671E+04  0.18330098701E+04  0.00000000000E+00 0. -1.
          1    1    1    2  502    0  0.70689619056E+02 -0.35166926503E+02  0.27357406724E+03  0.28473936368E+03  0.00000000000E+00 0. -1.
         22    1    3    3    0    0 -0.70625293106E+02  0.79287553931E+02 -0.11409271019E+03  0.15585761050E+03  0.00000000000E+00 0.  1.
         22    1    3    3    0    0 -0.93221888447E+02 -0.39228362107E+02 -0.66224931051E+02  0.12089220972E+03  0.00000000000E+00 0.  1.
</event>
<event>
 7    1  0.4915160E-006  0.1223646E+03  0.7818608E-02  0.1315261E+00
          2   -1    0    0  502    0  0.00000000000E+00  0.00000000000E+00  0.53696068093E+03  0.53696068093E+03  0.00000000000E+00 0. -1.
          1   -1    0    0  501    0 -0.00000000000E+00 -0.00000000000E+00 -0.77553940838E+03  0.77553940838E+03  0.00000000000E+00 0. -1.
         25    2    1    2    0    0  0.76123287192E+02 -0.61821428984E+01 -0.14249063843E+03  0.20435190807E+03  0.12499258596E+03 0.  0.
          2    1    1    2  501    0 -0.13329123395E+03 -0.89480721297E+01 -0.59293309600E+03  0.60779624659E+03  0.00000000000E+00 0. -1.
          1    1    1    2  502    0  0.57167946758E+02  0.15130215028E+02  0.49684500698E+03  0.50035193465E+03  0.00000000000E+00 0. -1.
         22    1    3    3    0    0 -0.19735261546E+02 -0.24088200747E+02 -0.86431786829E+02  0.91870429072E+02  0.00000000000E+00 0. -1.
         22    1    3    3    0    0  0.95858548737E+02  0.17906057849E+02 -0.56058851606E+02  0.11248147900E+03  0.00000000000E+00 0. -1.
</event>
<event>
 7    1  0.4915160E-006  0.8578403E+02  0.7818608E-02  0.1402664E+00
          2   -1    0    0  502    0  0.00000000000E+00  0.00000000000E+00  0.67294531892E+02  0.67294531892E+02  0.00000000000E+00 0. -1.
          1   -1    0    0  501    0 -0.00000000000E+00 -0.00000000000E+00 -0.97197892660E+03  0.97197892660E+03  0.00000000000E+00 0. -1.
         25    2    1    2    0    0  0.31820480747E+02 -0.10055862709E+03 -0.13630046149E+03  0.21290290819E+03  0.12500100813E+03 0.  0.
          2    1    1    2  501    0 -0.35177416660E+02  0.19849115089E+02 -0.73947027606E+03  0.74057256714E+03  0.00000000000E+00 0. -1.
          1    1    1    2  502    0  0.33569359136E+01  0.80709512004E+02 -0.28913657157E+02  0.85797983175E+02  0.00000000000E+00 0. -1.
         22    1    3    3    0    0  0.61425015460E+02 -0.98164452319E+02 -0.58729265016E+02  0.12983997379E+03  0.00000000000E+00 0. -1.
         22    1    3    3    0    0 -0.29604534713E+02 -0.23941747743E+01 -0.77571196476E+02  0.83062934400E+02  0.00000000000E+00 0. -1.
</event>
<event>
 7    1  0.4915160E-006  0.4964762E+02  0.7818608E-02  0.1452171E+00
          2   -1    0    0  502    0  0.00000000000E+00  0.00000000000E+00  0.35339591535E+04  0.35339591535E+04  0.00000000000E+00 0. -1.
          1   -1    0    0  501    0 -0.00000000000E+00 -0.00000000000E+00 -0.10242203457E+04  0.10242203457E+04  0.00000000000E+00 0. -1.
         25    2    1    2    0    0 -0.38197359405E+02  0.29071677700E+02  0.83885461389E+03  0.84947394447E+03  0.12499887356E+03 0.  0.
          2    1    1    2  501    0 -0.92384646259E+01 -0.46979881779E+02 -0.10181090749E+04  0.10192342944E+04  0.00000000000E+00 0. -1.
          1    1    1    2  502    0  0.47435824031E+02  0.17908204079E+02  0.26889932687E+04  0.26894712603E+04  0.00000000000E+00 0. -1.
         22    1    3    3    0    0  0.46487419236E+01  0.72273122998E+02  0.49655628124E+03  0.50180987989E+03  0.00000000000E+00 0. -1.
         22    1    3    3    0    0 -0.42846101329E+02 -0.43201445298E+02  0.34229833264E+03  0.34766406459E+03  0.00000000000E+00 0. -1.
</event>
<event>
 7    1  0.4915160E-006  0.8407357E+02  0.7818608E-02  0.1442724E+00
          2   -1    0    0  502    0  0.00000000000E+00  0.00000000000E+00  0.10499418051E+04  0.10499418051E+04  0.00000000000E+00 0. -1.
          1   -1    0    0  501    0 -0.00000000000E+00 -0.00000000000E+00 -0.20148038033E+03  0.20148038033E+03  0.00000000000E+00 0. -1.
         25    2    1    2    0    0  0.11092514603E+03 -0.21685176672E+02  0.18213911344E+03  0.24814184725E+03  0.12500033922E+03 0.  0.
          2    1    1    2  501    0 -0.81143853613E+02  0.15995795467E+02 -0.15803358344E+03  0.17836704838E+03  0.00000000000E+00 0. -1.
          1    1    1    2  502    0 -0.29781292412E+02  0.56893812051E+01  0.82435589478E+03  0.82491328980E+03  0.00000000000E+00 0. -1.
         22    1    3    3    0    0  0.12006968993E+03 -0.55115518150E+02  0.12864633837E+03  0.18440263327E+03  0.00000000000E+00 0. -1.
         22    1    3    3    0    0 -0.91445439019E+01  0.33430341478E+02  0.53492775067E+02  0.63739213981E+02  0.00000000000E+00 0. -1.
</event>
<event>
 7    1  0.4915160E-006  0.8564443E+02  0.7818608E-02  0.1395014E+00
          2   -1    0    0  502    0  0.00000000000E+00  0.00000000000E+00  0.46301591543E+03  0.46301591543E+03  0.00000000000E+00 0. -1.
          1   -1    0    0  501    0 -0.00000000000E+00 -0.00000000000E+00 -0.21929343384E+03  0.21929343384E+03  0.00000000000E+00 0. -1.
         25    2    1    2    0    0  0.28826798667E+02  0.80594103426E+02  0.28382463128E+03  0.32172747291E+03  0.12500300667E+03 0.  0.
          2    1    1    2  501    0  0.13951695793E+02 -0.84829421046E+02 -0.18791423524E+03  0.20664568782E+03  0.00000000000E+00 0. -1.
          1    1    1    2  502    0 -0.42778494460E+02  0.42353176200E+01  0.14781208555E+03  0.15393618853E+03  0.00000000000E+00 0. -1.
         22    1    3    3    0    0  0.11380263044E+02 -0.29576782294E+02  0.26657094703E+02  0.41411316519E+02  0.00000000000E+00 0.  1.
         22    1    3    3    0    0  0.17446535622E+02  0.11017088572E+03  0.25716753658E+03  0.28031615640E+03  0.00000000000E+00 0.  1.
</event>
<event>
 7    1  0.4915160E-006  0.6226146E+02  0.7818608E-02  0.1436887E+00
          2   -1    0    0  502    0  0.00000000000E+00  0.00000000000E+00  0.11220319675E+04  0.11220319675E+04  0.00000000000E+00 0. -1.
          1   -1    0    0  501    0 -0.00000000000E+00 -0.00000000000E+00 -0.35448819521E+02  0.35448819521E+02  0.00000000000E+00 0. -1.
         25    2    1    2    0    0 -0.12828415960E+02  0.17055407133E+02  0.85107680790E+03  0.86047201616E+03  0.12499960986E+03 0.  0.
          2    1    1    2  501    0 -0.62099526109E+02  0.44875225554E+01  0.16312956266E+02  0.64363044860E+02  0.00000000000E+00 0. -1.
          1    1    1    2  502    0  0.74927942069E+02 -0.21542929688E+02  0.21919338381E+03  0.23264572600E+03  0.00000000000E+00 0. -1.
         22    1    3    3    0    0  0.24223941416E+02  0.44931989209E+02  0.71285324460E+03  0.71467855105E+03  0.00000000000E+00 0.  1.
         22    1    3    3    0    0 -0.37052357376E+02 -0.27876582077E+02  0.13822356330E+03  0.14579346511E+03  0.00000000000E+00 0.  1.
</event>
<event>
 7    1  0.4915160E-006  0.4937397E+02  0.7818608E-02  0.1460090E+00
          2   -1    0    0  502    0  0.00000000000E+00  0.00000000000E+00  0.97361674722E+03  0.97361674722E+03  0.00000000000E+00 0. -1.
          1   -1    0    0  501    0 -0.00000000000E+00 -0.00000000000E+00 -0.44611084189E+02  0.44611084189E+02  0.00000000000E+00 0. -1.
         25    2    1    2    0    0  0.22398257490E+02  0.48189237831E+02  0.24198464241E+03  0.27749860056E+03  0.12500008628E+03 0.  0.
          2    1    1    2  501    0 -0.49438963250E+02 -0.11671335170E+02 -0.13931482205E+01  0.50817044521E+02  0.00000000000E+00 0. -1.
          1    1    1    2  502    0  0.27040705759E+02 -0.36517902661E+02  0.68841416884E+03  0.68991218633E+03  0.00000000000E+00 0. -1.
         22    1    3    3    0    0  0.34697302864E+02  0.71096334980E+02  0.23848490279E+03  0.25126408524E+03  0.00000000000E+00 0.  1.
         22    1    3    3    0    0 -0.12299045373E+02 -0.22907097148E+02  0.34997396266E+01  0.26234515325E+02  0.00000000000E+00 0.  1.
</event>
<event>
 7    1  0.4915160E-006  0.9286520E+02  0.7818608E-02  0.1389677E+00
          2   -1    0    0  502    0  0.00000000000E+00  0.00000000000E+00  0.16800329325E+04  0.16800329325E+04  0.00000000000E+00 0. -1.
          1   -1    0    0  501    0 -0.00000000000E+00 -0.00000000000E+00 -0.15252039988E+04  0.15252039988E+04  0.00000000000E+00 0. -1.
         25    2    1    2    0    0 -0.11083922286E+03 -0.51068524732E+02  0.72058460354E+03  0.74146046242E+03  0.12501247509E+03 0.  0.
          2    1    1    2  501    0  0.91695574322E+02  0.14387245817E+02 -0.15128921250E+04  0.15157366701E+04  0.00000000000E+00 0. -1.
          1    1    1    2  502    0  0.19143648535E+02  0.36681278915E+02  0.94713645512E+03  0.94803979881E+03  0.00000000000E+00 0. -1.
         22    1    3    3    0    0  0.64607032958E+01 -0.42003100026E+02  0.35196621052E+03  0.35452251614E+03  0.00000000000E+00 0.  1.
         22    1    3    3    0    0 -0.11729992615E+03 -0.90654247063E+01  0.36861839302E+03  0.38693794628E+03  0.00000000000E+00 0.  1.
</event>
<event>
 7    1  0.4915160E-006  0.1563602E+03  0.7818608E-02  0.1261335E+00
          2   -1    0    0  502    0  0.00000000000E+00  0.00000000000E+00  0.65556762175E+03  0.65556762175E+03  0.00000000000E+00 0. -1.
          1   -1    0    0  501    0 -0.00000000000E+00 -0.00000000000E+00 -0.56434102952E+03  0.56434102952E+03  0.00000000000E+00 0. -1.
         25    2    1    2    0    0  0.31056584460E+02  0.13396101968E+03  0.93511247183E+02  0.20803760663E+03  0.12500090476E+03 0.  0.
          2    1    1    2  501    0  0.76152824452E+02 -0.99998804037E+01 -0.49070878312E+03  0.49668336001E+03  0.00000000000E+00 0. -1.
          1    1    1    2  502    0 -0.10720940891E+03 -0.12396113927E+03  0.48842412817E+03  0.51518768463E+03  0.00000000000E+00 0. -1.
         22    1    3    3    0    0  0.70866638206E+02  0.12028048796E+03  0.52162533481E+02  0.14903156073E+03  0.00000000000E+00 0.  1.
         22    1    3    3    0    0 -0.39810053746E+02  0.13680531712E+02  0.41348713701E+02  0.59006045893E+02  0.00000000000E+00 0.  1.
</event>
<event>
 7    1  0.4915160E-006  0.5996263E+02  0.7818608E-02  0.1408090E+00
          2   -1    0    0  502    0  0.00000000000E+00  0.00000000000E+00  0.11254947574E+04  0.11254947574E+04  0.00000000000E+00 0. -1.
          1   -1    0    0  501    0 -0.00000000000E+00 -0.00000000000E+00 -0.70393977413E+03  0.70393977413E+03  0.00000000000E+00 0. -1.
         25    2    1    2    0    0 -0.45476958127E+02  0.41240322983E+02 -0.99029092342E+02  0.17087935227E+03  0.12499629572E+03 0.  0.
          2    1    1    2  501    0 -0.13317164081E+02 -0.53748148310E+02 -0.56680628722E+03  0.56950467736E+03  0.00000000000E+00 0. -1.
          1    1    1    2  502    0  0.58794122208E+02  0.12507825328E+02  0.10873903628E+04  0.10890505019E+04  0.00000000000E+00 0. -1.
         22    1    3    3    0    0 -0.17551845560E+02  0.63279090525E+02 -0.11457274283E+03  0.13205765400E+03  0.00000000000E+00 0. -1.
         22    1    3    3    0    0 -0.27925112567E+02 -0.22038767542E+02  0.15543650485E+02  0.38821698276E+02  0.00000000000E+00 0. -1.
</event>
<event>
 7    1  0.4915160E-006  0.6659819E+02  0.7818608E-02  0.1382187E+00
          2   -1    0    0  502    0  0.00000000000E+00  0.00000000000E+00  0.11496797358E+04  0.11496797358E+04  0.00000000000E+00 0. -1.
          1   -1    0    0  501    0 -0.00000000000E+00 -0.00000000000E+00 -0.32812306785E+04  0.32812306785E+04  0.00000000000E+00 0. -1.
         25    2    1    2    0    0  0.68230552292E+01  0.12090579679E+03  0.25922390055E+03  0.31222880668E+03  0.12500012530E+03 0.  0.
          2    1    1    2  501    0  0.16859443356E+02 -0.64368987372E+02 -0.32533003609E+04  0.32539807690E+04  0.00000000000E+00 0. -1.
          1    1    1    2  502    0 -0.23682498585E+02 -0.56536809415E+02  0.86252551760E+03  0.86470083848E+03  0.00000000000E+00 0. -1.
         22    1    3    3    0    0  0.71869707849E+01 -0.94059915688E+01  0.12352874776E+03  0.12409462820E+03  0.00000000000E+00 0.  1.
         22    1    3    3    0    0 -0.36391555575E+00  0.13031178836E+03  0.13569515279E+03  0.18813417848E+03  0.00000000000E+00 0.  1.
</event>
<event>
 7    1  0.4915160E-006  0.2245410E+03  0.7818608E-02  0.1332011E+00
          2   -1    0    0  502    0  0.00000000000E+00  0.00000000000E+00  0.16123366992E+04  0.16123366992E+04  0.00000000000E+00 0. -1.
          1   -1    0    0  501    0 -0.00000000000E+00 -0.00000000000E+00 -0.17856661872E+04  0.17856661872E+04  0.00000000000E+00 0. -1.
         25    2    1    2    0    0 -0.22027796381E+03 -0.68298976603E+02 -0.56770979766E+03  0.62538498499E+03  0.12499933415E+03 0.  0.
          2    1    1    2  501    0  0.20355953661E+03  0.90473378255E+02 -0.11785626578E+04  0.11994298043E+04  0.00000000000E+00 0. -1.
          1    1    1    2  502    0  0.16718427197E+02 -0.22174401652E+02  0.15729429675E+04  0.15731880971E+04  0.00000000000E+00 0. -1.
         22    1    3    3    0    0 -0.18058358046E+03 -0.15509317835E+02 -0.30766626862E+03  0.35708472568E+03  0.00000000000E+00 0.  1.
         22    1    3    3    0    0 -0.39694383344E+02 -0.52789658768E+02 -0.26004352905E+03  0.26830025930E+03  0.00000000000E+00 0.  1.
</event>
<event>
 7    1  0.4915160E-006  0.1053813E+03  0.7818608E-02  0.1278441E+00
          2   -1    0    0  502    0  0.00000000000E+00  0.00000000000E+00  0.30592675619E+04  0.30592675619E+04  0.00000000000E+00 0. -1.
          1   -1    0    0  501    0 -0.00000000000E+00 -0.00000000000E+00 -0.37662390992E+03  0.37662390992E+03  0.00000000000E+00 0. -1.
         25    2    1    2    0    0 -0.31053671640E+02  0.26055357249E+02  0.18931603334E+03  0.23045194697E+03  0.12499730885E+03 0.  0.
          2    1    1    2  501    0 -0.22474026555E+02 -0.10645097627E+03 -0.34690474833E+03  0.36356539526E+03  0.00000000000E+00 0. -1.
          1    1    1    2  502    0  0.53527698194E+02  0.80395619022E+02  0.28402323670E+04  0.28418741296E+04  0.00000000000E+00 0. -1.
         22    1    3    3    0    0 -0.41582465231E+02 -0.39970351977E+02  0.51714583195E+02  0.77466951449E+02  0.00000000000E+00 0.  1.
         22    1    3    3    0    0  0.10528793592E+02  0.66025709226E+02  0.13760145014E+03  0.15298499552E+03  0.00000000000E+00 0.  1.
</event>
<event>
 7    1  0.4915160E-006  0.7312973E+02  0.7818608E-02  0.1450573E+00
          2   -1    0    0  502    0  0.00000000000E+00  0.00000000000E+00  0.24421732914E+03  0.24421732914E+03  0.00000000000E+00 0. -1.
          1   -1    0    0  501    0 -0.00000000000E+00 -0.00000000000E+00 -0.39323972125E+03  0.39323972125E+03  0.00000000000E+00 0. -1.
         25    2    1    2    0    0 -0.23767876768E+02 -0.58960878703E+02  0.15303598562E+03  0.20757219462E+03  0.12499962360E+03 0.  0.
          2    1    1    2  501    0 -0.58654636796E+01  0.73229388439E+02 -0.35774540434E+03  0.36521051644E+03  0.00000000000E+00 0. -1.
          1    1    1    2  502    0  0.29633340447E+02 -0.14268509736E+02  0.55687026601E+02  0.64674339330E+02  0.00000000000E+00 0. -1.
         22    1    3    3    0    0 -0.44124331776E+02 -0.79888051813E+01 -0.15861765365E+00  0.44841976121E+02  0.00000000000E+00 0.  1.
         22    1    3    3    0    0  0.20356455008E+02 -0.50972073522E+02  0.15319460328E+03  0.16273021850E+03  0.00000000000E+00 0.  1.
</event>
<event>
 7    1  0.4915160E-006  0.5813716E+02  0.7818608E-02  0.1536308E+00
          2   -1    0    0  502    0  0.00000000000E+00  0.00000000000E+00  0.11268576219E+04  0.11268576219E+04  0.00000000000E+00 0. -1.
          1   -1    0    0  501    0 -0.00000000000E+00 -0.00000000000E+00 -0.84508374182E+02  0.84508374182E+02  0.00000000000E+00 0. -1.
         25    2    1    2    0    0 -0.75188486579E+02  0.10780734466E+02  0.48122247031E+02  0.15398130408E+03  0.12499983439E+03 0.  0.
          2    1    1    2  501    0  0.17436249293E+02 -0.14721837225E+02 -0.26526254591E+02  0.34991391275E+02  0.00000000000E+00 0. -1.
          1    1    1    2  502    0  0.57752237286E+02  0.39411027597E+01  0.10207532553E+04  0.10223933007E+04  0.00000000000E+00 0. -1.
         22    1    3    3    0    0 -0.10165105895E+03 -0.49975628842E+01  0.63075470661E+02  0.11973482542E+03  0.00000000000E+00 0. -1.
         22    1    3    3    0    0  0.26462572370E+02  0.15778297350E+02 -0.14953223630E+02  0.34246478660E+02  0.00000000000E+00 0. -1.
</event>
<event>
 7    1  0.4915160E-006  0.5195553E+02  0.7818608E-02  0.1448842E+00
          2   -1    0    0  502    0  0.00000000000E+00  0.00000000000E+00  0.45655640607E+03  0.45655640607E+03  0.00000000000E+00 0. -1.
          1   -1    0    0  501    0 -0.00000000000E+00 -0.00000000000E+00 -0.18524121254E+04  0.18524121254E+04  0.00000000000E+00 0. -1.
         25    2    1    2    0    0 -0.86805026809E+02  0.42212618499E+02  0.11023231523E+03  0.19259672378E+03  0.12500126739E+03 0.  0.
          2    1    1    2  501    0  0.50226047083E+02 -0.12878930676E+02 -0.18090550646E+04  0.18097979858E+04  0.00000000000E+00 0. -1.
          1    1    1    2  502    0  0.36578979725E+02 -0.29333687823E+02  0.30296703002E+03  0.30657382191E+03  0.00000000000E+00 0. -1.
         22    1    3    3    0    0 -0.63724917191E+02  0.28639649364E+02 -0.89572689561E+01  0.70436689685E+02  0.00000000000E+00 0.  1.
         22    1    3    3    0    0 -0.23080109618E+02  0.13572969135E+02  0.11918958419E+03  0.12216003409E+03  0.00000000000E+00 0.  1.
</event>
<event>
 7    1  0.4915160E-006  0.1590648E+03  0.7818608E-02  0.1232454E+00
          2   -1    0    0  502    0  0.00000000000E+00  0.00000000000E+00  0.26756096728E+04  0.26756096728E+04  0.00000000000E+00 0. -1.
          1   -1    0    0  501    0 -0.00000000000E+00 -0.00000000000E+00 -0.45362696430E+02  0.45362696430E+02  0.00000000000E+00 0. -1.
         25    2    1    2    0    0 -0.13928148105E+03  0.86392390577E+01  0.87600859529E+03  0.89581811736E+03  0.12500029181E+03 0.  0.
          2    1    1    2  501    0  0.69817767296E+00  0.10089921393E+03  0.51513043855E+02  0.11329047847E+03  0.00000000000E+00 0. -1.
          1    1    1    2  502    0  0.13858330337E+03 -0.10953845299E+03  0.17027253373E+04  0.17118637734E+04  0.00000000000E+00 0. -1.
         22    1    3    3    0    0 -0.47611676487E+02  0.48916394008E+02  0.56451675843E+03  0.56862892636E+03  0.00000000000E+00 0. -1.
         22    1    3    3    0    0 -0.91669804559E+02 -0.40277154950E+02  0.31149183686E+03  0.32718919100E+03  0.00000000000E+00 0. -1.
</event>
<event>
 7    1  0.4915160E-006  0.4266282E+02  0.7818608E-02  0.1506620E+00
          2   -1    0    0  502    0  0.00000000000E+00  0.00000000000E+00  0.36662128628E+02  0.36662128628E+02  0.00000000000E+00 0. -1.
          1   -1    0    0  501    0 -0.00000000000E+00 -0.00000000000E+00 -0.64641082118E+03  0.64641082118E+03  0.00000000000E+00 0. -1.
         25    2    1    2    0    0  0.50421037863E+02  0.28509089554E+02 -0.41612193796E+03  0.43833237171E+03  0.12499100607E+03 0.  0.
          2    1    1    2  501    0 -0.41086312501E+02  0.82353053539E+01 -0.20167653970E+03  0.20598381488E+03  0.00000000000E+00 0. -1.
          1    1    1    2  502    0 -0.93347253619E+01 -0.36744394908E+02  0.80497850978E+01  0.38756763214E+02  0.00000000000E+00 0. -1.
         22    1    3    3    0    0  0.12927803305E+02 -0.48657892404E+02 -0.12276361955E+03  0.13268618947E+03  0.00000000000E+00 0. -1.
         22    1    3    3    0    0  0.37493234558E+02  0.77166981958E+02 -0.29335831841E+03  0.30564618225E+03  0.00000000000E+00 0. -1.
</event>
<event>
 7    1  0.4915160E-006  0.3668792E+02  0.7818608E-02  0.1567916E+00
          2   -1    0    0  502    0  0.00000000000E+00  0.00000000000E+00  0.54994813692E+02  0.54994813692E+02  0.00000000000E+00 0. -1.
          1   -1    0    0  501    0 -0.00000000000E+00 -0.00000000000E+00 -0.16419351854E+04  0.16419351854E+04  0.00000000000E+00 0. -1.
         25    2    1    2    0    0 -0.36607789208E+02 -0.49727414265E+02 -0.12183751176E+04  0.12263268913E+04  0.12500708459E+03 0.  0.
          2    1    1    2  501    0  0.66325767448E+01  0.28779241510E+02 -0.41243445916E+03  0.41349053062E+03  0.00000000000E+00 0. -1.
          1    1    1    2  502    0  0.29975212463E+02  0.20948172755E+02  0.43869205119E+02  0.57112577090E+02  0.00000000000E+00 0. -1.
         22    1    3    3    0    0 -0.53785185595E+02 -0.81927876257E+02 -0.10134122396E+04  0.10181401625E+04  0.00000000000E+00 0.  1.
         22    1    3    3    0    0  0.17177396387E+02  0.32200461992E+02 -0.20496287800E+03  0.20818672882E+03  0.00000000000E+00 0.  1.
</event>
<event>
 7    1  0.4915160E-006  0.6322437E+02  0.7818608E-02  0.1397254E+00
          2   -1    0    0  502    0  0.00000000000E+00  0.00000000000E+00  0.15189739544E+04  0.15189739544E+04  0.00000000000E+00 0. -1.
          1   -1    0    0  501    0 -0.00000000000E+00 -0.00000000000E+00 -0.28052561054E+02  0.28052561054E+02  0.00000000000E+00 0. -1.
         25    2    1    2    0    0  0.16661963974E+02 -0.25132226461E+02  0.86356938526E+03  0.87309027687E+03  0.12500119422E+03 0.  0.
          2    1    1    2  501    0  0.51645526892E+02 -0.24593177319E+02  0.19791681871E+02  0.60529294477E+02  0.00000000000E+00 0. -1.
          1    1    1    2  502    0 -0.68307490866E+02  0.49725403781E+02  0.60756032622E+03  0.61340694411E+03  0.00000000000E+00 0. -1.
         22    1    3    3    0    0 -0.25758966010E+02 -0.40169476174E+02  0.74072731072E+03  0.74226279712E+03  0.00000000000E+00 0. -1.
         22    1    3    3    0    0  0.42420929984E+02  0.15037249713E+02  0.12284207454E+03  0.13082747975E+03  0.00000000000E+00 0. -1.
</event>
<event>
 7    1  0.4915160E-006  0.3476405E+02  0.7818608E-02  0.1640714E+00
          2   -1    0    0  502    0  0.00000000000E+00  0.00000000000E+00  0.13474567617E+02  0.13474567617E+02  0.00000000000E+00 0. -1.
          1   -1    0    0  501    0 -0.00000000000E+00 -0.00000000000E+00 -0.22242010730E+04  0.22242010730E+04  0.00000000000E+00 0. -1.
         25    2    1    2    0    0  0.99819668780E+01  0.11422945504E+02 -0.11405217892E+04  0.11474509955E+04  0.12499484887E+03 0.  0.
          2    1    1    2  501    0  0.12070589571E+02  0.16144624177E+02 -0.10486875451E+04  0.10488812684E+04  0.00000000000E+00 0. -1.
          1    1    1    2  502    0 -0.22052556449E+02 -0.27567569681E+02 -0.21517171224E+02  0.41343376756E+02  0.00000000000E+00 0. -1.
         22    1    3    3    0    0  0.62651739151E+02  0.79764444398E+01 -0.39051720767E+03  0.39559139724E+03  0.00000000000E+00 0.  1.
         22    1    3    3    0    0 -0.52669772273E+02  0.34465010641E+01 -0.75000458148E+03  0.75185959828E+03  0.00000000000E+00 0.  1.
</event>
<event>
 7    1  0.4915160E-006  0.1448676E+03  0.7818608E-02  0.1268374E+00
          2   -1    0    0  502    0  0.00000000000E+00  0.00000000000E+00  0.40998267868E+03  0.40998267868E+03  0.00000000000E+00 0. -1.
          1   -1    0    0  501    0 -0.00000000000E+00 -0.00000000000E+00 -0.22067437696E+03  0.22067437696E+03  0.00000000000E+00 0. -1.
         25    2    1    2    0    0 -0.53755676465E+02 -0.14621488093E+03  0.74304500504E+02  0.21311034635E+03  0.12500558694E+03 0.  0.
          2    1    1    2  501    0  0.11143696340E+03  0.94603255003E+02 -0.10783459522E+03  0.18164876161E+03  0.00000000000E+00 0. -1.
          1    1    1    2  502    0 -0.57681286936E+02  0.51611625931E+02  0.22283839643E+03  0.23589794768E+03  0.00000000000E+00 0. -1.
         22    1    3    3    0    0 -0.50466931529E+02 -0.14900856744E+03  0.10042022248E+03  0.18664052463E+03  0.00000000000E+00 0.  1.
         22    1    3    3    0    0 -0.32887449360E+01  0.27936865099E+01 -0.26115721977E+02  0.26469821721E+02  0.00000000000E+00 0.  1.
</event>
<event>
 7    1  0.4915160E-006  0.1617189E+03  0.7818608E-02  0.1271587E+00
          2   -1    0    0  502    0  0.00000000000E+00  0.00000000000E+00  0.10252904529E+04  0.10252904529E+04  0.00000000000E+00 0. -1.
          1   -1    0    0  501    0 -0.00000000000E+00 -0.00000000000E+00 -0.93208170041E+02  0.93208170041E+02  0.00000000000E+00 0. -1.
         25    2    1    2    0    0  0.14848210757E+03 -0.10047659939E+03  0.64680826945E+03  0.68273589126E+03  0.12499950596E+03 0.  0.
          2    1    1    2  501    0 -0.62870983137E+02 -0.23771285893E+02 -0.39278826562E+02  0.77850245791E+02  0.00000000000E+00 0. -1.
          1    1    1    2  502    0 -0.85611124430E+02  0.12424788529E+03  0.32455283999E+03  0.35791248591E+03  0.00000000000E+00 0. -1.
         22    1    3    3    0    0 -0.83749070214E+01 -0.52194378137E+02  0.12474182162E+03  0.13548030941E+03  0.00000000000E+00 0.  1.
         22    1    3    3    0    0  0.15685701459E+03 -0.48282221257E+02  0.52206644783E+03  0.54725558185E+03  0.00000000000E+00 0.  1.
</event>
<event>
 7    1  0.4915160E-006  0.2288309E+03  0.7818608E-02  0.1280976E+00
          2   -1    0    0  502    0  0.00000000000E+00  0.00000000000E+00  0.12932399899E+04  0.12932399899E+04  0.00000000000E+00 0. -1.
          1   -1    0    0  501    0 -0.00000000000E+00 -0.00000000000E+00 -0.10882350034E+04  0.10882350034E+04  0.00000000000E+00 0. -1.
         25    2    1    2    0    0  0.18205732763E+03 -0.53657180791E+02  0.14415922648E+03  0.26912609066E+03  0.12499202574E+03 0.  0.
          2    1    1    2  501    0 -0.22543719127E+03  0.51819173861E+02 -0.10122660160E+04  0.10383591099E+04  0.00000000000E+00 0. -1.
          1    1    1    2  502    0  0.43379863640E+02  0.18380069301E+01  0.10731117761E+04  0.10739897927E+04  0.00000000000E+00 0. -1.
         22    1    3    3    0    0  0.17375967597E+03 -0.85927943419E+02  0.12570909985E+03  0.23103855574E+03  0.00000000000E+00 0. -1.
         22    1    3    3    0    0  0.82976516645E+01  0.32270762628E+02  0.18450126631E+02  0.38087534922E+02  0.00000000000E+00 0. -1.
</event>
<event>
 7    1  0.4915160E-006  0.8758923E+02  0.7818608E-02  0.1337447E+00
          2   -1    0    0  502    0  0.00000000000E+00  0.00000000000E+00  0.22359187081E+03  0.22359187081E+03  0.00000000000E+00 0. -1.
          1   -1    0    0  501    0 -0.00000000000E+00 -0.00000000000E+00 -0.51770786498E+03  0.51770786498E+03  0.00000000000E+00 0. -1.
         25    2    1    2    0    0  0.16414033114E+02  0.16489272329E+02  0.36818840849E+02  0.13236928187E+03  0.12499873262E+03 0.  0.
          2    1    1    2  501    0 -0.57578329123E+02 -0.70477816719E+02 -0.45687789824E+03  0.46585384031E+03  0.00000000000E+00 0. -1.
          1    1    1    2  502    0  0.41164296009E+02  0.53988544390E+02  0.12594306322E+03  0.14307661362E+03  0.00000000000E+00 0. -1.
         22    1    3    3    0    0 -0.26044405061E+01  0.66676198704E+02 -0.96420836325E+00  0.66734011431E+02  0.00000000000E+00 0.  1.
         22    1    3    3    0    0  0.19018473620E+02 -0.50186926375E+02  0.37783049213E+02  0.65635270439E+02  0.00000000000E+00 0.  1.
</event>
<event>
 7    1  0.4915160E-006  0.8213891E+02  0.7818608E-02  0.1461304E+00
          2   -1    0    0  502    0  0.00000000000E+00  0.00000000000E+00  0.12553988985E+03  0.12553988985E+03  0.00000000000E+00 0. -1.
          1   -1    0    0  501    0 -0.00000000000E+00 -0.00000000000E+00 -0.69522639698E+03  0.69522639698E+03  0.00000000000E+00 0. -1.
         25    2    1    2    0    0 -0.70613427941E+02  0.71205434542E+02 -0.50537898840E+03  0.53017856306E+03  0.12499966681E+03 0.  0.
          2    1    1    2  501    0  0.19219735098E+01 -0.27006002719E+02 -0.16142889621E+03  0.16368355658E+03  0.00000000000E+00 0. -1.
          1    1    1    2  502    0  0.68691454431E+02 -0.44199431823E+02  0.97121377471E+02  0.12690416718E+03  0.00000000000E+00 0. -1.
         22    1    3    3    0    0 -0.66617175805E+02  0.10142370609E+03 -0.31854928856E+03  0.34087866685E+03  0.00000000000E+00 0. -1.
         22    1    3    3    0    0 -0.39962521354E+01 -0.30218271545E+02 -0.18682969984E+03  0.18929989621E+03  0.00000000000E+00 0. -1.
</event>
<event>
 7    1  0.4915160E-006  0.6451887E+02  0.7818608E-02  0.1403843E+00
          2   -1    0    0  502    0  0.00000000000E+00  0.00000000000E+00  0.23073915723E+04  0.23073915723E+04  0.00000000000E+00 0. -1.
          1   -1    0    0  501    0 -0.00000000000E+00 -0.00000000000E+00 -0.31545466789E+03  0.31545466789E+03  0.00000000000E+00 0. -1.
         25    2    1    2    0    0 -0.42584615710E+02  0.36963058150E+02  0.40595341590E+03  0.42848942398E+03  0.12500117367E+03 0.  0.
          2    1    1    2  501    0  0.44632515083E+02  0.28964639257E+02 -0.30127940039E+03  0.30594164285E+03  0.00000000000E+00 0. -1.
          1    1    1    2  502    0 -0.20478993725E+01 -0.65927697407E+02  0.18872628889E+04  0.18884151734E+04  0.00000000000E+00 0. -1.
         22    1    3    3    0    0 -0.17002902373E+02 -0.44191674322E+02  0.95615595513E+02  0.10669744549E+03  0.00000000000E+00 0.  1.
         22    1    3    3    0    0 -0.25581713337E+02  0.81154732472E+02  0.31033782038E+03  0.32179197849E+03  0.00000000000E+00 0.  1.
</event>
<event>
 7    1  0.4915160E-006  0.3041701E+03  0.7818608E-02  0.1205812E+00
          2   -1    0    0  502    0  0.00000000000E+00  0.00000000000E+00  0.13373925624E+04  0.13373925624E+04  0.00000000000E+00 0. -1.
          1   -1    0    0  501    0 -0.00000000000E+00 -0.00000000000E+00 -0.82359034219E+03  0.82359034219E+03  0.00000000000E+00 0. -1.
         25    2    1    2    0    0  0.10661120229E+03  0.35490280615E+03 -0.29349149785E+03  0.48896247002E+03  0.12500035007E+03 0.  0.
          2    1    1    2  501    0 -0.25781074525E+02 -0.64892842182E+02 -0.41109673889E+03  0.41698474012E+03  0.00000000000E+00 0. -1.
          1    1    1    2  502    0 -0.80830127762E+02 -0.29000996397E+03  0.12183904569E+04  0.12550356944E+04  0.00000000000E+00 0. -1.
         22    1    3    3    0    0  0.11993296242E+03  0.19313805818E+03 -0.19162777611E+03  0.29733386885E+03  0.00000000000E+00 0.  1.
         22    1    3    3    0    0 -0.13321760134E+02  0.16176474797E+03 -0.10186372174E+03  0.19162860117E+03  0.00000000000E+00 0.  1.
</event>
<event>
 7    1  0.4915160E-006  0.1061116E+03  0.7818608E-02  0.1454295E+00
          2   -1    0    0  502    0  0.00000000000E+00  0.00000000000E+00  0.57324018633E+02  0.57324018633E+02  0.00000000000E+00 0. -1.
          1   -1    0    0  501    0 -0.00000000000E+00 -0.00000000000E+00 -0.15883132671E+04  0.15883132671E+04  0.00000000000E+00 0. -1.
         25    2    1    2    0    0 -0.11078229297E+03 -0.14415507034E+02 -0.24116422064E+03  0.29372364829E+03  0.12503150390E+03 0.  0.
          2    1    1    2  501    0  0.10027195645E+03  0.33806015254E+02 -0.13145377861E+04  0.13187899389E+04  0.00000000000E+00 0. -1.
          1    1    1    2  502    0  0.10510336519E+02 -0.19390508220E+02  0.24712758268E+02  0.33123698525E+02  0.00000000000E+00 0. -1.
         22    1    3    3    0    0 -0.57644385898E+02 -0.68765625614E+02 -0.15247729443E+03  0.17692063703E+03  0.00000000000E+00 0. -1.
         22    1    3    3    0    0 -0.53137907073E+02  0.54350118581E+02 -0.88686926208E+02  0.11680301125E+03  0.00000000000E+00 0. -1.
</event>
<event>
 7    1  0.4915160E-006  0.1561136E+03  0.7818608E-02  0.1270926E+00
          2   -1    0    0  502    0  0.00000000000E+00  0.00000000000E+00  0.16712237406E+04  0.16712237406E+04  0.00000000000E+00 0. -1.
          1   -1    0    0  501    0 -0.00000000000E+00 -0.00000000000E+00 -0.13351058842E+03  0.13351058842E+03  0.00000000000E+00 0. -1.
         25    2    1    2    0    0 -0.16539666263E+03  0.27919583881E+02  0.10656120776E+04  0.10859510624E+04  0.12500020273E+03 0.  0.
          2    1    1    2  501    0  0.12917876374E+03 -0.87907424485E+02 -0.70681879744E+02  0.17149576206E+03  0.00000000000E+00 0. -1.
          1    1    1    2  502    0  0.36217898893E+02  0.59987840604E+02  0.54278295431E+03  0.54728750462E+03  0.00000000000E+00 0. -1.
         22    1    3    3    0    0 -0.16952631588E+03  0.57314737619E+02  0.88432960165E+03  0.90225439609E+03  0.00000000000E+00 0. -1.
         22    1    3    3    0    0  0.41296532484E+01 -0.29395153738E+02  0.18128247599E+03  0.18369666627E+03  0.00000000000E+00 0. -1.
</event>
<event>
 7    1  0.4915160E-006  0.3606937E+02  0.7818608E-02  0.1595659E+00
          2   -1    0    0  502    0  0.00000000000E+00  0.00000000000E+00  0.18205205985E+03  0.18205205985E+03  0.00000000000E+00 0. -1.
          1   -1    0    0  501    0 -0.00000000000E+00 -0.00000000000E+00 -0.27030038035E+03  0.27030038035E+03  0.00000000000E+00 0. -1.
         25    2    1    2    0    0  0.29833365061E+02  0.14469526718E+02  0.74252780140E+02  0.14912600247E+03  0.12500276949E+03 0.  0.
          2    1    1    2  501    0 -0.15389221422E+02  0.20107535970E+02 -0.22712065650E+03  0.22852775268E+03  0.00000000000E+00 0. -1.
          1    1    1    2  502    0 -0.14444143638E+02 -0.34577062688E+02  0.64619555857E+02  0.74698685054E+02  0.00000000000E+00 0. -1.
         22    1    3    3    0    0  0.47626908726E+02  0.28617415740E+02  0.10023359752E+03  0.11460389605E+03  0.00000000000E+00 0.  1.
         22    1    3    3    0    0 -0.17793543665E+02 -0.14147889021E+02 -0.25980817380E+02  0.34522106420E+02  0.00000000000E+00 0.  1.
</event>
<event>
 7    1  0.4915160E-006  0.9923650E+02  0.7818608E-02  0.1395278E+00
          2   -1    0    0  502    0  0.00000000000E+00  0.00000000000E+00  0.90844188724E+03  0.90844188724E+03  0.00000000000E+00 0. -1.
          1   -1    0    0  501    0 -0.00000000000E+00 -0.00000000000E+00 -0.13915756719E+03  0.13915756719E+03  0.00000000000E+00 0. -1.
         25    2    1    2    0    0  0.11846366555E+03 -0.51015025580E+02  0.63878275309E+02  0.19063512586E+03  0.12500057706E+03 0.  0.
          2    1    1    2  501    0 -0.82556570322E+02  0.41999247710E+02 -0.46848488021E+02  0.10379934943E+03  0.00000000000E+00 0. -1.
          1    1    1    2  502    0 -0.35907095224E+02  0.90157778696E+01  0.75225453276E+03  0.75316497914E+03  0.00000000000E+00 0. -1.
         22    1    3    3    0    0 -0.23277348098E+02  0.82498930538E+01  0.17102852600E+02  0.30040027246E+02  0.00000000000E+00 0.  1.
         22    1    3    3    0    0  0.14174101364E+03 -0.59264918633E+02  0.46775422709E+02  0.16059509861E+03  0.00000000000E+00 0.  1.
</event>
<event>
 7    1  0.4915160E-006  0.4788190E+02  0.7818608E-02  0.1497025E+00
          2   -1    0    0  502    0  0.00000000000E+00  0.00000000000E+00  0.27946220203E+03  0.27946220203E+03  0.00000000000E+00 0. -1.
          1   -1    0    0  501    0 -0.00000000000E+00 -0.00000000000E+00 -0.64189817315E+03  0.64189817315E+03  0.00000000000E+00 0. -1.
         25    2    1    2    0    0  0.10222058518E+02  0.72617736933E+01 -0.88734792602E+02  0.15380394761E+03  0.12499826816E+03 0.  0.
          2    1    1    2  501    0  0.27525691769E+02  0.23318900252E+02 -0.51760545422E+03  0.51886109996E+03  0.00000000000E+00 0. -1.
          1    1    1    2  502    0 -0.37747750287E+02 -0.30580673945E+02  0.24390427570E+03  0.24869532761E+03  0.00000000000E+00 0. -1.
         22    1    3    3    0    0  0.46207570247E+02 -0.34845019631E+02 -0.78419754417E+02  0.97462674004E+02  0.00000000000E+00 0.  1.
         22    1    3    3    0    0 -0.35985511730E+02  0.42106793324E+02 -0.10315038186E+02  0.56341273604E+02  0.00000000000E+00 0.  1.
</event>
<event>
 7    1  0.4915160E-006  0.7039610E+02  0.7818608E-02  0.1510117E+00
          2   -1    0    0  502    0  0.00000000000E+00  0.00000000000E+00  0.72377135588E+03  0.72377135588E+03  0.00000000000E+00 0. -1.
          1   -1    0    0  501    0 -0.00000000000E+00 -0.00000000000E+00 -0.74852257982E+02  0.74852257982E+02  0.00000000000E+00 0. -1.
         25    2    1    2    0    0 -0.63371302524E+02  0.64795237925E+02  0.22450038990E+03  0.27247045918E+03  0.12500152487E+03 0.  0.
          2    1    1    2  501    0  0.17065930563E+02 -0.14565560021E+02 -0.45798490481E+02  0.50999051511E+02  0.00000000000E+00 0. -1.
          1    1    1    2  502    0  0.46305371961E+02 -0.50229677904E+02  0.47021719847E+03  0.47515410316E+03  0.00000000000E+00 0. -1.
         22    1    3    3    0    0 -0.47643761858E+02  0.48486805821E+01  0.96400818622E+01  0.48850475183E+02  0.00000000000E+00 0.  1.
         22    1    3    3    0    0 -0.15727540666E+02  0.59946557343E+02  0.21486030804E+03  0.22361998400E+03  0.00000000000E+00 0.  1.
</event>
<event>
 7    1  0.4997073E-006  0.8553484E+02  0.7818608E-02  0.1385617E+00
          2   -1    0    0  502    0  0.00000000000E+00  0.00000000000E+00  0.21088483464E+04  0.21088483464E+04  0.00000000000E+00 0. -1.
          1   -1    0    0  501    0 -0.00000000000E+00 -0.00000000000E+00 -0.37288545142E+03  0.37288545142E+03  0.00000000000E+00 0. -1.
         25    2    1    2    0    0 -0.12218156862E+03  0.26265561441E+02 -0.21932905959E+03  0.28168834185E+03  0.12499948050E+03 0.  0.
          2    1    1    2  501    0  0.45173510971E+02  0.10671623600E+02 -0.11706384253E+03  0.12593042869E+03  0.00000000000E+00 0. -1.
          1    1    1    2  502    0  0.77008057651E+02 -0.36937185041E+02  0.20723557971E+04  0.20741150273E+04  0.00000000000E+00 0. -1.
         22    1    3    3    0    0 -0.66695976016E+02  0.74001385312E+02 -0.15493904491E+03  0.18420278467E+03  0.00000000000E+00 0.  1.
         22    1    3    3    0    0 -0.55485592606E+02 -0.47735823871E+02 -0.64390014685E+02  0.97485557180E+02  0.00000000000E+00 0.  1.
</event>
<event>
 7    1  0.4915160E-006  0.4958099E+02  0.7818608E-02  0.1475809E+00
          2   -1    0    0  502    0  0.00000000000E+00  0.00000000000E+00  0.19692167861E+03  0.19692167861E+03  0.00000000000E+00 0. -1.
          1   -1    0    0  501    0 -0.00000000000E+00 -0.00000000000E+00 -0.55243064933E+03  0.55243064933E+03  0.00000000000E+00 0. -1.
         25    2    1    2    0    0 -0.31593321858E+02 -0.75687838476E+02 -0.27493571227E+03  0.31295221515E+03  0.12499062448E+03 0.  0.
          2    1    1    2  501    0  0.39572941884E+01  0.46194124262E+02 -0.25406592057E+03  0.25826159081E+03  0.00000000000E+00 0. -1.
          1    1    1    2  502    0  0.27636027669E+02  0.29493714215E+02  0.17349266212E+03  0.17813852198E+03  0.00000000000E+00 0. -1.
         22    1    3    3    0    0 -0.26646308730E+02  0.21992276295E+02 -0.20051054842E+02  0.39946599177E+02  0.00000000000E+00 0.  1.
         22    1    3    3    0    0 -0.49470131274E+01 -0.97680114771E+02 -0.25488465743E+03  0.27300561597E+03  0.00000000000E+00 0.  1.
</event>
<event>
 7    1  0.7756008E-006  0.1301173E+03  0.7818608E-02  0.1278265E+00
          2   -1    0    0  502    0  0.00000000000E+00  0.00000000000E+00  0.16299039966E+04  0.16299039966E+04  0.00000000000E+00 0. -1.
          1   -1    0    0  501    0 -0.00000000000E+00 -0.00000000000E+00 -0.21160999040E+04  0.21160999040E+04  0.00000000000E+00 0. -1.
         25    2    1    2    0    0 -0.55971747169E+01  0.20714475412E+03 -0.41042381007E+03  0.47645990064E+03  0.12500422202E+03 0.  0.
          2    1    1    2  501    0 -0.67075981076E+01 -0.78067680182E+02 -0.16691054071E+04  0.16709435701E+04  0.00000000000E+00 0. -1.
          1    1    1    2  502    0  0.12304772825E+02 -0.12907707394E+03  0.15933333097E+04  0.15986004298E+04  0.00000000000E+00 0. -1.
         22    1    3    3    0    0  0.28008481156E+02 -0.34568887252E+01 -0.38597691484E+02  0.47814295815E+02  0.00000000000E+00 0. -1.
         22    1    3    3    0    0 -0.33605655873E+02  0.21060164285E+03 -0.37182611858E+03  0.42864560483E+03  0.00000000000E+00 0. -1.
</event>
<event>
 7    1  0.4915160E-006  0.9076626E+02  0.7818608E-02  0.1408140E+00
          2   -1    0    0  502    0  0.00000000000E+00  0.00000000000E+00  0.19199752347E+04  0.19199752347E+04  0.00000000000E+00 0. -1.
          1   -1    0    0  501    0 -0.00000000000E+00 -0.00000000000E+00 -0.40088812093E+02  0.40088812093E+02  0.00000000000E+00 0. -1.
         25    2    1    2    0    0 -0.11901735823E+02 -0.85443164811E+02  0.67044323400E+03  0.68743064072E+03  0.12499828021E+03 0.  0.
          2    1    1    2  501    0  0.36325028767E+02 -0.41976018566E+01 -0.18638088198E+02  0.41042732706E+02  0.00000000000E+00 0. -1.
          1    1    1    2  502    0 -0.24423292944E+02  0.89640766667E+02  0.12280812768E+04  0.12315906734E+04  0.00000000000E+00 0. -1.
         22    1    3    3    0    0 -0.44432860492E+02 -0.19674448607E+02  0.89227535600E+02  0.10160175259E+03  0.00000000000E+00 0.  1.
         22    1    3    3    0    0  0.32531124669E+02 -0.65768716203E+02  0.58121569840E+03  0.58582888813E+03  0.00000000000E+00 0.  1.
</event>
<event>
 7    1  0.4915160E-006  0.2389822E+03  0.7818608E-02  0.1264497E+00
          2   -1    0    0  502    0  0.00000000000E+00  0.00000000000E+00  0.51756803245E+03  0.51756803245E+03  0.00000000000E+00 0. -1.
          1   -1    0    0  501    0 -0.00000000000E+00 -0.00000000000E+00 -0.31527961569E+03  0.31527961569E+03  0.00000000000E+00 0. -1.
         25    2    1    2    0    0 -0.21871777975E+03  0.13953679166E+03  0.25273818658E+03  0.38315807891E+03  0.12500215628E+03 0.  0.
          2    1    1    2  501    0  0.21773317306E+03 -0.90824276642E+02 -0.18934067574E+03  0.30250070308E+03  0.00000000000E+00 0. -1.
          1    1    1    2  502    0  0.98460669255E+00 -0.48712515013E+02  0.13889090593E+03  0.14718886615E+03  0.00000000000E+00 0. -1.
         22    1    3    3    0    0 -0.20130173741E+02 -0.23460765903E+02  0.31128814813E+02  0.43870656973E+02  0.00000000000E+00 0. -1.
         22    1    3    3    0    0 -0.19858760601E+03  0.16299755756E+03  0.22160937176E+03  0.33928742193E+03  0.00000000000E+00 0. -1.
</event>
<event>
 7    1  0.4915160E-006  0.7341522E+02  0.7818608E-02  0.1424161E+00
          2   -1    0    0  502    0  0.00000000000E+00  0.00000000000E+00  0.43641260678E+03  0.43641260678E+03  0.00000000000E+00 0. -1.
          1   -1    0    0  501    0 -0.00000000000E+00 -0.00000000000E+00 -0.71397991281E+03  0.71397991281E+03  0.00000000000E+00 0. -1.
         25    2    1    2    0    0 -0.37030481394E+02 -0.99669692533E+02  0.21861348306E+03  0.27335497536E+03  0.12500313363E+03 0.  0.
          2    1    1    2  501    0  0.15317375665E+02  0.36886760998E+02 -0.68021176414E+03  0.68138337169E+03  0.00000000000E+00 0. -1.
          1    1    1    2  502    0  0.21713105729E+02  0.62782931535E+02  0.18403097505E+03  0.19565417254E+03  0.00000000000E+00 0. -1.
         22    1    3    3    0    0 -0.83038883279E+02 -0.74688892820E+02  0.15246831853E+03  0.18899861112E+03  0.00000000000E+00 0.  1.
         22    1    3    3    0    0  0.46008401885E+02 -0.24980799713E+02  0.66145164529E+02  0.84356364247E+02  0.00000000000E+00 0.  1.
</event>
<event>
 7    1  0.4915160E-006  0.4940255E+02  0.7818608E-02  0.1546636E+00
          2   -1    0    0  502    0  0.00000000000E+00  0.00000000000E+00  0.10328590138E+04  0.10328590138E+04  0.00000000000E+00 0. -1.
          1   -1    0    0  501    0 -0.00000000000E+00 -0.00000000000E+00 -0.13810394178E+04  0.13810394178E+04  0.00000000000E+00 0. -1.
         25    2    1    2    0    0 -0.31655114044E+00  0.34712447225E+02 -0.11656608642E+04  0.11728574026E+04  0.12499672962E+03 0.  0.
          2    1    1    2  501    0  0.23466519037E+02  0.89411712847E+01 -0.21044029522E+03  0.21193333837E+03  0.00000000000E+00 0. -1.
          1    1    1    2  502    0 -0.23149967896E+02 -0.43653618509E+02  0.10279207554E+04  0.10291076906E+04  0.00000000000E+00 0. -1.
         22    1    3    3    0    0 -0.22552957342E+02  0.73977261248E+02 -0.53202752935E+03  0.53761934773E+03  0.00000000000E+00 0. -1.
         22    1    3    3    0    0  0.22236406202E+02 -0.39264814024E+02 -0.63363333482E+03  0.63523805489E+03  0.00000000000E+00 0. -1.
</event>
<event>
 7    1  0.4915160E-006  0.5432129E+02  0.7818608E-02  0.1514413E+00
          2   -1    0    0  502    0  0.00000000000E+00  0.00000000000E+00  0.20940949562E+04  0.20940949562E+04  0.00000000000E+00 0. -1.
          1   -1    0    0  501    0 -0.00000000000E+00 -0.00000000000E+00 -0.16980309522E+02  0.16980309522E+02  0.00000000000E+00 0. -1.
         25    2    1    2    0    0 -0.66587298425E+02  0.46342147522E+02  0.11052745648E+04  0.11152750653E+04  0.12500057886E+03 0.  0.
          2    1    1    2  501    0  0.43181699436E+02 -0.30533829971E+02  0.47673362666E+02  0.71201990469E+02  0.00000000000E+00 0. -1.
          1    1    1    2  502    0  0.23405598989E+02 -0.15808317551E+02  0.92416671916E+03  0.92459820991E+03  0.00000000000E+00 0. -1.
         22    1    3    3    0    0 -0.63693291573E+01  0.55267089534E+01  0.84454322095E+03  0.84458532127E+03  0.00000000000E+00 0.  1.
         22    1    3    3    0    0 -0.60217969267E+02  0.40815438569E+02  0.26073134388E+03  0.27068974405E+03  0.00000000000E+00 0.  1.
</event>
<event>
 7    1  0.4915160E-006  0.1098729E+03  0.7818608E-02  0.1324212E+00
          2   -1    0    0  502    0  0.00000000000E+00  0.00000000000E+00  0.44326250959E+03  0.44326250959E+03  0.00000000000E+00 0. -1.
          1   -1    0    0  501    0 -0.00000000000E+00 -0.00000000000E+00 -0.22857499952E+04  0.22857499952E+04  0.00000000000E+00 0. -1.
         25    2    1    2    0    0 -0.82736533417E+02 -0.84864661531E+02 -0.52728356611E+03  0.55470846231E+03  0.12500469724E+03 0.  0.
          2    1    1    2  501    0  0.10675582401E+03  0.29015076557E+02 -0.17408381908E+04  0.17443498179E+04  0.00000000000E+00 0. -1.
          1    1    1    2  502    0 -0.24019290588E+02  0.55849584974E+02  0.42563427122E+03  0.42995422466E+03  0.00000000000E+00 0. -1.
         22    1    3    3    0    0 -0.62410830168E+02 -0.10422714873E+02 -0.86228516454E+02  0.10695373653E+03  0.00000000000E+00 0.  1.
         22    1    3    3    0    0 -0.20325703249E+02 -0.74441946657E+02 -0.44105504965E+03  0.44775472578E+03  0.00000000000E+00 0.  1.
</event>
<event>
 7    1  0.4915160E-006  0.1549796E+03  0.7818608E-02  0.1261285E+00
          2   -1    0    0  502    0  0.00000000000E+00  0.00000000000E+00  0.82188492656E+03  0.82188492656E+03  0.00000000000E+00 0. -1.
          1   -1    0    0  501    0 -0.00000000000E+00 -0.00000000000E+00 -0.50031953753E+03  0.50031953753E+03  0.00000000000E+00 0. -1.
         25    2    1    2    0    0 -0.33937625929E+02 -0.18618995555E+03 -0.20653582435E+02  0.22776638192E+03  0.12502996546E+03 0.  0.
          2    1    1    2  501    0 -0.33555688936E+02  0.14803996833E+03 -0.35856833939E+03  0.38937523098E+03  0.00000000000E+00 0. -1.
          1    1    1    2  502    0  0.67493314865E+02  0.38149987218E+02  0.70078731086E+03  0.70506285120E+03  0.00000000000E+00 0. -1.
         22    1    3    3    0    0 -0.43981160359E+02 -0.14048049810E+03 -0.67148844264E+02  0.16179641559E+03  0.00000000000E+00 0. -1.
         22    1    3    3    0    0  0.10043534430E+02 -0.45709457449E+02  0.46495261829E+02  0.65969966323E+02  0.00000000000E+00 0. -1.
</event>
<event>
 7    1  0.4915160E-006  0.1790196E+03  0.7818608E-02  0.1315426E+00
          2   -1    0    0  502    0  0.00000000000E+00  0.00000000000E+00  0.13469454769E+04  0.13469454769E+04  0.00000000000E+00 0. -1.
          1   -1    0    0  501    0 -0.00000000000E+00 -0.00000000000E+00 -0.78130336362E+03  0.78130336362E+03  0.00000000000E+00 0. -1.
         25    2    1    2    0    0 -0.26002485494E+02  0.19374255964E+03  0.19610846697E+03  0.30380121291E+03  0.12499734990E+03 0.  0.
          2    1    1    2  501    0  0.36693444900E+02 -0.16810670732E+02 -0.71972758666E+03  0.72085838176E+03  0.00000000000E+00 0. -1.
          1    1    1    2  502    0 -0.10690959407E+02 -0.17693188891E+03  0.10892612329E+04  0.11035892458E+04  0.00000000000E+00 0. -1.
         22    1    3    3    0    0 -0.21831509612E+02  0.12197765553E+03  0.19603438514E+03  0.23191516427E+03  0.00000000000E+00 0. -1.
         22    1    3    3    0    0 -0.41709758819E+01  0.71764904108E+02  0.74081832781E-01  0.71886048644E+02  0.00000000000E+00 0. -1.
</event>
<event>
 7    1  0.4915160E-006  0.3288534E+02  0.7818608E-02  0.1598437E+00
          2   -1    0    0  502    0  0.00000000000E+00  0.00000000000E+00  0.30842945581E+03  0.30842945581E+03  0.00000000000E+00 0. -1.
          1   -1    0    0  501    0 -0.00000000000E+00 -0.00000000000E+00 -0.21814307247E+03  0.21814307247E+03  0.00000000000E+00 0. -1.
         25    2    1    2    0    0  0.33703291855E+02 -0.42375725792E+02  0.39980119517E+02  0.14197015338E+03  0.12500200188E+03 0.  0.
          2    1    1    2  501    0 -0.86933685168E+01  0.31404884145E+02 -0.16468780309E+03  0.16788065371E+03  0.00000000000E+00 0. -1.
          1    1    1    2  502    0 -0.25009923338E+02  0.10970841647E+02  0.21499406691E+03  0.21672172119E+03  0.00000000000E+00 0. -1.
         22    1    3    3    0    0  0.72056708031E+02  0.13478031009E+01  0.12252455261E+01  0.72079726498E+02  0.00000000000E+00 0.  1.
         22    1    3    3    0    0 -0.38353416176E+02 -0.43723528893E+02  0.38754873991E+02  0.69890426878E+02  0.00000000000E+00 0.  1.
</event>
<event>
 7    1  0.4915160E-006  0.7963080E+02  0.7818608E-02  0.1455576E+00
          2   -1    0    0  502    0  0.00000000000E+00  0.00000000000E+00  0.37917693461E+03  0.37917693461E+03  0.00000000000E+00 0. -1.
          1   -1    0    0  501    0 -0.00000000000E+00 -0.00000000000E+00 -0.38729906653E+03  0.38729906653E+03  0.00000000000E+00 0. -1.
         25    2    1    2    0    0 -0.92671359718E+02  0.56107787430E+02 -0.28961491195E+03  0.33352266338E+03  0.12499802014E+03 0.  0.
          2    1    1    2  501    0  0.24643296642E+02 -0.15506868040E+02 -0.68328583099E+02  0.74273483115E+02  0.00000000000E+00 0. -1.
          1    1    1    2  502    0  0.68028063076E+02 -0.40600919390E+02  0.34982136313E+03  0.35867985464E+03  0.00000000000E+00 0. -1.
         22    1    3    3    0    0 -0.10505132993E+03  0.75616740508E+02 -0.28005072106E+03  0.30851593108E+03  0.00000000000E+00 0. -1.
         22    1    3    3    0    0  0.12379970213E+02 -0.19508953078E+02 -0.95641908927E+01  0.25006732296E+02  0.00000000000E+00 0. -1.
</event>
<event>
 7    1  0.4915160E-006  0.1402369E+03  0.7818608E-02  0.1267605E+00
          2   -1    0    0  502    0  0.00000000000E+00  0.00000000000E+00  0.70101354433E+03  0.70101354433E+03  0.00000000000E+00 0. -1.
          1   -1    0    0  501    0 -0.00000000000E+00 -0.00000000000E+00 -0.25132943547E+04  0.25132943547E+04  0.00000000000E+00 0. -1.
         25    2    1    2    0    0  0.16349576284E+02  0.15365119088E+03  0.94119600024E+02  0.21990723338E+03  0.12499878031E+03 0.  0.
          2    1    1    2  501    0 -0.85067659349E+02 -0.11161563932E+03 -0.24453955399E+04  0.24494190953E+04  0.00000000000E+00 0. -1.
          1    1    1    2  502    0  0.68718083065E+02 -0.42035551562E+02  0.53899512947E+03  0.54498157045E+03  0.00000000000E+00 0. -1.
         22    1    3    3    0    0  0.16235450311E+02 -0.83796138119E+00 -0.21492534776E+02  0.26948489330E+02  0.00000000000E+00 0. -1.
         22    1    3    3    0    0  0.11412597233E+00  0.15448915227E+03  0.11561213480E+03  0.19295874405E+03  0.00000000000E+00 0. -1.
</event>
<event>
 7    1  0.4915160E-006  0.1090481E+03  0.7818608E-02  0.1343814E+00
          2   -1    0    0  502    0  0.00000000000E+00  0.00000000000E+00  0.13134396636E+04  0.13134396636E+04  0.00000000000E+00 0. -1.
          1   -1    0    0  501    0 -0.00000000000E+00 -0.00000000000E+00 -0.36523875399E+02  0.36523875399E+02  0.00000000000E+00 0. -1.
         25    2    1    2    0    0  0.76085437342E+02 -0.23720601801E+02  0.46479193396E+03  0.48785894169E+03  0.12499257734E+03 0.  0.
          2    1    1    2  501    0 -0.95577862122E+02  0.71505742788E+02  0.12424819742E+03  0.17229571539E+03  0.00000000000E+00 0. -1.
          1    1    1    2  502    0  0.19492424780E+02 -0.47785140987E+02  0.68787565682E+03  0.68980888192E+03  0.00000000000E+00 0. -1.
         22    1    3    3    0    0  0.25201746767E+01  0.44734122860E+02  0.10199255862E+03  0.11140006752E+03  0.00000000000E+00 0.  1.
         22    1    3    3    0    0  0.73565262665E+02 -0.68454724661E+02  0.36279937533E+03  0.37645887417E+03  0.00000000000E+00 0.  1.
</event>
<event>
 7    1  0.4915160E-006  0.3891497E+02  0.7818608E-02  0.1549926E+00
          2   -1    0    0  502    0  0.00000000000E+00  0.00000000000E+00  0.17799164988E+04  0.17799164988E+04  0.00000000000E+00 0. -1.
          1   -1    0    0  501    0 -0.00000000000E+00 -0.00000000000E+00 -0.12061604312E+04  0.12061604312E+04  0.00000000000E+00 0. -1.
         25    2    1    2    0    0  0.60183541350E+01 -0.31887812459E+02  0.49856852596E+01  0.12924619726E+03  0.12500667693E+03 0.  0.
          2    1    1    2  501    0  0.25125919971E+02  0.29835398792E+02 -0.11435554367E+04  0.11442204768E+04  0.00000000000E+00 0. -1.
          1    1    1    2  502    0 -0.31144274106E+02  0.20524136675E+01  0.17123258190E+04  0.17126102559E+04  0.00000000000E+00 0. -1.
         22    1    3    3    0    0  0.49135192175E+02 -0.31242766972E+02  0.42502101017E+02  0.72088877013E+02  0.00000000000E+00 0.  1.
         22    1    3    3    0    0 -0.43116838040E+02 -0.64504548791E+00 -0.37516415758E+02  0.57157320245E+02  0.00000000000E+00 0.  1.
</event>
<event>
 7    1  0.4915160E-006  0.1385140E+03  0.7818608E-02  0.1261207E+00
          2   -1    0    0  502    0  0.00000000000E+00  0.00000000000E+00  0.30443687979E+03  0.30443687979E+03  0.00000000000E+00 0. -1.
          1   -1    0    0  501    0 -0.00000000000E+00 -0.00000000000E+00 -0.17949739618E+04  0.17949739618E+04  0.00000000000E+00 0. -1.
         25    2    1    2    0    0 -0.30016530740E+02  0.10547176327E+03 -0.48826951556E+03  0.51581134724E+03  0.12501576363E+03 0.  0.
          2    1    1    2  501    0  0.11659725576E+03 -0.99152106605E+02 -0.12817957618E+04  0.12909014041E+04  0.00000000000E+00 0. -1.
          1    1    1    2  502    0 -0.86580725016E+02 -0.63196566633E+01  0.27952819535E+03  0.29269809019E+03  0.00000000000E+00 0. -1.
         22    1    3    3    0    0 -0.64975273142E+02  0.96593361366E+02 -0.44239553240E+03  0.45745586746E+03  0.00000000000E+00 0.  1.
         22    1    3    3    0    0  0.34958742402E+02  0.88784019024E+01 -0.45873983156E+02  0.58355479788E+02  0.00000000000E+00 0.  1.
</event>
<event>
 7    1  0.4915160E-006  0.1079356E+03  0.7818608E-02  0.1371082E+00
          2   -1    0    0  502    0  0.00000000000E+00  0.00000000000E+00  0.12526894390E+03  0.12526894390E+03  0.00000000000E+00 0. -1.
          1   -1    0    0  501    0 -0.00000000000E+00 -0.00000000000E+00 -0.14467242658E+04  0.14467242658E+04  0.00000000000E+00 0. -1.
         25    2    1    2    0    0  0.34863930897E+02  0.95935663194E+02 -0.99693623114E+02  0.18969598775E+03  0.12500641635E+03 0.  0.
          2    1    1    2  501    0  0.39264686485E+02 -0.13202640615E+02 -0.12630933762E+04  0.12637724883E+04  0.00000000000E+00 0. -1.
          1    1    1    2  502    0 -0.74128617382E+02 -0.82733022580E+02  0.41331677347E+02  0.11852473367E+03  0.00000000000E+00 0. -1.
         22    1    3    3    0    0 -0.36580857188E+02  0.38810540912E+02  0.14108655562E+01  0.53351736055E+02  0.00000000000E+00 0.  1.
         22    1    3    3    0    0  0.71444788085E+02  0.57125122282E+02 -0.10110448867E+03  0.13634425169E+03  0.00000000000E+00 0.  1.
</event>
<event>
 7    1  0.4915160E-006  0.1005226E+03  0.7818608E-02  0.1319390E+00
          2   -1    0    0  502    0  0.00000000000E+00  0.00000000000E+00  0.61519330099E+03  0.61519330099E+03  0.00000000000E+00 0. -1.
          1   -1    0    0  501    0 -0.00000000000E+00 -0.00000000000E+00 -0.83248026564E+03  0.83248026564E+03  0.00000000000E+00 0. -1.
         25    2    1    2    0    0  0.17205634157E+01  0.66207794415E+02  0.28230054311E+03  0.31576535977E+03  0.12501093317E+03 0.  0.
          2    1    1    2  501    0 -0.70838459302E+02 -0.72089803271E+02 -0.80875929525E+03  0.81505007497E+03  0.00000000000E+00 0. -1.
          1    1    1    2  502    0  0.69117895886E+02  0.58820088560E+01  0.30917178749E+03  0.31685813188E+03  0.00000000000E+00 0. -1.
         22    1    3    3    0    0 -0.34371353086E+02  0.82961878433E+02  0.24609762386E+03  0.26196966170E+03  0.00000000000E+00 0.  1.
         22    1    3    3    0    0  0.36091916501E+02 -0.16754084018E+02  0.36202919259E+02  0.53795698070E+02  0.00000000000E+00 0.  1.
</event>
<event>
 7    1  0.4915160E-006  0.7296999E+02  0.7818608E-02  0.1410349E+00
          2   -1    0    0  502    0  0.00000000000E+00  0.00000000000E+00  0.15152922166E+04  0.15152922166E+04  0.00000000000E+00 0. -1.
          1   -1    0    0  501    0 -0.00000000000E+00 -0.00000000000E+00 -0.35473702294E+02  0.35473702294E+02  0.00000000000E+00 0. -1.
         25    2    1    2    0    0 -0.64916824056E+02  0.83591149784E+02  0.50910262742E+03  0.53480126468E+03  0.12500093238E+03 0.  0.
          2    1    1    2  501    0  0.68621965641E+01 -0.44176976063E+02  0.20428494093E+01  0.44753415394E+02  0.00000000000E+00 0. -1.
          1    1    1    2  502    0  0.58054627492E+02 -0.39414173721E+02  0.96867303744E+03  0.97121123878E+03  0.00000000000E+00 0. -1.
         22    1    3    3    0    0  0.11903762395E+02  0.27405885180E+02  0.18700391055E+02  0.35248925193E+02  0.00000000000E+00 0. -1.
         22    1    3    3    0    0 -0.76820586451E+02  0.56185264604E+02  0.49040223636E+03  0.49955233949E+03  0.00000000000E+00 0. -1.
</event>
<event>
 7    1  0.4915160E-006  0.1227058E+03  0.7818608E-02  0.1239456E+00
          2   -1    0    0  502    0  0.00000000000E+00  0.00000000000E+00  0.70828412293E+03  0.70828412293E+03  0.00000000000E+00 0. -1.
          1   -1    0    0  501    0 -0.00000000000E+00 -0.00000000000E+00 -0.18771745936E+04  0.18771745936E+04  0.00000000000E+00 0. -1.
         25    2    1    2    0    0  0.59436889211E+02 -0.21012996208E+01  0.38914537015E+02  0.14379269433E+03  0.12499935397E+03 0.  0.
          2    1    1    2  501    0 -0.28625926340E+02  0.12087586815E+03 -0.18164918219E+04  0.18207341811E+04  0.00000000000E+00 0. -1.
          1    1    1    2  502    0 -0.30810962871E+02 -0.11877456853E+03  0.60868681419E+03  0.62093184114E+03  0.00000000000E+00 0. -1.
         22    1    3    3    0    0  0.13964109190E+02  0.20461077222E+02  0.76641775825E+02  0.80545725077E+02  0.00000000000E+00 0. -1.
         22    1    3    3    0    0  0.45472780021E+02 -0.22562376842E+02 -0.37727238811E+02  0.63246969255E+02  0.00000000000E+00 0. -1.
</event>
<event>
 7    1  0.4915160E-006  0.1807141E+03  0.7818608E-02  0.1176664E+00
          2   -1    0    0  502    0  0.00000000000E+00  0.00000000000E+00  0.95002529007E+03  0.95002529007E+03  0.00000000000E+00 0. -1.
          1   -1    0    0  501    0 -0.00000000000E+00 -0.00000000000E+00 -0.13722699208E+04  0.13722699208E+04  0.00000000000E+00 0. -1.
         25    2    1    2    0    0 -0.20316187816E+03 -0.22176625390E+03 -0.85544399675E+03  0.91534976387E+03  0.12500295412E+03 0.  0.
          2    1    1    2  501    0  0.34920817504E+02  0.15826629149E+03 -0.46421354813E+03  0.49169289276E+03  0.00000000000E+00 0. -1.
          1    1    1    2  502    0  0.16824106066E+03  0.63499962405E+02  0.89741291411E+03  0.91525255429E+03  0.00000000000E+00 0. -1.
         22    1    3    3    0    0  0.76065817404E+01  0.98847523334E+01 -0.30054369743E+02  0.32539722726E+02  0.00000000000E+00 0.  1.
         22    1    3    3    0    0 -0.21076845991E+03 -0.23165100623E+03 -0.82538962700E+03  0.88281004114E+03  0.00000000000E+00 0.  1.
</event>
<event>
 7    1  0.4915160E-006  0.6931273E+02  0.7818608E-02  0.1476482E+00
          2   -1    0    0  502    0  0.00000000000E+00  0.00000000000E+00  0.89628694375E+03  0.89628694375E+03  0.00000000000E+00 0. -1.
          1   -1    0    0  501    0 -0.00000000000E+00 -0.00000000000E+00 -0.31720744582E+02  0.31720744582E+02  0.00000000000E+00 0. -1.
         25    2    1    2    0    0 -0.22812138018E+02 -0.74110234940E+02  0.28816716169E+03  0.32351676718E+03  0.12494024574E+03 0.  0.
          2    1    1    2  501    0  0.28261240330E+02  0.54095556104E+01  0.53118629818E+01  0.29260500426E+02  0.00000000000E+00 0. -1.
          1    1    1    2  502    0 -0.54491023111E+01  0.68700679329E+02  0.57108717449E+03  0.57523042073E+03  0.00000000000E+00 0. -1.
         22    1    3    3    0    0 -0.59489377408E+02 -0.40674831255E+02  0.25201247917E+03  0.26211394007E+03  0.00000000000E+00 0. -1.
         22    1    3    3    0    0  0.36677239389E+02 -0.33435403685E+02  0.36154682523E+02  0.61402827110E+02  0.00000000000E+00 0. -1.
</event>
<event>
 7    1  0.4915160E-006  0.7830437E+02  0.7818608E-02  0.1505981E+00
          2   -1    0    0  502    0  0.00000000000E+00  0.00000000000E+00  0.15927519664E+03  0.15927519664E+03  0.00000000000E+00 0. -1.
          1   -1    0    0  501    0 -0.00000000000E+00 -0.00000000000E+00 -0.13701926705E+03  0.13701926705E+03  0.00000000000E+00 0. -1.
         25    2    1    2    0    0 -0.86574606015E+02  0.36147279613E+02  0.29679570737E+02  0.15907033035E+03  0.12498281822E+03 0.  0.
          2    1    1    2  501    0  0.18280414659E+02 -0.98083973411E+01 -0.48881560183E+02  0.53101649168E+02  0.00000000000E+00 0. -1.
          1    1    1    2  502    0  0.68294191356E+02 -0.26338882271E+02  0.41457919031E+02  0.84122484168E+02  0.00000000000E+00 0. -1.
         22    1    3    3    0    0 -0.53129465775E+02 -0.31841983278E+02 -0.23770027383E+02  0.66345054333E+02  0.00000000000E+00 0.  1.
         22    1    3    3    0    0 -0.33445140240E+02  0.67989262891E+02  0.53449598120E+02  0.92725276021E+02  0.00000000000E+00 0.  1.
</event>
<event>
 7    1  0.4915160E-006  0.2644532E+03  0.7818608E-02  0.1207543E+00
          2   -1    0    0  502    0  0.00000000000E+00  0.00000000000E+00  0.12835914858E+04  0.12835914858E+04  0.00000000000E+00 0. -1.
          1   -1    0    0  501    0 -0.00000000000E+00 -0.00000000000E+00 -0.13056319674E+03  0.13056319674E+03  0.00000000000E+00 0. -1.
         25    2    1    2    0    0 -0.27990322353E+03  0.26024523011E+02  0.20809615490E+03  0.37141914385E+03  0.12500032159E+03 0.  0.
          2    1    1    2  501    0  0.21899622168E+02 -0.75731763137E+02  0.20174078144E+02  0.81374976669E+02  0.00000000000E+00 0. -1.
          1    1    1    2  502    0  0.25800360136E+03  0.49707240126E+02  0.92475805605E+03  0.96136056205E+03  0.00000000000E+00 0. -1.
         22    1    3    3    0    0 -0.17837060414E+03 -0.36479620464E+02  0.16162585524E+03  0.24345379893E+03  0.00000000000E+00 0.  1.
         22    1    3    3    0    0 -0.10153261939E+03  0.62504143475E+02  0.46470299658E+02  0.12796534493E+03  0.00000000000E+00 0.  1.
</event>
<event>
 7    1  0.4915160E-006  0.7415635E+02  0.7818608E-02  0.1396487E+00
          2   -1    0    0  502    0  0.00000000000E+00  0.00000000000E+00  0.38015302075E+02  0.38015302075E+02  0.00000000000E+00 0. -1.
          1   -1    0    0  501    0 -0.00000000000E+00 -0.00000000000E+00 -0.56041966326E+03  0.56041966326E+03  0.00000000000E+00 0. -1.
         25    2    1    2    0    0 -0.61575443107E+02 -0.16526897793E+02 -0.24030399105E+03  0.27827267627E+03  0.12500000281E+03 0.  0.
          2    1    1    2  501    0  0.75326954801E+02 -0.30574553741E+02 -0.24644634745E+03  0.25950868122E+03  0.00000000000E+00 0. -1.
          1    1    1    2  502    0 -0.13751511694E+02  0.47101451534E+02 -0.35654022689E+02  0.60653607843E+02  0.00000000000E+00 0. -1.
         22    1    3    3    0    0  0.26316064811E+02 -0.72086327161E+01 -0.14793357617E+03  0.15042886230E+03  0.00000000000E+00 0. -1.
         22    1    3    3    0    0 -0.87891507918E+02 -0.93182650769E+01 -0.92370414874E+02  0.12784381398E+03  0.00000000000E+00 0. -1.
</event>
<event>
 7    1  0.5481814E-006  0.1985850E+03  0.7818608E-02  0.1195905E+00
          2   -1    0    0  502    0  0.00000000000E+00  0.00000000000E+00  0.13519213300E+04  0.13519213300E+04  0.00000000000E+00 0. -1.
          1   -1    0    0  501    0 -0.00000000000E+00 -0.00000000000E+00 -0.93326347750E+03  0.93326347750E+03  0.00000000000E+00 0. -1.
         25    2    1    2    0    0  0.61323916917E+02 -0.66351217531E+02 -0.25521035067E+03  0.29819740463E+03  0.12500504863E+03 0.  0.
          2    1    1    2  501    0  0.11462087836E+03 -0.32289010433E+02 -0.64341926210E+03  0.65434614142E+03  0.00000000000E+00 0. -1.
          1    1    1    2  502    0 -0.17594479528E+03  0.98640227964E+02  0.13172874653E+04  0.13326412614E+04  0.00000000000E+00 0. -1.
         22    1    3    3    0    0  0.81447900475E+02 -0.16917990642E+02 -0.81439047285E+02  0.11641433469E+03  0.00000000000E+00 0.  1.
         22    1    3    3    0    0 -0.20123983557E+02 -0.49433226890E+02 -0.17377130339E+03  0.18178306994E+03  0.00000000000E+00 0.  1.
</event>
<event>
 7    1  0.4915160E-006  0.7761848E+02  0.7818608E-02  0.1443417E+00
          2   -1    0    0  502    0  0.00000000000E+00  0.00000000000E+00  0.28547835670E+03  0.28547835670E+03  0.00000000000E+00 0. -1.
          1   -1    0    0  501    0 -0.00000000000E+00 -0.00000000000E+00 -0.64571501998E+03  0.64571501998E+03  0.00000000000E+00 0. -1.
         25    2    1    2    0    0  0.75778166937E+02 -0.58683246122E+02 -0.49926378129E+03  0.52352185131E+03  0.12499900610E+03 0.  0.
          2    1    1    2  501    0 -0.44827348888E+02  0.48217164483E+02 -0.12518794385E+03  0.14144400816E+03  0.00000000000E+00 0. -1.
          1    1    1    2  502    0 -0.30950818048E+02  0.10466081639E+02  0.26421506187E+03  0.26622751721E+03  0.00000000000E+00 0. -1.
         22    1    3    3    0    0  0.10868784139E+03 -0.59528611443E+02 -0.37352662078E+03  0.39354648884E+03  0.00000000000E+00 0.  1.
         22    1    3    3    0    0 -0.32909674453E+02  0.84536532026E+00 -0.12573716051E+03  0.12997536247E+03  0.00000000000E+00 0.  1.
</event>
<event>
 7    1  0.4915160E-006  0.1101971E+03  0.7818608E-02  0.1329272E+00
          2   -1    0    0  502    0  0.00000000000E+00  0.00000000000E+00  0.24003711848E+03  0.24003711848E+03  0.00000000000E+00 0. -1.
          1   -1    0    0  501    0 -0.00000000000E+00 -0.00000000000E+00 -0.10042971752E+04  0.10042971752E+04  0.00000000000E+00 0. -1.
         25    2    1    2    0    0  0.33485581824E+02  0.65560025155E+02 -0.17255100887E+03  0.22542870526E+03  0.12499939763E+03 0.  0.
          2    1    1    2  501    0 -0.32514482078E+02  0.47986948416E+02 -0.78907750198E+03  0.79120366714E+03  0.00000000000E+00 0. -1.
          1    1    1    2  502    0 -0.97109974572E+00 -0.11354697357E+03  0.19736845416E+03  0.22770192125E+03  0.00000000000E+00 0. -1.
         22    1    3    3    0    0 -0.37584715348E+02  0.23752337047E+02 -0.11919181216E+03  0.12721427762E+03  0.00000000000E+00 0.  1.
         22    1    3    3    0    0  0.71070297173E+02  0.41807688107E+02 -0.53359196707E+02  0.98214427648E+02  0.00000000000E+00 0.  1.
</event>
<event>
 7    1  0.4915160E-006  0.7670181E+02  0.7818608E-02  0.1392719E+00
          2   -1    0    0  502    0  0.00000000000E+00  0.00000000000E+00  0.24022443645E+03  0.24022443645E+03  0.00000000000E+00 0. -1.
          1   -1    0    0  501    0 -0.00000000000E+00 -0.00000000000E+00 -0.60371586700E+03  0.60371586700E+03  0.00000000000E+00 0. -1.
         25    2    1    2    0    0  0.99492417200E+02 -0.71616177731E+02 -0.80923596462E+02  0.19287579536E+03  0.12499930392E+03 0.  0.
          2    1    1    2  501    0 -0.36274710023E+02  0.32774438791E+02 -0.45799237847E+03  0.46059422181E+03  0.00000000000E+00 0. -1.
          1    1    1    2  502    0 -0.63217707177E+02  0.38841738940E+02  0.17542454438E+03  0.19047028628E+03  0.00000000000E+00 0. -1.
         22    1    3    3    0    0  0.34178417294E+01  0.28732820193E+02  0.52311318682E+01  0.29404444204E+02  0.00000000000E+00 0.  1.
         22    1    3    3    0    0  0.96074575471E+02 -0.10034899792E+03 -0.86154728330E+02  0.16347135116E+03  0.00000000000E+00 0.  1.
</event>
<event>
 7    1  0.4915160E-006  0.1052448E+03  0.7818608E-02  0.1412946E+00
          2   -1    0    0  502    0  0.00000000000E+00  0.00000000000E+00  0.14975429188E+04  0.14975429188E+04  0.00000000000E+00 0. -1.
          1   -1    0    0  501    0 -0.00000000000E+00 -0.00000000000E+00 -0.90272919946E+02  0.90272919946E+02  0.00000000000E+00 0. -1.
         25    2    1    2    0    0 -0.26046728467E+02 -0.74075208075E+02  0.11266658929E+03  0.18570068366E+03  0.12500166021E+03 0.  0.
          2    1    1    2  501    0 -0.21232192505E+02 -0.21723489719E+02 -0.47165123060E+02  0.56100488745E+02  0.00000000000E+00 0. -1.
          1    1    1    2  502    0  0.47278920972E+02  0.95798697793E+02  0.13417685326E+04  0.13460146663E+04  0.00000000000E+00 0. -1.
         22    1    3    3    0    0  0.28932329662E+01 -0.23567091362E+02  0.12412197565E+03  0.12637263719E+03  0.00000000000E+00 0.  1.
         22    1    3    3    0    0 -0.28939961433E+02 -0.50508116713E+02 -0.11455386353E+02  0.59328046472E+02  0.00000000000E+00 0.  1.
</event>
<event>
 7    1  0.4915160E-006  0.1399195E+03  0.7818608E-02  0.1326044E+00
          2   -1    0    0  502    0  0.00000000000E+00  0.00000000000E+00  0.24888529931E+04  0.24888529931E+04  0.00000000000E+00 0. -1.
          1   -1    0    0  501    0 -0.00000000000E+00 -0.00000000000E+00 -0.30919473585E+03  0.30919473585E+03  0.00000000000E+00 0. -1.
         25    2    1    2    0    0 -0.60029642215E+02 -0.10014677431E+03  0.96006223368E+03  0.97518039916E+03  0.12499753601E+03 0.  0.
          2    1    1    2  501    0  0.12876512852E+02 -0.45172262756E+02 -0.29594287012E+03  0.29964732651E+03  0.00000000000E+00 0. -1.
          1    1    1    2  502    0  0.47153129362E+02  0.14531903707E+03  0.15155388937E+04  0.15232200033E+04  0.00000000000E+00 0. -1.
         22    1    3    3    0    0  0.19941657663E+02 -0.47474132333E+02  0.61272102623E+03  0.61488089817E+03  0.00000000000E+00 0. -1.
         22    1    3    3    0    0 -0.79971299878E+02 -0.52672641979E+02  0.34734120745E+03  0.36029950099E+03  0.00000000000E+00 0. -1.
</event>
<event>
 7    1  0.4915160E-006  0.6785281E+02  0.7818608E-02  0.1449844E+00
          2   -1    0    0  502    0  0.00000000000E+00  0.00000000000E+00  0.40716123318E+02  0.40716123318E+02  0.00000000000E+00 0. -1.
          1   -1    0    0  501    0 -0.00000000000E+00 -0.00000000000E+00 -0.10927783351E+04  0.10927783351E+04  0.00000000000E+00 0. -1.
         25    2    1    2    0    0 -0.51657308073E+02 -0.60336001418E+01 -0.38561804741E+03  0.40869414384E+03  0.12499897163E+03 0.  0.
          2    1    1    2  501    0  0.58324183118E+02  0.41042903798E+02 -0.68214041582E+03  0.68585842357E+03  0.00000000000E+00 0. -1.
          1    1    1    2  502    0 -0.66668750459E+01 -0.35009303656E+02  0.15696251454E+02  0.38941891005E+02  0.00000000000E+00 0. -1.
         22    1    3    3    0    0  0.14798799658E+02  0.46944405565E+02 -0.11638918861E+03  0.12636939864E+03  0.00000000000E+00 0.  1.
         22    1    3    3    0    0 -0.66456107731E+02 -0.52978005707E+02 -0.26922885880E+03  0.28232474520E+03  0.00000000000E+00 0.  1.
</event>
<event>
 7    1  0.4915160E-006  0.4889586E+02  0.7818608E-02  0.1568221E+00
          2   -1    0    0  502    0  0.00000000000E+00  0.00000000000E+00  0.38037688639E+03  0.38037688639E+03  0.00000000000E+00 0. -1.
          1   -1    0    0  501    0 -0.00000000000E+00 -0.00000000000E+00 -0.11030242028E+04  0.11030242028E+04  0.00000000000E+00 0. -1.
         25    2    1    2    0    0 -0.29040215968E+02  0.34651906880E+02 -0.67342551586E+03  0.68641921156E+03  0.12500127919E+03 0.  0.
          2    1    1    2  501    0  0.46210346179E+02 -0.20709973396E+02 -0.42125704741E+03  0.42428975840E+03  0.00000000000E+00 0. -1.
          1    1    1    2  502    0 -0.17170130211E+02 -0.13941933484E+02  0.37203524683E+03  0.37269211927E+03  0.00000000000E+00 0. -1.
         22    1    3    3    0    0 -0.49126473794E+02  0.72716400478E+02 -0.50581430826E+03  0.51337043133E+03  0.00000000000E+00 0.  1.
         22    1    3    3    0    0  0.20086257826E+02 -0.38064493597E+02 -0.16761120759E+03  0.17304878023E+03  0.00000000000E+00 0.  1.
</event>
<event>
 7    1  0.4915160E-006  0.6803106E+02  0.7818608E-02  0.1464115E+00
          2   -1    0    0  502    0  0.00000000000E+00  0.00000000000E+00  0.18962678704E+04  0.18962678704E+04  0.00000000000E+00 0. -1.
          1   -1    0    0  501    0 -0.00000000000E+00 -0.00000000000E+00 -0.96850588545E+01  0.96850588545E+01  0.00000000000E+00 0. -1.
         25    2    1    2    0    0  0.40946530067E+02 -0.10971393774E+02  0.10821353047E+04  0.10901557258E+04  0.12500279598E+03 0.  0.
          2    1    1    2  501    0 -0.70740880197E+02  0.22729834881E+02  0.26001341844E+03  0.27042169901E+03  0.00000000000E+00 0. -1.
          1    1    1    2  502    0  0.29794350130E+02 -0.11758441107E+02  0.54443408844E+03  0.54537550448E+03  0.00000000000E+00 0. -1.
         22    1    3    3    0    0  0.32079227497E+02  0.19848760930E+02  0.91098312516E+02  0.98599962934E+02  0.00000000000E+00 0.  1.
         22    1    3    3    0    0  0.88673025703E+01 -0.30820154705E+02  0.99103699215E+03  0.99155576283E+03  0.00000000000E+00 0.  1.
</event>
<event>
 7    1  0.4915160E-006  0.5005487E+02  0.7818608E-02  0.1477497E+00
          2   -1    0    0  502    0  0.00000000000E+00  0.00000000000E+00  0.15784396695E+02  0.15784396695E+02  0.00000000000E+00 0. -1.
          1   -1    0    0  501    0 -0.00000000000E+00 -0.00000000000E+00 -0.38824114566E+04  0.38824114566E+04  0.00000000000E+00 0. -1.
         25    2    1    2    0    0 -0.78491923723E+02  0.35032736107E+02 -0.18618494045E+04  0.18680191087E+04  0.12499564161E+03 0.  0.
          2    1    1    2  501    0  0.44431475543E+02 -0.14913126625E+02 -0.19857085389E+04  0.19862615534E+04  0.00000000000E+00 0. -1.
          1    1    1    2  502    0  0.34060448180E+02 -0.20119609481E+02 -0.19069116543E+02  0.43915191240E+02  0.00000000000E+00 0. -1.
         22    1    3    3    0    0  0.75886240049E+01  0.33789066843E+02 -0.14755423543E+03  0.15156365212E+03  0.00000000000E+00 0. -1.
         22    1    3    3    0    0 -0.86080547727E+02  0.12436692634E+01 -0.17142951691E+04  0.17164554565E+04  0.00000000000E+00 0. -1.
</event>
<event>
 7    1  0.6331864E-006  0.5782127E+02  0.7818608E-02  0.1497647E+00
          2   -1    0    0  502    0  0.00000000000E+00  0.00000000000E+00  0.49000877579E+03  0.49000877579E+03  0.00000000000E+00 0. -1.
          1   -1    0    0  501    0 -0.00000000000E+00 -0.00000000000E+00 -0.20775995140E+04  0.20775995140E+04  0.00000000000E+00 0. -1.
         25    2    1    2    0    0  0.57309342766E+02  0.42976576640E+02 -0.45109711459E+03  0.47354355726E+03  0.12499418756E+03 0.  0.
          2    1    1    2  501    0 -0.10568792323E+01 -0.29727479288E+02 -0.16133976499E+04  0.16136718429E+04  0.00000000000E+00 0. -1.
          1    1    1    2  502    0 -0.56252463534E+02 -0.13249097351E+02  0.47690402619E+03  0.48039288966E+03  0.00000000000E+00 0. -1.
         22    1    3    3    0    0  0.69110021657E+02  0.14940102851E+02 -0.10791331171E+03  0.12901428065E+03  0.00000000000E+00 0. -1.
         22    1    3    3    0    0 -0.11800678890E+02  0.28036473789E+02 -0.34318380288E+03  0.34452927661E+03  0.00000000000E+00 0. -1.
</event>
<event>
 7    1  0.4915160E-006  0.4969174E+02  0.7818608E-02  0.1463950E+00
          2   -1    0    0  502    0  0.00000000000E+00  0.00000000000E+00  0.13070560313E+04  0.13070560313E+04  0.00000000000E+00 0. -1.
          1   -1    0    0  501    0 -0.00000000000E+00 -0.00000000000E+00 -0.76005339073E+03  0.76005339073E+03  0.00000000000E+00 0. -1.
         25    2    1    2    0    0  0.84378412610E+02 -0.19718416982E+02 -0.10733587029E+03  0.18615643987E+03  0.12499879429E+03 0.  0.
          2    1    1    2  501    0 -0.43188821791E+02 -0.78927404481E+01 -0.61203563899E+03  0.61360833850E+03  0.00000000000E+00 0. -1.
          1    1    1    2  502    0 -0.41189590820E+02  0.27611157430E+02  0.12663741499E+04  0.12673446437E+04  0.00000000000E+00 0. -1.
         22    1    3    3    0    0  0.46230635709E+02  0.16148409163E+02 -0.12226625463E+03  0.13170831340E+03  0.00000000000E+00 0. -1.
         22    1    3    3    0    0  0.38147776902E+02 -0.35866826145E+02  0.14930384341E+02  0.54448126477E+02  0.00000000000E+00 0. -1.
</event>
<event>
 7    1  0.4915160E-006  0.8736763E+02  0.7818608E-02  0.1469937E+00
          2   -1    0    0  502    0  0.00000000000E+00  0.00000000000E+00  0.19887588411E+04  0.19887588411E+04  0.00000000000E+00 0. -1.
          1   -1    0    0  501    0 -0.00000000000E+00 -0.00000000000E+00 -0.21635777240E+02  0.21635777240E+02  0.00000000000E+00 0. -1.
         25    2    1    2    0    0  0.64483977432E+01 -0.67217012396E+02  0.56176688020E+03  0.57945159314E+03  0.12498964962E+03 0.  0.
          2    1    1    2  501    0 -0.47333026809E+01 -0.23445590445E+02  0.12917350734E+01  0.23953464157E+02  0.00000000000E+00 0. -1.
          1    1    1    2  502    0 -0.17150950623E+01  0.90662602841E+02  0.14040644486E+04  0.14069895610E+04  0.00000000000E+00 0. -1.
         22    1    3    3    0    0  0.14806342099E+02 -0.26233767023E+02  0.51813413155E+03  0.51900907177E+03  0.00000000000E+00 0. -1.
         22    1    3    3    0    0 -0.83579443561E+01 -0.40983245373E+02  0.43632748654E+02  0.60442521376E+02  0.00000000000E+00 0. -1.
</event>
<event>
 7    1  0.4915160E-006  0.9367376E+02  0.7818608E-02  0.1372075E+00
          2   -1    0    0  502    0  0.00000000000E+00  0.00000000000E+00  0.21738663245E+04  0.21738663245E+04  0.00000000000E+00 0. -1.
          1   -1    0    0  501    0 -0.00000000000E+00 -0.00000000000E+00 -0.20249825497E+02  0.20249825497E+02  0.00000000000E+00 0. -1.
         25    2    1    2    0    0 -0.32732570006E+02 -0.99164053913E+02  0.11669764449E+04  0.11782887197E+04  0.12500141307E+03 0.  0.
          2    1    1    2  501    0  0.66418554429E+02  0.65899598479E+02  0.14318143283E+03  0.17104123526E+03  0.00000000000E+00 0. -1.
          1    1    1    2  502    0 -0.33685984422E+02  0.33264455434E+02  0.84345862132E+03  0.84478619509E+03  0.00000000000E+00 0. -1.
         22    1    3    3    0    0  0.45923813773E+02 -0.16901985211E+02  0.32961251586E+03  0.33322527574E+03  0.00000000000E+00 0.  1.
         22    1    3    3    0    0 -0.78656383779E+02 -0.82262068702E+02  0.83736392901E+03  0.84506344392E+03  0.00000000000E+00 0.  1.
</event>
<event>
 7    1  0.4915160E-006  0.1909302E+03  0.7818608E-02  0.1174144E+00
          2   -1    0    0  502    0  0.00000000000E+00  0.00000000000E+00  0.50478137721E+03  0.50478137721E+03  0.00000000000E+00 0. -1.
          1   -1    0    0  501    0 -0.00000000000E+00 -0.00000000000E+00 -0.11121678276E+04  0.11121678276E+04  0.00000000000E+00 0. -1.
         25    2    1    2    0    0 -0.29196676545E+03 -0.25642304105E+02 -0.35331609018E+03  0.47577220599E+03  0.12499925010E+03 0.  0.
          2    1    1    2  501    0  0.13646462840E+03 -0.79323196443E+02 -0.66816917443E+03  0.68656012843E+03  0.00000000000E+00 0. -1.
          1    1    1    2  502    0  0.15550213705E+03  0.10496550055E+03  0.41409881420E+03  0.45461687040E+03  0.00000000000E+00 0. -1.
         22    1    3    3    0    0 -0.19989924815E+03  0.37185880456E+02 -0.19170963205E+03  0.27945497336E+03  0.00000000000E+00 0.  1.
         22    1    3    3    0    0 -0.92067517299E+02 -0.62828184560E+02 -0.16160645813E+03  0.19631723263E+03  0.00000000000E+00 0.  1.
</event>
<event>
 7    1  0.4915160E-006  0.1472880E+03  0.7818608E-02  0.1279787E+00
          2   -1    0    0  502    0  0.00000000000E+00  0.00000000000E+00  0.21985543671E+04  0.21985543671E+04  0.00000000000E+00 0. -1.
          1   -1    0    0  501    0 -0.00000000000E+00 -0.00000000000E+00 -0.14957106436E+04  0.14957106436E+04  0.00000000000E+00 0. -1.
         25    2    1    2    0    0 -0.50707417216E+02  0.13260075054E+03  0.49576380149E+01  0.18921380537E+03  0.12499233881E+03 0.  0.
          2    1    1    2  501    0  0.11011205837E+03 -0.99051513466E+02 -0.13991191467E+04  0.14069364785E+04  0.00000000000E+00 0. -1.
          1    1    1    2  502    0 -0.59404641149E+02 -0.33549237074E+02  0.20970052322E+04  0.20981147268E+04  0.00000000000E+00 0. -1.
         22    1    3    3    0    0  0.32327868052E+02  0.55025407385E+02 -0.29728138463E+02  0.70403470988E+02  0.00000000000E+00 0.  1.
         22    1    3    3    0    0 -0.83035285268E+02  0.77575343155E+02  0.34685776478E+02  0.11881033438E+03  0.00000000000E+00 0.  1.
</event>
<event>
 7    1  0.4915160E-006  0.7900428E+02  0.7818608E-02  0.1479296E+00
          2   -1    0    0  502    0  0.00000000000E+00  0.00000000000E+00  0.33097718269E+04  0.33097718269E+04  0.00000000000E+00 0. -1.
          1   -1    0    0  501    0 -0.00000000000E+00 -0.00000000000E+00 -0.57574573797E+02  0.57574573797E+02  0.00000000000E+00 0. -1.
         25    2    1    2    0    0  0.67044677505E+02  0.59531704540E+01  0.76360819224E+03  0.77669339090E+03  0.12499889276E+03 0.  0.
          2    1    1    2  501    0  0.11775259674E+02 -0.21765023492E+02 -0.47357171575E+02  0.53432898926E+02  0.00000000000E+00 0. -1.
          1    1    1    2  502    0 -0.78819937179E+02  0.15811853038E+02  0.25359462325E+04  0.25372201109E+04  0.00000000000E+00 0. -1.
         22    1    3    3    0    0  0.14341412886E+02 -0.50263572965E+02  0.16334299086E+03  0.17150229022E+03  0.00000000000E+00 0.  1.
         22    1    3    3    0    0  0.52703264618E+02  0.56216743419E+02  0.60026520138E+03  0.60519110067E+03  0.00000000000E+00 0.  1.
</event>
<event>
 7    1  0.4915160E-006  0.4687753E+02  0.7818608E-02  0.1492871E+00
          2   -1    0    0  502    0  0.00000000000E+00  0.00000000000E+00  0.16387467594E+03  0.16387467594E+03  0.00000000000E+00 0. -1.
          1   -1    0    0  501    0 -0.00000000000E+00 -0.00000000000E+00 -0.13005423278E+04  0.13005423278E+04  0.00000000000E+00 0. -1.
         25    2    1    2    0    0 -0.72139886703E+02 -0.30731034133E+02  0.11915180610E+02  0.14803928974E+03  0.12500040026E+03 0.  0.
          2    1    1    2  501    0  0.37835846368E+02  0.25652035588E+01 -0.12262960708E+04  0.12268823028E+04  0.00000000000E+00 0. -1.
          1    1    1    2  502    0  0.34304040335E+02  0.28165830574E+02  0.77713238414E+02  0.89495411167E+02  0.00000000000E+00 0. -1.
         22    1    3    3    0    0 -0.59023493837E+02 -0.20320244352E+02 -0.52448781295E+02  0.81532569042E+02  0.00000000000E+00 0.  1.
         22    1    3    3    0    0 -0.13116392866E+02 -0.10410789781E+02  0.64363961905E+02  0.66506720697E+02  0.00000000000E+00 0.  1.
</event>
<event>
 7    1  0.4915160E-006  0.3431319E+03  0.7818608E-02  0.1110212E+00
          2   -1    0    0  502    0  0.00000000000E+00  0.00000000000E+00  0.70732793377E+03  0.70732793377E+03  0.00000000000E+00 0. -1.
          1   -1    0    0  501    0 -0.00000000000E+00 -0.00000000000E+00 -0.18179877624E+04  0.18179877624E+04  0.00000000000E+00 0. -1.
         25    2    1    2    0    0 -0.40581244687E+03 -0.25771155843E+03  0.63767821329E+02  0.50078879954E+03  0.12499638923E+03 0.  0.
          2    1    1    2  501    0  0.11612204663E+03  0.14967733070E+03 -0.15366566530E+04  0.15482897992E+04  0.00000000000E+00 0. -1.
          1    1    1    2  502    0  0.28969040025E+03  0.10803422772E+03  0.36222900303E+03  0.47623709746E+03  0.00000000000E+00 0. -1.
         22    1    3    3    0    0 -0.13698515861E+03 -0.71000640060E+02 -0.36344287785E+02  0.15851476847E+03  0.00000000000E+00 0. -1.
         22    1    3    3    0    0 -0.26882728827E+03 -0.18671091837E+03  0.10011210911E+03  0.34227403107E+03  0.00000000000E+00 0. -1.
</event>
<event>
 7    1  0.4915160E-006  0.4790642E+02  0.7818608E-02  0.1520691E+00
          2   -1    0    0  502    0  0.00000000000E+00  0.00000000000E+00  0.46848236814E+02  0.46848236814E+02  0.00000000000E+00 0. -1.
          1   -1    0    0  501    0 -0.00000000000E+00 -0.00000000000E+00 -0.73532022130E+03  0.73532022130E+03  0.00000000000E+00 0. -1.
         25    2    1    2    0    0  0.69120674364E+02  0.16847857361E+02 -0.43628544685E+03  0.45938123677E+03  0.12499844655E+03 0.  0.
          2    1    1    2  501    0 -0.29441938656E+02  0.87169606395E+01 -0.27044138739E+03  0.27217890654E+03  0.00000000000E+00 0. -1.
          1    1    1    2  502    0 -0.39678735708E+02 -0.25564818001E+02  0.18254849760E+02  0.50608314796E+02  0.00000000000E+00 0. -1.
         22    1    3    3    0    0  0.31607721463E+02 -0.55598876466E+00 -0.13164310433E+02  0.34244068811E+02  0.00000000000E+00 0. -1.
         22    1    3    3    0    0  0.37512952901E+02  0.17403846126E+02 -0.42312113642E+03  0.42513716796E+03  0.00000000000E+00 0. -1.
</event>
<event>
 7    1  0.4915160E-006  0.2167823E+03  0.7818608E-02  0.1200006E+00
          2   -1    0    0  502    0  0.00000000000E+00  0.00000000000E+00  0.24249660709E+04  0.24249660709E+04  0.00000000000E+00 0. -1.
          1   -1    0    0  501    0 -0.00000000000E+00 -0.00000000000E+00 -0.18403156252E+03  0.18403156252E+03  0.00000000000E+00 0. -1.
         25    2    1    2    0    0  0.87432544728E+02 -0.11839977794E+03  0.53008255569E+03  0.56415538684E+03  0.12498330831E+03 0.  0.
          2    1    1    2  501    0  0.61822613898E+02 -0.84025797849E+02 -0.14133148487E+03  0.17566148954E+03  0.00000000000E+00 0. -1.
          1    1    1    2  502    0 -0.14925515863E+03  0.20242557579E+03  0.18521834376E+04  0.18691807570E+04  0.00000000000E+00 0. -1.
         22    1    3    3    0    0  0.45057507078E+02 -0.12361634523E+03  0.26729894165E+03  0.29792600417E+03  0.00000000000E+00 0. -1.
         22    1    3    3    0    0  0.42375037650E+02  0.52165672823E+01  0.26278361404E+03  0.26622938267E+03  0.00000000000E+00 0. -1.
</event>
<event>
 7    1  0.4915160E-006  0.7011412E+02  0.7818608E-02  0.1527877E+00
          2   -1    0    0  502    0  0.00000000000E+00  0.00000000000E+00  0.67961120582E+03  0.67961120582E+03  0.00000000000E+00 0. -1.
          1   -1    0    0  501    0 -0.00000000000E+00 -0.00000000000E+00 -0.14383134962E+03  0.14383134962E+03  0.00000000000E+00 0. -1.
         25    2    1    2    0    0  0.53517050792E+02 -0.34880626321E+02 -0.34148366749E+02  0.14443375760E+03  0.12495705888E+03 0.  0.
          2    1    1    2  501    0 -0.69821771123E+02  0.23296126253E+02 -0.29463407149E+02  0.79283551774E+02  0.00000000000E+00 0. -1.
          1    1    1    2  502    0  0.16304720330E+02  0.11584500069E+02  0.59939163009E+03  0.59972524607E+03  0.00000000000E+00 0. -1.
         22    1    3    3    0    0 -0.12811640861E+02 -0.10463410934E+02 -0.65176497957E+02  0.67242821147E+02  0.00000000000E+00 0. -1.
         22    1    3    3    0    0  0.66328691653E+02 -0.24417215387E+02  0.31028131208E+02  0.77190936450E+02  0.00000000000E+00 0. -1.
</event>
<event>
 7    1  0.4915160E-006  0.1431331E+03  0.7818608E-02  0.1249455E+00
          2   -1    0    0  502    0  0.00000000000E+00  0.00000000000E+00  0.13026197371E+04  0.13026197371E+04  0.00000000000E+00 0. -1.
          1   -1    0    0  501    0 -0.00000000000E+00 -0.00000000000E+00 -0.44577079406E+03  0.44577079406E+03  0.00000000000E+00 0. -1.
         25    2    1    2    0    0  0.35729070237E+02  0.77159115617E+02  0.16563292674E+03  0.22425421808E+03  0.12500236927E+03 0.  0.
          2    1    1    2  501    0  0.93832657845E+02  0.10130017823E+02 -0.40550578424E+03  0.41634375940E+03  0.00000000000E+00 0. -1.
          1    1    1    2  502    0 -0.12956172808E+03 -0.87289133440E+02  0.10967218005E+04  0.11077925536E+04  0.00000000000E+00 0. -1.
         22    1    3    3    0    0 -0.35411891247E+02  0.72673854115E+01  0.69157868738E+01  0.36805502856E+02  0.00000000000E+00 0. -1.
         22    1    3    3    0    0  0.71140961484E+02  0.69891730206E+02  0.15871713986E+03  0.18744871522E+03  0.00000000000E+00 0. -1.
</event>
<event>
 7    1  0.4915160E-006  0.7015284E+02  0.7818608E-02  0.1461091E+00
          2   -1    0    0  502    0  0.00000000000E+00  0.00000000000E+00  0.21893138890E+04  0.21893138890E+04  0.00000000000E+00 0. -1.
          1   -1    0    0  501    0 -0.00000000000E+00 -0.00000000000E+00 -0.45695039962E+03  0.45695039962E+03  0.00000000000E+00 0. -1.
         25    2    1    2    0    0 -0.34459239145E+02 -0.78269963979E+02 -0.79920525569E+02  0.17124998545E+03  0.12500256272E+03 0.  0.
          2    1    1    2  501    0  0.30654213754E+02  0.82656708325E+01 -0.33002991600E+03  0.33155353654E+03  0.00000000000E+00 0. -1.
          1    1    1    2  502    0  0.38050253912E+01  0.70004293147E+02  0.21423139309E+04  0.21434607666E+04  0.00000000000E+00 0. -1.
         22    1    3    3    0    0 -0.32038130383E+02 -0.56582841012E+02 -0.11373221510E+03  0.13100792513E+03  0.00000000000E+00 0.  1.
         22    1    3    3    0    0 -0.24211087623E+01 -0.21687122967E+02  0.33811689530E+02  0.40242060324E+02  0.00000000000E+00 0.  1.
</event>
<event>
 7    1  0.4915160E-006  0.4699552E+02  0.7818608E-02  0.1480459E+00
          2   -1    0    0  502    0  0.00000000000E+00  0.00000000000E+00  0.68470521850E+03  0.68470521850E+03  0.00000000000E+00 0. -1.
          1   -1    0    0  501    0 -0.00000000000E+00 -0.00000000000E+00 -0.16457955206E+04  0.16457955206E+04  0.00000000000E+00 0. -1.
         25    2    1    2    0    0  0.61855688405E+02 -0.36975099285E+02  0.93337174831E+02  0.17184096685E+03  0.12499682207E+03 0.  0.
          2    1    1    2  501    0 -0.40987850705E+02 -0.47366743477E+01 -0.16052930656E+04  0.16058232363E+04  0.00000000000E+00 0. -1.
          1    1    1    2  502    0 -0.20867837700E+02  0.41711773633E+02  0.55086558863E+03  0.55283653592E+03  0.00000000000E+00 0. -1.
         22    1    3    3    0    0  0.47399069891E+02  0.13632817763E+02  0.10669249736E+03  0.11754069313E+03  0.00000000000E+00 0. -1.
         22    1    3    3    0    0  0.14456618514E+02 -0.50607917048E+02 -0.13355322534E+02  0.54300273726E+02  0.00000000000E+00 0. -1.
</event>
<event>
 7    1  0.4915160E-006  0.1054954E+03  0.7818608E-02  0.1369393E+00
          2   -1    0    0  502    0  0.00000000000E+00  0.00000000000E+00  0.27581301484E+04  0.27581301484E+04  0.00000000000E+00 0. -1.
          1   -1    0    0  501    0 -0.00000000000E+00 -0.00000000000E+00 -0.13361192742E+03  0.13361192742E+03  0.00000000000E+00 0. -1.
         25    2    1    2    0    0 -0.21815611853E+02  0.59086080156E+02  0.19540991685E+04  0.19591053951E+04  0.12499321132E+03 0.  0.
          2    1    1    2  501    0  0.37182336579E+02 -0.99224827708E+02 -0.10900976734E+03  0.15202375460E+03  0.00000000000E+00 0. -1.
          1    1    1    2  502    0 -0.15366724727E+02  0.40138747552E+02  0.77942881977E+03  0.78061292608E+03  0.00000000000E+00 0. -1.
         22    1    3    3    0    0 -0.16814816032E+02 -0.26590386738E+02  0.16643894294E+03  0.16938626990E+03  0.00000000000E+00 0.  1.
         22    1    3    3    0    0 -0.50007958204E+01  0.85676466893E+02  0.17876602256E+04  0.17897191252E+04  0.00000000000E+00 0.  1.
</event>
<event>
 7    1  0.4915160E-006  0.7971478E+02  0.7818608E-02  0.1398796E+00
          2   -1    0    0  502    0  0.00000000000E+00  0.00000000000E+00  0.16938369394E+03  0.16938369394E+03  0.00000000000E+00 0. -1.
          1   -1    0    0  501    0 -0.00000000000E+00 -0.00000000000E+00 -0.24392926969E+03  0.24392926969E+03  0.00000000000E+00 0. -1.
         25    2    1    2    0    0 -0.31113259341E+02  0.67507094533E+02 -0.11745217193E+03  0.18693666533E+03  0.12500024573E+03 0.  0.
          2    1    1    2  501    0 -0.37598639325E+02 -0.24389974874E+02 -0.72547027251E+02  0.85273675401E+02  0.00000000000E+00 0. -1.
          1    1    1    2  502    0  0.68711898665E+02 -0.43117119659E+02  0.11545362343E+03  0.14110262290E+03  0.00000000000E+00 0. -1.
         22    1    3    3    0    0 -0.36690722333E+02  0.96616918635E+01  0.16155357395E+02  0.41237761428E+02  0.00000000000E+00 0.  1.
         22    1    3    3    0    0  0.55774629927E+01  0.57845402669E+02 -0.13360752933E+03  0.14569890390E+03  0.00000000000E+00 0.  1.
</event>
<event>
 7    1  0.4915160E-006  0.1562592E+03  0.7818608E-02  0.1289506E+00
          2   -1    0    0  502    0  0.00000000000E+00  0.00000000000E+00  0.32984667446E+04  0.32984667446E+04  0.00000000000E+00 0. -1.
          1   -1    0    0  501    0 -0.00000000000E+00 -0.00000000000E+00 -0.48531852959E+02  0.48531852959E+02  0.00000000000E+00 0. -1.
         25    2    1    2    0    0 -0.12095303746E+03  0.49173103735E+02  0.72863166553E+03  0.75072039779E+03  0.12501751974E+03 0.  0.
          2    1    1    2  501    0  0.12362145740E+03 -0.10777887711E+03  0.14400648669E+03  0.21825769010E+03  0.00000000000E+00 0. -1.
          1    1    1    2  502    0 -0.26684199367E+01  0.58605773375E+02  0.23772967394E+04  0.23780205097E+04  0.00000000000E+00 0. -1.
         22    1    3    3    0    0 -0.14015406075E+00  0.59502931030E+02  0.24377310946E+03  0.25093016427E+03  0.00000000000E+00 0.  1.
         22    1    3    3    0    0 -0.12081288340E+03 -0.10329827296E+02  0.48485855607E+03  0.49979023352E+03  0.00000000000E+00 0.  1.
</event>
<event>
 7    1  0.7828647E-006  0.8805884E+02  0.7818608E-02  0.1330053E+00
          2   -1    0    0  502    0  0.00000000000E+00  0.00000000000E+00  0.83162406733E+03  0.83162406733E+03  0.00000000000E+00 0. -1.
          1   -1    0    0  501    0 -0.00000000000E+00 -0.00000000000E+00 -0.24748864232E+04  0.24748864232E+04  0.00000000000E+00 0. -1.
         25    2    1    2    0    0 -0.98834756162E+02  0.37029256439E+01 -0.28620687981E+03  0.32759956984E+03  0.12500031768E+03 0.  0.
          2    1    1    2  501    0  0.65366573664E+02  0.60091339302E+02 -0.21654716511E+04  0.21672912194E+04  0.00000000000E+00 0. -1.
          1    1    1    2  502    0  0.33468182498E+02 -0.63794264945E+02  0.80841617503E+03  0.81161970130E+03  0.00000000000E+00 0. -1.
         22    1    3    3    0    0  0.14559304707E+02 -0.35347915171E+02 -0.87812796205E+02  0.95773355574E+02  0.00000000000E+00 0. -1.
         22    1    3    3    0    0 -0.11339406087E+03  0.39050840815E+02 -0.19839408361E+03  0.23182621426E+03  0.00000000000E+00 0. -1.
</event>
<event>
 7    1  0.4915160E-006  0.1528238E+03  0.7818608E-02  0.1380706E+00
          2   -1    0    0  502    0  0.00000000000E+00  0.00000000000E+00  0.19987239221E+03  0.19987239221E+03  0.00000000000E+00 0. -1.
          1   -1    0    0  501    0 -0.00000000000E+00 -0.00000000000E+00 -0.46876055771E+03  0.46876055771E+03  0.00000000000E+00 0. -1.
         25    2    1    2    0    0  0.12501673863E+03  0.11069703802E+03 -0.12532268184E+03  0.24333938687E+03  0.12500105382E+03 0.  0.
          2    1    1    2  501    0 -0.97993632753E+02 -0.11153130857E+03 -0.26344718389E+03  0.30240106407E+03  0.00000000000E+00 0. -1.
          1    1    1    2  502    0 -0.27023105876E+02  0.83427054716E+00  0.11988170022E+03  0.12289249899E+03  0.00000000000E+00 0. -1.
         22    1    3    3    0    0 -0.14832755759E+02  0.28618377023E+02 -0.60802213415E+02  0.68818103018E+02  0.00000000000E+00 0.  1.
         22    1    3    3    0    0  0.13984949439E+03  0.82078660998E+02 -0.64520468425E+02  0.17452128385E+03  0.00000000000E+00 0.  1.
</event>
<event>
 7    1  0.4915160E-006  0.5597240E+02  0.7818608E-02  0.1521696E+00
          2   -1    0    0  502    0  0.00000000000E+00  0.00000000000E+00  0.66557214068E+03  0.66557214068E+03  0.00000000000E+00 0. -1.
          1   -1    0    0  501    0 -0.00000000000E+00 -0.00000000000E+00 -0.27831150111E+03  0.27831150111E+03  0.00000000000E+00 0. -1.
         25    2    1    2    0    0 -0.39291737042E+02 -0.41254915529E+02 -0.20009190097E+03  0.24270935905E+03  0.12500102192E+03 0.  0.
          2    1    1    2  501    0  0.23011063806E+02 -0.12326505990E+02 -0.52628929215E+02  0.58747391412E+02  0.00000000000E+00 0. -1.
          1    1    1    2  502    0  0.16280673237E+02  0.53581421519E+02  0.63998146976E+03  0.64242689132E+03  0.00000000000E+00 0. -1.
         22    1    3    3    0    0 -0.48131129307E+02 -0.38975363617E+01 -0.10692092630E+02  0.49458237361E+02  0.00000000000E+00 0.  1.
         22    1    3    3    0    0  0.88393922644E+01 -0.37357379167E+02 -0.18939980834E+03  0.19325112169E+03  0.00000000000E+00 0.  1.
</event>
<event>
 7    1  0.4915160E-006  0.7664904E+02  0.7818608E-02  0.1477715E+00
          2   -1    0    0  502    0  0.00000000000E+00  0.00000000000E+00  0.56070183721E+03  0.56070183721E+03  0.00000000000E+00 0. -1.
          1   -1    0    0  501    0 -0.00000000000E+00 -0.00000000000E+00 -0.46260365728E+03  0.46260365728E+03  0.00000000000E+00 0. -1.
         25    2    1    2    0    0 -0.21004963345E+02 -0.52150664216E+02 -0.17158287473E+03  0.21960415735E+03  0.12499761102E+03 0.  0.
          2    1    1    2  501    0  0.30265110538E+02  0.76224658042E+02 -0.26039146242E+03  0.27300162840E+03  0.00000000000E+00 0. -1.
          1    1    1    2  502    0 -0.92601471932E+01 -0.24073993826E+02  0.53007251707E+03  0.53069970874E+03  0.00000000000E+00 0. -1.
         22    1    3    3    0    0 -0.22561518594E+02 -0.10490151212E+02  0.14574715503E+02  0.28835528878E+02  0.00000000000E+00 0.  1.
         22    1    3    3    0    0  0.15565552486E+01 -0.41660513003E+02 -0.18615759023E+03  0.19076862847E+03  0.00000000000E+00 0.  1.
</event>
<event>
 7    1  0.4915160E-006  0.1053631E+03  0.7818608E-02  0.1352725E+00
          2   -1    0    0  502    0  0.00000000000E+00  0.00000000000E+00  0.12938342221E+03  0.12938342221E+03  0.00000000000E+00 0. -1.
          1   -1    0    0  501    0 -0.00000000000E+00 -0.00000000000E+00 -0.14314420056E+04  0.14314420056E+04  0.00000000000E+00 0. -1.
         25    2    1    2    0    0  0.49369891739E+02  0.32668897297E+02 -0.37645504426E+03  0.40105871538E+03  0.12500019906E+03 0.  0.
          2    1    1    2  501    0  0.45015666547E+02  0.20570221047E+02 -0.10168792230E+04  0.10180829526E+04  0.00000000000E+00 0. -1.
          1    1    1    2  502    0 -0.94385558286E+02 -0.53239118344E+02  0.91275683865E+02  0.14168375983E+03  0.00000000000E+00 0. -1.
         22    1    3    3    0    0 -0.18796674329E+02  0.41642982343E+02 -0.51222495380E+02  0.68638159775E+02  0.00000000000E+00 0.  1.
         22    1    3    3    0    0  0.68166566069E+02 -0.89740850464E+01 -0.32523254888E+03  0.33242055560E+03  0.00000000000E+00 0.  1.
</event>
<event>
 7    1  0.4915160E-006  0.6297868E+02  0.7818608E-02  0.1388230E+00
          2   -1    0    0  502    0  0.00000000000E+00  0.00000000000E+00  0.27798697931E+04  0.27798697931E+04  0.00000000000E+00 0. -1.
          1   -1    0    0  501    0 -0.00000000000E+00 -0.00000000000E+00 -0.13902147099E+03  0.13902147099E+03  0.00000000000E+00 0. -1.
         25    2    1    2    0    0  0.54750791001E+02  0.79940335979E+02  0.80302286663E+02  0.17737421618E+03  0.12500019557E+03 0.  0.
          2    1    1    2  501    0  0.53603291973E+01 -0.61492772767E+02 -0.79540634152E+02  0.10068170992E+03  0.00000000000E+00 0. -1.
          1    1    1    2  502    0 -0.60111120198E+02 -0.18447563213E+02  0.26400866696E+04  0.26408353380E+04  0.00000000000E+00 0. -1.
         22    1    3    3    0    0  0.91345260878E+02  0.66529705742E+02  0.79898591175E+02  0.13839777203E+03  0.00000000000E+00 0.  1.
         22    1    3    3    0    0 -0.36594469877E+02  0.13410630237E+02  0.40369548789E+00  0.38976444155E+02  0.00000000000E+00 0.  1.
</event>
<event>
 7    1  0.8692231E-006  0.6870103E+02  0.7818608E-02  0.1480270E+00
          2   -1    0    0  502    0  0.00000000000E+00  0.00000000000E+00  0.12253570645E+04  0.12253570645E+04  0.00000000000E+00 0. -1.
          1   -1    0    0  501    0 -0.00000000000E+00 -0.00000000000E+00 -0.16500603509E+04  0.16500603509E+04  0.00000000000E+00 0. -1.
         25    2    1    2    0    0  0.24731506763E+02  0.82937276964E+02 -0.16344642202E+03  0.22322766165E+03  0.12500246685E+03 0.  0.
          2    1    1    2  501    0 -0.24371371083E+02 -0.14310488567E+02 -0.14556011005E+04  0.14558754471E+04  0.00000000000E+00 0. -1.
          1    1    1    2  502    0 -0.36013568001E+00 -0.68626788398E+02  0.11943442362E+04  0.11963143066E+04  0.00000000000E+00 0. -1.
         22    1    3    3    0    0 -0.27012636058E+02  0.93605098807E+02 -0.12169976066E+03  0.15589236278E+03  0.00000000000E+00 0. -1.
         22    1    3    3    0    0  0.51744142821E+02 -0.10667821842E+02 -0.41746661358E+02  0.67335298868E+02  0.00000000000E+00 0. -1.
</event>
<event>
 7    1  0.4915160E-006  0.1236251E+03  0.7818608E-02  0.1303630E+00
          2   -1    0    0  502    0  0.00000000000E+00  0.00000000000E+00  0.78514056718E+03  0.78514056718E+03  0.00000000000E+00 0. -1.
          1   -1    0    0  501    0 -0.00000000000E+00 -0.00000000000E+00 -0.10238518850E+04  0.10238518850E+04  0.00000000000E+00 0. -1.
         25    2    1    2    0    0 -0.66693007860E+02  0.10335077925E+03  0.27640704142E+03  0.32734452569E+03  0.12499698030E+03 0.  0.
          2    1    1    2  501    0  0.49198390768E+01 -0.12375056185E+03 -0.99232692893E+03  0.10000255698E+04  0.00000000000E+00 0. -1.
          1    1    1    2  502    0  0.61773168783E+02  0.20399782600E+02  0.47720856967E+03  0.48162235671E+03  0.00000000000E+00 0. -1.
         22    1    3    3    0    0 -0.98947609294E+02  0.66119236946E+02  0.23324422237E+03  0.26184967090E+03  0.00000000000E+00 0.  1.
         22    1    3    3    0    0  0.32254601433E+02  0.37231542304E+02  0.43162819046E+02  0.65494854790E+02  0.00000000000E+00 0.  1.
</event>
<event>
 7    1  0.4915160E-006  0.9560895E+02  0.7818608E-02  0.1417746E+00
          2   -1    0    0  502    0  0.00000000000E+00  0.00000000000E+00  0.39612461440E+02  0.39612461440E+02  0.00000000000E+00 0. -1.
          1   -1    0    0  501    0 -0.00000000000E+00 -0.00000000000E+00 -0.13059025199E+04  0.13059025199E+04  0.00000000000E+00 0. -1.
         25    2    1    2    0    0  0.19412751671E+02  0.11188066040E+03 -0.50598420595E+03  0.53342170721E+03  0.12499825581E+03 0.  0.
          2    1    1    2  501    0  0.61808308678E+01 -0.92311378629E+02 -0.77222047598E+03  0.77774292464E+03  0.00000000000E+00 0. -1.
          1    1    1    2  502    0 -0.25593582539E+02 -0.19569281767E+02  0.11914623490E+02  0.34350349473E+02  0.00000000000E+00 0. -1.
         22    1    3    3    0    0 -0.29986205153E+02  0.21063946929E+00 -0.31556969259E+02  0.43532277419E+02  0.00000000000E+00 0. -1.
         22    1    3    3    0    0  0.49398956824E+02  0.11167002093E+03 -0.47442723669E+03  0.48988942979E+03  0.00000000000E+00 0. -1.
</event>
<event>
 7    1  0.4915160E-006  0.1170856E+03  0.7818608E-02  0.1350384E+00
          2   -1    0    0  502    0  0.00000000000E+00  0.00000000000E+00  0.58020321082E+03  0.58020321082E+03  0.00000000000E+00 0. -1.
          1   -1    0    0  501    0 -0.00000000000E+00 -0.00000000000E+00 -0.18209976831E+04  0.18209976831E+04  0.00000000000E+00 0. -1.
         25    2    1    2    0    0  0.72214093933E+02 -0.15448143826E+02  0.14738213334E+03  0.20688163184E+03  0.12499998341E+03 0.  0.
          2    1    1    2  501    0 -0.11720801305E+03  0.91399899677E+01 -0.17880310651E+04  0.17918918348E+04  0.00000000000E+00 0. -1.
          1    1    1    2  502    0  0.44993919112E+02  0.63081538584E+01  0.39985445943E+03  0.40242742736E+03  0.00000000000E+00 0. -1.
         22    1    3    3    0    0  0.50485190935E+02 -0.65598206038E+02  0.11992192033E+03  0.14571597755E+03  0.00000000000E+00 0. -1.
         22    1    3    3    0    0  0.21728902998E+02  0.50150062212E+02  0.27460213012E+02  0.61165654284E+02  0.00000000000E+00 0. -1.
</event>
<event>
 7    1  0.4915160E-006  0.7780420E+02  0.7818608E-02  0.1426085E+00
          2   -1    0    0  502    0  0.00000000000E+00  0.00000000000E+00  0.25467429243E+03  0.25467429243E+03  0.00000000000E+00 0. -1.
          1   -1    0    0  501    0 -0.00000000000E+00 -0.00000000000E+00 -0.13545814893E+03  0.13545814893E+03  0.00000000000E+00 0. -1.
         25    2    1    2    0    0 -0.25905622798E+02 -0.10865257036E+03 -0.85248043507E+01  0.16785386311E+03  0.12500305889E+03 0.  0.
          2    1    1    2  501    0  0.97520205551E+01  0.35834759782E+02 -0.30033054450E+02  0.47762079866E+02  0.00000000000E+00 0. -1.
          1    1    1    2  502    0  0.16153602243E+02  0.72817810580E+02  0.15777400230E+03  0.17451649838E+03  0.00000000000E+00 0. -1.
         22    1    3    3    0    0 -0.71342827774E+02 -0.89745846368E+02  0.10418211415E+02  0.11512017696E+03  0.00000000000E+00 0. -1.
         22    1    3    3    0    0  0.45437204977E+02 -0.18906723995E+02 -0.18943015766E+02  0.52733686147E+02  0.00000000000E+00 0. -1.
</event>
<event>
 7    1  0.4915160E-006  0.8603446E+02  0.7818608E-02  0.1422695E+00
          2   -1    0    0  502    0  0.00000000000E+00  0.00000000000E+00  0.72403529891E+02  0.72403529891E+02  0.00000000000E+00 0. -1.
          1   -1    0    0  501    0 -0.00000000000E+00 -0.00000000000E+00 -0.11304967833E+04  0.11304967833E+04  0.00000000000E+00 0. -1.
         25    2    1    2    0    0  0.46276530120E+02  0.54860607759E+02 -0.19926037381E+03  0.24592884732E+03  0.12500039139E+03 0.  0.
          2    1    1    2  501    0 -0.77741400066E+02 -0.40792645036E+02 -0.89943684806E+03  0.90371146326E+03  0.00000000000E+00 0. -1.
          1    1    1    2  502    0  0.31464869947E+02 -0.14067962724E+02  0.40603968504E+02  0.53260002574E+02  0.00000000000E+00 0. -1.
         22    1    3    3    0    0  0.48770947384E+02  0.15230664414E+01 -0.10700136184E+02  0.49954158530E+02  0.00000000000E+00 0.  1.
         22    1    3    3    0    0 -0.24944172646E+01  0.53337541318E+02 -0.18856023763E+03  0.19597468879E+03  0.00000000000E+00 0.  1.
</event>
<event>
 7    1  0.4915160E-006  0.1123403E+03  0.7818608E-02  0.1283625E+00
          2   -1    0    0  502    0  0.00000000000E+00  0.00000000000E+00  0.11831762140E+03  0.11831762140E+03  0.00000000000E+00 0. -1.
          1   -1    0    0  501    0 -0.00000000000E+00 -0.00000000000E+00 -0.13737475829E+04  0.13737475829E+04  0.00000000000E+00 0. -1.
         25    2    1    2    0    0 -0.40543582369E+02 -0.12194952470E+03 -0.57668414498E+02  0.18832570646E+03  0.12500182814E+03 0.  0.
          2    1    1    2  501    0  0.97415906691E+02  0.57108539195E+02 -0.12111980734E+04  0.12164505815E+04  0.00000000000E+00 0. -1.
          1    1    1    2  502    0 -0.56872324322E+02  0.64840985504E+02  0.13436526423E+02  0.87288916348E+02  0.00000000000E+00 0. -1.
         22    1    3    3    0    0  0.26303358278E+01 -0.36183552360E+02  0.38170737135E+02  0.52660927654E+02  0.00000000000E+00 0. -1.
         22    1    3    3    0    0 -0.43173918197E+02 -0.85765972339E+02 -0.95839151633E+02  0.13566477881E+03  0.00000000000E+00 0. -1.
</event>
<event>
 7    1  0.4915160E-006  0.7013842E+02  0.7818608E-02  0.1376037E+00
          2   -1    0    0  502    0  0.00000000000E+00  0.00000000000E+00  0.28645243508E+03  0.28645243508E+03  0.00000000000E+00 0. -1.
          1   -1    0    0  501    0 -0.00000000000E+00 -0.00000000000E+00 -0.25326219278E+04  0.25326219278E+04  0.00000000000E+00 0. -1.
         25    2    1    2    0    0 -0.31358078478E+02 -0.12455031057E+02 -0.15895821414E+02  0.13044548627E+03  0.12499956346E+03 0.  0.
          2    1    1    2  501    0  0.10177456128E+02  0.69872987148E+02 -0.24548488168E+04  0.24558641104E+04  0.00000000000E+00 0. -1.
          1    1    1    2  502    0  0.21180622349E+02 -0.57417956091E+02  0.22457514550E+03  0.23276476628E+03  0.00000000000E+00 0. -1.
         22    1    3    3    0    0 -0.67863232642E+02 -0.30902281832E+02 -0.38279921359E+02  0.83819578538E+02  0.00000000000E+00 0. -1.
         22    1    3    3    0    0  0.36505154164E+02  0.18447250774E+02  0.22384099945E+02  0.46625907734E+02  0.00000000000E+00 0. -1.
</event>
<event>
 7    1  0.4915160E-006  0.9502445E+02  0.7818608E-02  0.1446921E+00
          2   -1    0    0  502    0  0.00000000000E+00  0.00000000000E+00  0.13660116595E+04  0.13660116595E+04  0.00000000000E+00 0. -1.
          1   -1    0    0  501    0 -0.00000000000E+00 -0.00000000000E+00 -0.48402740800E+03  0.48402740800E+03  0.00000000000E+00 0. -1.
         25    2    1    2    0    0  0.10412822710E+03  0.95185290816E+01  0.19096858764E+02  0.16408672548E+03  0.12500589342E+03 0.  0.
          2    1    1    2  501    0 -0.10352588627E+02 -0.23853228956E+02 -0.40935399744E+03  0.41017904364E+03  0.00000000000E+00 0. -1.
          1    1    1    2  502    0 -0.93775638469E+02  0.14334699875E+02  0.12722413902E+04  0.12757732984E+04  0.00000000000E+00 0. -1.
         22    1    3    3    0    0  0.17587915482E+02 -0.50547293381E+01 -0.49451744204E+02  0.52729119701E+02  0.00000000000E+00 0. -1.
         22    1    3    3    0    0  0.86540311613E+02  0.14573258420E+02  0.68548602968E+02  0.11135760578E+03  0.00000000000E+00 0. -1.
</event>
<event>
 7    1  0.4915160E-006  0.1227315E+03  0.7818608E-02  0.1311633E+00
          2   -1    0    0  502    0  0.00000000000E+00  0.00000000000E+00  0.14655658022E+04  0.14655658022E+04  0.00000000000E+00 0. -1.
          1   -1    0    0  501    0 -0.00000000000E+00 -0.00000000000E+00 -0.10017181986E+03  0.10017181986E+03  0.00000000000E+00 0. -1.
         25    2    1    2    0    0 -0.99009867258E+02 -0.11609706606E+03  0.84181910057E+03  0.86461857807E+03  0.12499761957E+03 0.  0.
          2    1    1    2  501    0  0.10820233496E+03  0.55872599373E+02 -0.44600447620E+02  0.12968690211E+03  0.00000000000E+00 0. -1.
          1    1    1    2  502    0 -0.91924676980E+01  0.60224466683E+02  0.56817532937E+03  0.57143214186E+03  0.00000000000E+00 0. -1.
         22    1    3    3    0    0 -0.63993470110E+02 -0.40340257672E+02  0.15214853876E+03  0.16991668091E+03  0.00000000000E+00 0.  1.
         22    1    3    3    0    0 -0.35016397148E+02 -0.75756808384E+02  0.68967056181E+03  0.69470189716E+03  0.00000000000E+00 0.  1.
</event>
<event>
 7    1  0.4915160E-006  0.8295486E+02  0.7818608E-02  0.1441344E+00
          2   -1    0    0  502    0  0.00000000000E+00  0.00000000000E+00  0.22228757792E+04  0.22228757792E+04  0.00000000000E+00 0. -1.
          1   -1    0    0  501    0 -0.00000000000E+00 -0.00000000000E+00 -0.11492680567E+02  0.11492680567E+02  0.00000000000E+00 0. -1.
         25    2    1    2    0    0  0.45181615502E+02  0.91188510426E+02  0.12552000160E+04  0.12655063156E+04  0.12498972762E+03 0.  0.
          2    1    1    2  501    0 -0.17261932323E+02 -0.77610424118E+02  0.25762561070E+03  0.26961510998E+03  0.00000000000E+00 0. -1.
          1    1    1    2  502    0 -0.27919683179E+02 -0.13578086307E+02  0.69855747199E+03  0.69924703418E+03  0.00000000000E+00 0. -1.
         22    1    3    3    0    0 -0.30436415931E+02  0.70398045226E+01  0.99665971270E+02  0.10444730773E+03  0.00000000000E+00 0. -1.
         22    1    3    3    0    0  0.75618031433E+02  0.84148705903E+02  0.11555340447E+04  0.11610590079E+04  0.00000000000E+00 0. -1.
</event>
<event>
 7    1  0.4915160E-006  0.1890786E+03  0.7818608E-02  0.1249590E+00
          2   -1    0    0  502    0  0.00000000000E+00  0.00000000000E+00  0.24186527252E+04  0.24186527252E+04  0.00000000000E+00 0. -1.
          1   -1    0    0  501    0 -0.00000000000E+00 -0.00000000000E+00 -0.16733617961E+04  0.16733617961E+04  0.00000000000E+00 0. -1.
         25    2    1    2    0    0  0.25163776015E+03 -0.45762689525E+02 -0.41967086856E+02  0.28775155814E+03  0.12499574693E+03 0.  0.
          2    1    1    2  501    0 -0.18483742348E+03  0.20697622024E+02 -0.15022115835E+04  0.15136819039E+04  0.00000000000E+00 0. -1.
          1    1    1    2  502    0 -0.66800336669E+02  0.25065067502E+02  0.22894695994E+04  0.22905810593E+04  0.00000000000E+00 0. -1.
         22    1    3    3    0    0  0.96718634497E+02  0.18132464023E+02 -0.65958677265E+02  0.11846445719E+03  0.00000000000E+00 0.  1.
         22    1    3    3    0    0  0.15491912565E+03 -0.63895153548E+02  0.23991590409E+02  0.16928710095E+03  0.00000000000E+00 0.  1.
</event>
<event>
 7    1  0.4915160E-006  0.5539523E+02  0.7818608E-02  0.1462436E+00
          2   -1    0    0  502    0  0.00000000000E+00  0.00000000000E+00  0.11202465204E+04  0.11202465204E+04  0.00000000000E+00 0. -1.
          1   -1    0    0  501    0 -0.00000000000E+00 -0.00000000000E+00 -0.41987603924E+02  0.41987603924E+02  0.00000000000E+00 0. -1.
         25    2    1    2    0    0  0.31078640256E+02 -0.17530093071E+02  0.43495702280E+03  0.45396745166E+03  0.12500259772E+03 0.  0.
          2    1    1    2  501    0 -0.55321666812E+02 -0.14056215360E+02 -0.63176429272E+01  0.57428012513E+02  0.00000000000E+00 0. -1.
          1    1    1    2  502    0  0.24243026556E+02  0.31586308431E+02  0.64961953662E+03  0.65083866017E+03  0.00000000000E+00 0. -1.
         22    1    3    3    0    0  0.13554502311E+02  0.44670617825E+02  0.75637698760E+02  0.88883351104E+02  0.00000000000E+00 0. -1.
         22    1    3    3    0    0  0.17524137945E+02 -0.62200710896E+02  0.35931932404E+03  0.36508410055E+03  0.00000000000E+00 0. -1.
</event>
<event>
 7    1  0.4915160E-006  0.5698247E+02  0.7818608E-02  0.1494043E+00
          2   -1    0    0  502    0  0.00000000000E+00  0.00000000000E+00  0.36785816509E+04  0.36785816509E+04  0.00000000000E+00 0. -1.
          1   -1    0    0  501    0 -0.00000000000E+00 -0.00000000000E+00 -0.26585638439E+03  0.26585638439E+03  0.00000000000E+00 0. -1.
         25    2    1    2    0    0 -0.26823101699E+02 -0.64990624575E+02  0.51830042206E+02  0.15249082800E+03  0.12499535704E+03 0.  0.
          2    1    1    2  501    0 -0.15442796025E+02  0.26816707179E+02 -0.21418722283E+03  0.21641114148E+03  0.00000000000E+00 0. -1.
          1    1    1    2  502    0  0.42265897724E+02  0.38173917396E+02  0.35750824472E+04  0.35755360658E+04  0.00000000000E+00 0. -1.
         22    1    3    3    0    0  0.23536487680E+02 -0.59992759815E+02  0.73226988986E+02  0.97546344876E+02  0.00000000000E+00 0. -1.
         22    1    3    3    0    0 -0.50359589379E+02 -0.49978647599E+01 -0.21396946780E+02  0.54944483127E+02  0.00000000000E+00 0. -1.
</event>
<event>
 7    1  0.4915160E-006  0.6924750E+02  0.7818608E-02  0.1372532E+00
          2   -1    0    0  502    0  0.00000000000E+00  0.00000000000E+00  0.14592267777E+03  0.14592267777E+03  0.00000000000E+00 0. -1.
          1   -1    0    0  501    0 -0.00000000000E+00 -0.00000000000E+00 -0.44975894572E+03  0.44975894572E+03  0.00000000000E+00 0. -1.
         25    2    1    2    0    0  0.28323867046E+02  0.28054777447E+02 -0.82787447884E+02  0.15513945427E+03  0.12500070704E+03 0.  0.
          2    1    1    2  501    0 -0.72887501494E+02  0.17602638647E+02 -0.31676082284E+03  0.32551476103E+03  0.00000000000E+00 0. -1.
          1    1    1    2  502    0  0.44563634448E+02 -0.45657416094E+02  0.95712002782E+02  0.11502740820E+03  0.00000000000E+00 0. -1.
         22    1    3    3    0    0  0.50456297291E+02  0.62334539775E+02 -0.24246756352E+02  0.83781489476E+02  0.00000000000E+00 0. -1.
         22    1    3    3    0    0 -0.22132430245E+02 -0.34279762329E+02 -0.58540691532E+02  0.71357964789E+02  0.00000000000E+00 0. -1.
</event>
<event>
 7    1  0.4915160E-006  0.6832503E+02  0.7818608E-02  0.1492203E+00
          2   -1    0    0  502    0  0.00000000000E+00  0.00000000000E+00  0.11596530737E+04  0.11596530737E+04  0.00000000000E+00 0. -1.
          1   -1    0    0  501    0 -0.00000000000E+00 -0.00000000000E+00 -0.79125779654E+02  0.79125779654E+02  0.00000000000E+00 0. -1.
         25    2    1    2    0    0  0.90465450604E+02 -0.12462612177E+02  0.26511549720E+03  0.30700229813E+03  0.12499947900E+03 0.  0.
          2    1    1    2  501    0 -0.23524242764E+02  0.11397065180E+02 -0.53892875535E+02  0.59897622038E+02  0.00000000000E+00 0. -1.
          1    1    1    2  502    0 -0.66941207839E+02  0.10655469971E+01  0.86930467240E+03  0.87187893319E+03  0.00000000000E+00 0. -1.
         22    1    3    3    0    0 -0.11540770629E+02  0.36798208673E+02  0.95970744750E+02  0.10342959633E+03  0.00000000000E+00 0. -1.
         22    1    3    3    0    0  0.10200622123E+03 -0.49260820850E+02  0.16914475245E+03  0.20357270181E+03  0.00000000000E+00 0. -1.
</event>
<event>
 7    1  0.4915160E-006  0.6357644E+02  0.7818608E-02  0.1410547E+00
          2   -1    0    0  502    0  0.00000000000E+00  0.00000000000E+00  0.25465688241E+03  0.25465688241E+03  0.00000000000E+00 0. -1.
          1   -1    0    0  501    0 -0.00000000000E+00 -0.00000000000E+00 -0.99145295537E+03  0.99145295537E+03  0.00000000000E+00 0. -1.
         25    2    1    2    0    0 -0.12871513206E+02 -0.20927248691E+02 -0.13492385877E+03  0.18555568446E+03  0.12499135483E+03 0.  0.
          2    1    1    2  501    0 -0.50664915567E+02  0.76080075892E+01 -0.82580946884E+03  0.82739718048E+03  0.00000000000E+00 0. -1.
          1    1    1    2  502    0  0.63536428772E+02  0.13319241102E+02  0.22393725464E+03  0.23315697284E+03  0.00000000000E+00 0. -1.
         22    1    3    3    0    0 -0.67867539921E+02 -0.19167611033E+02 -0.91132735955E+02  0.11523270304E+03  0.00000000000E+00 0.  1.
         22    1    3    3    0    0  0.54996026715E+02 -0.17596376581E+01 -0.43791122812E+02  0.70322981423E+02  0.00000000000E+00 0.  1.
</event>
<event>
 7    1  0.4915160E-006  0.9244162E+02  0.7818608E-02  0.1400125E+00
          2   -1    0    0  502    0  0.00000000000E+00  0.00000000000E+00  0.17653468875E+03  0.17653468875E+03  0.00000000000E+00 0. -1.
          1   -1    0    0  501    0 -0.00000000000E+00 -0.00000000000E+00 -0.28356814945E+03  0.28356814945E+03  0.00000000000E+00 0. -1.
         25    2    1    2    0    0 -0.15356982376E+02  0.80875377093E+02 -0.30882116739E+02  0.15282475364E+03  0.12500014666E+03 0.  0.
          2    1    1    2  501    0  0.36040776340E+02  0.12786650935E+02 -0.16930454447E+03  0.17356976920E+03  0.00000000000E+00 0. -1.
          1    1    1    2  502    0 -0.20683793964E+02 -0.93662028028E+02  0.93153200518E+02  0.13370831535E+03  0.00000000000E+00 0. -1.
         22    1    3    3    0    0 -0.69611803714E+02  0.35409883309E+02 -0.23999905068E+02  0.81704703019E+02  0.00000000000E+00 0.  1.
         22    1    3    3    0    0  0.54254821338E+02  0.45465493784E+02 -0.68822116711E+01  0.71120050625E+02  0.00000000000E+00 0.  1.
</event>
<event>
 7    1  0.4915160E-006  0.1556339E+03  0.7818608E-02  0.1345947E+00
          2   -1    0    0  502    0  0.00000000000E+00  0.00000000000E+00  0.25514048278E+02  0.25514048278E+02  0.00000000000E+00 0. -1.
          1   -1    0    0  501    0 -0.00000000000E+00 -0.00000000000E+00 -0.36316481355E+04  0.36316481355E+04  0.00000000000E+00 0. -1.
         25    2    1    2    0    0  0.16391174435E+03 -0.74582962508E+02 -0.13359988897E+04  0.13538636956E+04  0.12499677888E+03 0.  0.
          2    1    1    2  501    0 -0.21648394951E+02  0.28139380114E+02 -0.19455638881E+04  0.19458877975E+04  0.00000000000E+00 0. -1.
          1    1    1    2  502    0 -0.14226334940E+03  0.46443582394E+02 -0.32457130938E+03  0.35741069066E+03  0.00000000000E+00 0. -1.
         22    1    3    3    0    0 -0.14495431368E+01 -0.10523072893E+02 -0.62141369866E+01  0.12306572915E+02  0.00000000000E+00 0.  1.
         22    1    3    3    0    0  0.16536128748E+03 -0.64059889615E+02 -0.13297847527E+04  0.13415571227E+04  0.00000000000E+00 0.  1.
</event>
<event>
 7    1  0.4915160E-006  0.5350441E+02  0.7818608E-02  0.1457256E+00
          2   -1    0    0  502    0  0.00000000000E+00  0.00000000000E+00  0.39868256532E+03  0.39868256532E+03  0.00000000000E+00 0. -1.
          1   -1    0    0  501    0 -0.00000000000E+00 -0.00000000000E+00 -0.15750323649E+04  0.15750323649E+04  0.00000000000E+00 0. -1.
         25    2    1    2    0    0 -0.63999222442E+02 -0.84464196376E+01  0.11889272441E+03  0.18419479745E+03  0.12500000406E+03 0.  0.
          2    1    1    2  501    0  0.44536624863E+02 -0.29678485069E+02 -0.15400594922E+04  0.15409891508E+04  0.00000000000E+00 0. -1.
          1    1    1    2  502    0  0.19462597579E+02  0.38124904707E+02  0.24481696821E+03  0.24853098194E+03  0.00000000000E+00 0. -1.
         22    1    3    3    0    0 -0.48630206775E+02  0.49774401671E+02  0.27662080421E+02  0.74883768374E+02  0.00000000000E+00 0.  1.
         22    1    3    3    0    0 -0.15369015667E+02 -0.58220821309E+02  0.91230643985E+02  0.10931102908E+03  0.00000000000E+00 0.  1.
</event>
<event>
 7    1  0.4915160E-006  0.1567473E+03  0.7818608E-02  0.1293335E+00
          2   -1    0    0  502    0  0.00000000000E+00  0.00000000000E+00  0.29063115077E+03  0.29063115077E+03  0.00000000000E+00 0. -1.
          1   -1    0    0  501    0 -0.00000000000E+00 -0.00000000000E+00 -0.25694996192E+03  0.25694996192E+03  0.00000000000E+00 0. -1.
         25    2    1    2    0    0 -0.50307088177E+02  0.13397675909E+03  0.84011284454E+02  0.20775495489E+03  0.12499460095E+03 0.  0.
          2    1    1    2  501    0  0.10556381341E+03 -0.12253744112E+03 -0.15302059675E+03  0.22265319716E+03  0.00000000000E+00 0. -1.
          1    1    1    2  502    0 -0.55256725232E+02 -0.11439317975E+02  0.10269050114E+03  0.11717296064E+03  0.00000000000E+00 0. -1.
         22    1    3    3    0    0 -0.16844009778E+02  0.80317960136E+02  0.11179520377E+03  0.13868259794E+03  0.00000000000E+00 0.  1.
         22    1    3    3    0    0 -0.33463078399E+02  0.53658798956E+02 -0.27783919315E+02  0.69072356945E+02  0.00000000000E+00 0.  1.
</event>
<event>
 7    1  0.4915160E-006  0.4035811E+03  0.7818608E-02  0.1252933E+00
          2   -1    0    0  502    0  0.00000000000E+00  0.00000000000E+00  0.63819950070E+03  0.63819950070E+03  0.00000000000E+00 0. -1.
          1   -1    0    0  501    0 -0.00000000000E+00 -0.00000000000E+00 -0.18420705355E+04  0.18420705355E+04  0.00000000000E+00 0. -1.
         25    2    1    2    0    0 -0.37312645764E+03  0.21801847180E+03 -0.53661972402E+03  0.70024328655E+03  0.12499809883E+03 0.  0.
          2    1    1    2  501    0  0.30137380263E+02 -0.11706205800E+02 -0.11513977516E+04  0.11518515874E+04  0.00000000000E+00 0. -1.
          1    1    1    2  502    0  0.34298907738E+03 -0.20631226600E+03  0.48414644084E+03  0.62817516226E+03  0.00000000000E+00 0. -1.
         22    1    3    3    0    0 -0.25689788403E+03  0.79310129292E+02 -0.31627783607E+03  0.41511238119E+03  0.00000000000E+00 0.  1.
         22    1    3    3    0    0 -0.11622857361E+03  0.13870834251E+03 -0.22034188795E+03  0.28513090536E+03  0.00000000000E+00 0.  1.
</event>
<event>
 7    1  0.4915160E-006  0.3613442E+03  0.7818608E-02  0.1181596E+00
          2   -1    0    0  502    0  0.00000000000E+00  0.00000000000E+00  0.15168855582E+03  0.15168855582E+03  0.00000000000E+00 0. -1.
          1   -1    0    0  501    0 -0.00000000000E+00 -0.00000000000E+00 -0.34698033014E+04  0.34698033014E+04  0.00000000000E+00 0. -1.
         25    2    1    2    0    0  0.47655595850E+02 -0.31905976135E+03 -0.62115562773E+03  0.71100583245E+03  0.12499917115E+03 0.  0.
          2    1    1    2  501    0 -0.43162801155E+02 -0.63376444869E+02 -0.24586690800E+04  0.24598644772E+04  0.00000000000E+00 0. -1.
          1    1    1    2  502    0 -0.44927946949E+01  0.38243620622E+03 -0.23829003788E+03  0.45062154762E+03  0.00000000000E+00 0. -1.
         22    1    3    3    0    0  0.80735239132E+00 -0.90129449664E+02 -0.30388201456E+03  0.31696726690E+03  0.00000000000E+00 0.  1.
         22    1    3    3    0    0  0.46848243459E+02 -0.22893031168E+03 -0.31727361317E+03  0.39403856554E+03  0.00000000000E+00 0.  1.
</event>
<event>
 7    1  0.4915160E-006  0.2099203E+03  0.7818608E-02  0.1180594E+00
          2   -1    0    0  502    0  0.00000000000E+00  0.00000000000E+00  0.15903399652E+03  0.15903399652E+03  0.00000000000E+00 0. -1.
          1   -1    0    0  501    0 -0.00000000000E+00 -0.00000000000E+00 -0.18076381563E+04  0.18076381563E+04  0.00000000000E+00 0. -1.
         25    2    1    2    0    0 -0.51367594231E+02 -0.34998090411E+02 -0.52191915327E+03  0.54026467629E+03  0.12499128700E+03 0.  0.
          2    1    1    2  501    0  0.25316363820E+03 -0.22836750452E+02 -0.11822419643E+04  0.12092598592E+04  0.00000000000E+00 0. -1.
          1    1    1    2  502    0 -0.20179604397E+03  0.57834840863E+02  0.55556957749E+02  0.21714761738E+03  0.00000000000E+00 0. -1.
         22    1    3    3    0    0  0.21925167096E+02  0.10666735571E+02 -0.21680625110E+02  0.32627315322E+02  0.00000000000E+00 0. -1.
         22    1    3    3    0    0 -0.73292761327E+02 -0.45664825982E+02 -0.50023852816E+03  0.50763736097E+03  0.00000000000E+00 0. -1.
</event>
<event>
 7    1  0.4915160E-006  0.8761872E+02  0.7818608E-02  0.1315005E+00
          2   -1    0    0  502    0  0.00000000000E+00  0.00000000000E+00  0.65431018911E+03  0.65431018911E+03  0.00000000000E+00 0. -1.
          1   -1    0    0  501    0 -0.00000000000E+00 -0.00000000000E+00 -0.25910742197E+03  0.25910742197E+03  0.00000000000E+00 0. -1.
         25    2    1    2    0    0 -0.29286635518E+02 -0.25016520889E+02  0.41326459374E+02  0.13719120362E+03  0.12502006547E+03 0.  0.
          2    1    1    2  501    0 -0.15461881455E+02  0.94656132072E+02 -0.19703103473E+03  0.21913484836E+03  0.00000000000E+00 0. -1.
          1    1    1    2  502    0  0.44748516974E+02 -0.69639611183E+02  0.55090734249E+03  0.55709155911E+03  0.00000000000E+00 0. -1.
         22    1    3    3    0    0 -0.69140528992E+02 -0.22964549843E+02 -0.85056307223E+01  0.73349363002E+02  0.00000000000E+00 0. -1.
         22    1    3    3    0    0  0.39853893474E+02 -0.20519710465E+01  0.49832090097E+02  0.63841840619E+02  0.00000000000E+00 0. -1.
</event>
<event>
 7    1  0.4915160E-006  0.2603748E+03  0.7818608E-02  0.1226664E+00
          2   -1    0    0  502    0  0.00000000000E+00  0.00000000000E+00  0.11786329481E+04  0.11786329481E+04  0.00000000000E+00 0. -1.
          1   -1    0    0  501    0 -0.00000000000E+00 -0.00000000000E+00 -0.20185171309E+03  0.20185171309E+03  0.00000000000E+00 0. -1.
         25    2    1    2    0    0 -0.16471588999E+03  0.17706582593E+03  0.37018096790E+03  0.45950276977E+03  0.12500086123E+03 0.  0.
          2    1    1    2  501    0  0.22286807323E+03 -0.14705043922E+03 -0.40951715936E+02  0.27013154717E+03  0.00000000000E+00 0. -1.
          1    1    1    2  502    0 -0.58152183242E+02 -0.30015386708E+02  0.64755198305E+03  0.65085034425E+03  0.00000000000E+00 0. -1.
         22    1    3    3    0    0 -0.20325321552E+02  0.83024671594E+02  0.59207957556E+02  0.10397979144E+03  0.00000000000E+00 0.  1.
         22    1    3    3    0    0 -0.14439056844E+03  0.94041154335E+02  0.31097301034E+03  0.35552297834E+03  0.00000000000E+00 0.  1.
</event>
<event>
 7    1  0.4915160E-006  0.5461816E+02  0.7818608E-02  0.1552750E+00
          2   -1    0    0  502    0  0.00000000000E+00  0.00000000000E+00  0.54641317437E+03  0.54641317437E+03  0.00000000000E+00 0. -1.
          1   -1    0    0  501    0 -0.00000000000E+00 -0.00000000000E+00 -0.42261129022E+03  0.42261129022E+03  0.00000000000E+00 0. -1.
         25    2    1    2    0    0 -0.34420931609E+02 -0.24840890840E+02  0.43672850465E+01  0.13208338039E+03  0.12500030323E+03 0.  0.
          2    1    1    2  501    0  0.29963568536E+02  0.46220215177E+02 -0.35638695489E+03  0.36061861481E+03  0.00000000000E+00 0. -1.
          1    1    1    2  502    0  0.44573630728E+01 -0.21379324337E+02  0.47582155399E+03  0.47632246938E+03  0.00000000000E+00 0. -1.
         22    1    3    3    0    0 -0.18279424476E+02  0.19094569063E+02  0.56283800032E+02  0.62182039794E+02  0.00000000000E+00 0.  1.
         22    1    3    3    0    0 -0.16141507132E+02 -0.43935459903E+02 -0.51916514986E+02  0.69901340600E+02  0.00000000000E+00 0.  1.
</event>
<event>
 7    1  0.4915160E-006  0.1502091E+03  0.7818608E-02  0.1260268E+00
          2   -1    0    0  502    0  0.00000000000E+00  0.00000000000E+00  0.15148319988E+03  0.15148319988E+03  0.00000000000E+00 0. -1.
          1   -1    0    0  501    0 -0.00000000000E+00 -0.00000000000E+00 -0.25587395283E+04  0.25587395283E+04  0.00000000000E+00 0. -1.
         25    2    1    2    0    0 -0.82207562817E+02  0.34082783768E+02 -0.19473662251E+03  0.24792090845E+03  0.12499082033E+03 0.  0.
          2    1    1    2  501    0 -0.80748046123E+02 -0.27156927534E+01 -0.22812532737E+04  0.22826835350E+04  0.00000000000E+00 0. -1.
          1    1    1    2  502    0  0.16295560894E+03 -0.31367091014E+02  0.68733567801E+02  0.17961828478E+03  0.00000000000E+00 0. -1.
         22    1    3    3    0    0 -0.43543400747E+02  0.71009660642E+02 -0.59117326476E+02  0.10214332060E+03  0.00000000000E+00 0.  1.
         22    1    3    3    0    0 -0.38664162069E+02 -0.36926876874E+02 -0.13561929603E+03  0.14577758785E+03  0.00000000000E+00 0.  1.
</event>
<event>
 7    1  0.4915160E-006  0.7632777E+02  0.7818608E-02  0.1361297E+00
          2   -1    0    0  502    0  0.00000000000E+00  0.00000000000E+00  0.16653514998E+04  0.16653514998E+04  0.00000000000E+00 0. -1.
          1   -1    0    0  501    0 -0.00000000000E+00 -0.00000000000E+00 -0.53957260049E+02  0.53957260049E+02  0.00000000000E+00 0. -1.
         25    2    1    2    0    0 -0.27254281460E+01 -0.90679830303E+01  0.74630600964E+03  0.75676040961E+03  0.12499600496E+03 0.  0.
          2    1    1    2  501    0  0.11250279371E+02 -0.75494100405E+02 -0.15485331284E+02  0.77882754618E+02  0.00000000000E+00 0. -1.
          1    1    1    2  502    0 -0.85248512255E+01  0.84562083435E+02  0.88057356140E+03  0.88466559562E+03  0.00000000000E+00 0. -1.
         22    1    3    3    0    0 -0.61017052496E+02 -0.72801625754E+01  0.49370991116E+03  0.49751940449E+03  0.00000000000E+00 0. -1.
         22    1    3    3    0    0  0.58291624350E+02 -0.17878204549E+01  0.25259609847E+03  0.25924100512E+03  0.00000000000E+00 0. -1.
</event>
<event>
 7    1  0.4915160E-006  0.3876912E+02  0.7818608E-02  0.1586825E+00
          2   -1    0    0  502    0  0.00000000000E+00  0.00000000000E+00  0.22845858562E+03  0.22845858562E+03  0.00000000000E+00 0. -1.
          1   -1    0    0  501    0 -0.00000000000E+00 -0.00000000000E+00 -0.19543780643E+03  0.19543780643E+03  0.00000000000E+00 0. -1.
         25    2    1    2    0    0 -0.30724012616E+02 -0.14949410975E+02 -0.15405877690E+02  0.13049219057E+03  0.12499368341E+03 0.  0.
          2    1    1    2  501    0  0.16906701056E+02  0.35614116827E+02 -0.11837150120E+03  0.12476383352E+03  0.00000000000E+00 0. -1.
          1    1    1    2  502    0  0.13817311560E+02 -0.20664705852E+02  0.16679815808E+03  0.16864036796E+03  0.00000000000E+00 0. -1.
         22    1    3    3    0    0 -0.15076345399E+02 -0.70229836939E+02 -0.12946186772E+02  0.72987190239E+02  0.00000000000E+00 0.  1.
         22    1    3    3    0    0 -0.15647667217E+02  0.55280425963E+02 -0.24596909179E+01  0.57505000334E+02  0.00000000000E+00 0.  1.
</event>
<event>
 7    1  0.4915160E-006  0.9939607E+02  0.7818608E-02  0.1291739E+00
          2   -1    0    0  502    0  0.00000000000E+00  0.00000000000E+00  0.67575127704E+03  0.67575127704E+03  0.00000000000E+00 0. -1.
          1   -1    0    0  501    0 -0.00000000000E+00 -0.00000000000E+00 -0.45812293918E+03  0.45812293918E+03  0.00000000000E+00 0. -1.
         25    2    1    2    0    0 -0.95474632092E+02  0.14934718090E+03 -0.85537192632E+02  0.23316106007E+03  0.12500993078E+03 0.  0.
          2    1    1    2  501    0  0.71988557268E+02 -0.54550541082E+02 -0.28784725130E+03  0.30168552167E+03  0.00000000000E+00 0. -1.
          1    1    1    2  502    0  0.23486074824E+02 -0.94796639814E+02  0.59101278179E+03  0.59902763448E+03  0.00000000000E+00 0. -1.
         22    1    3    3    0    0 -0.97472410695E+02  0.79316665832E+02 -0.40968918071E+01  0.12573300620E+03  0.00000000000E+00 0.  1.
         22    1    3    3    0    0  0.19977786030E+01  0.70030515065E+02 -0.81440300824E+02  0.10742805387E+03  0.00000000000E+00 0.  1.
</event>
<event>
 7    1  0.4915160E-006  0.2478776E+03  0.7818608E-02  0.1184953E+00
          2   -1    0    0  502    0  0.00000000000E+00  0.00000000000E+00  0.11124455549E+04  0.11124455549E+04  0.00000000000E+00 0. -1.
          1   -1    0    0  501    0 -0.00000000000E+00 -0.00000000000E+00 -0.17934472888E+04  0.17934472888E+04  0.00000000000E+00 0. -1.
         25    2    1    2    0    0  0.19243580393E+03  0.24049106702E+02  0.15542659105E+03  0.27819534543E+03  0.12500130737E+03 0.  0.
          2    1    1    2  501    0 -0.21489702212E+03 -0.12934215896E+03 -0.17196968587E+04  0.17378916566E+04  0.00000000000E+00 0. -1.
          1    1    1    2  502    0  0.22461218191E+02  0.10529305226E+03  0.88326853374E+03  0.88980584167E+03  0.00000000000E+00 0. -1.
         22    1    3    3    0    0  0.13414733711E+03  0.35644238264E+02  0.16751443083E+03  0.21754793567E+03  0.00000000000E+00 0. -1.
         22    1    3    3    0    0  0.58288466819E+02 -0.11595131563E+02 -0.12087839780E+02  0.60647409761E+02  0.00000000000E+00 0. -1.
</event>
<event>
 7    1  0.4915160E-006  0.1353762E+03  0.7818608E-02  0.1289014E+00
          2   -1    0    0  502    0  0.00000000000E+00  0.00000000000E+00  0.12589633885E+04  0.12589633885E+04  0.00000000000E+00 0. -1.
          1   -1    0    0  501    0 -0.00000000000E+00 -0.00000000000E+00 -0.92766533598E+03  0.92766533598E+03  0.00000000000E+00 0. -1.
         25    2    1    2    0    0 -0.73561762023E+02  0.96394672118E+02  0.23891685572E+03  0.29565110957E+03  0.12500019598E+03 0.  0.
          2    1    1    2  501    0  0.12545147640E+03 -0.52400325021E+02 -0.89298028096E+03  0.90327052934E+03  0.00000000000E+00 0. -1.
          1    1    1    2  502    0 -0.51889714378E+02 -0.43994347097E+02  0.98536147777E+03  0.98770708558E+03  0.00000000000E+00 0. -1.
         22    1    3    3    0    0 -0.80433324620E+02  0.10807472369E+03  0.24591492759E+03  0.28039938877E+03  0.00000000000E+00 0.  1.
         22    1    3    3    0    0  0.68715625973E+01 -0.11680051571E+02 -0.69980718738E+01  0.15251720794E+02  0.00000000000E+00 0.  1.
</event>
<event>
 7    1  0.4915160E-006  0.8201246E+02  0.7818608E-02  0.1416120E+00
          2   -1    0    0  502    0  0.00000000000E+00  0.00000000000E+00  0.12371989215E+04  0.12371989215E+04  0.00000000000E+00 0. -1.
          1   -1    0    0  501    0 -0.00000000000E+00 -0.00000000000E+00 -0.41638521599E+03  0.41638521599E+03  0.00000000000E+00 0. -1.
         25    2    1    2    0    0  0.11542187975E+03  0.28845996457E+02  0.10715137559E+03  0.20314612422E+03  0.12503051091E+03 0.  0.
          2    1    1    2  501    0 -0.78324344714E+02 -0.20458868613E+02 -0.36360092448E+03  0.37250355779E+03  0.00000000000E+00 0. -1.
          1    1    1    2  502    0 -0.37097535034E+02 -0.83871278440E+01  0.10772632544E+04  0.10779344555E+04  0.00000000000E+00 0. -1.
         22    1    3    3    0    0 -0.13593472797E+02  0.39197893569E+02  0.14408841477E+02  0.43918926166E+02  0.00000000000E+00 0.  1.
         22    1    3    3    0    0  0.12901535254E+03 -0.10351897111E+02  0.92742534111E+02  0.15922719805E+03  0.00000000000E+00 0.  1.
</event>
<event>
 7    1  0.4915160E-006  0.2877255E+02  0.7818608E-02  0.1634402E+00
          2   -1    0    0  502    0  0.00000000000E+00  0.00000000000E+00  0.82519575347E+03  0.82519575347E+03  0.00000000000E+00 0. -1.
          1   -1    0    0  501    0 -0.00000000000E+00 -0.00000000000E+00 -0.26619950980E+03  0.26619950980E+03  0.00000000000E+00 0. -1.
         25    2    1    2    0    0 -0.47140293078E+02  0.15144898756E+02 -0.53688052913E+02  0.14477093530E+03  0.12499856596E+03 0.  0.
          2    1    1    2  501    0  0.28262388758E+02  0.16291898478E+01 -0.16556378890E+03  0.16796661892E+03  0.00000000000E+00 0. -1.
          1    1    1    2  502    0  0.18877904320E+02 -0.16774088604E+02  0.77824808548E+03  0.77865770905E+03  0.00000000000E+00 0. -1.
         22    1    3    3    0    0  0.37589865968E+02  0.33087069134E+01  0.88972500960E+01  0.38769919064E+02  0.00000000000E+00 0. -1.
         22    1    3    3    0    0 -0.84730159046E+02  0.11836191843E+02 -0.62585303009E+02  0.10600101623E+03  0.00000000000E+00 0. -1.
</event>
<event>
 7    1  0.4915160E-006  0.8130260E+02  0.7818608E-02  0.1465040E+00
          2   -1    0    0  502    0  0.00000000000E+00  0.00000000000E+00  0.14619018156E+04  0.14619018156E+04  0.00000000000E+00 0. -1.
          1   -1    0    0  501    0 -0.00000000000E+00 -0.00000000000E+00 -0.35142177583E+03  0.35142177583E+03  0.00000000000E+00 0. -1.
         25    2    1    2    0    0 -0.18202429361E+02 -0.60221601800E+02 -0.59282366551E+02  0.15197587658E+03  0.12499719326E+03 0.  0.
          2    1    1    2  501    0  0.15999003994E+02 -0.21280208941E+02 -0.24389365100E+03  0.24534247170E+03  0.00000000000E+00 0. -1.
          1    1    1    2  502    0  0.22034253667E+01  0.81501810741E+02  0.14136560573E+04  0.14160052432E+04  0.00000000000E+00 0. -1.
         22    1    3    3    0    0  0.17964593696E+02  0.82968718499E+00 -0.76806744568E+02  0.78884035258E+02  0.00000000000E+00 0.  1.
         22    1    3    3    0    0 -0.36167023057E+02 -0.61051288985E+02  0.17524378017E+02  0.73091841326E+02  0.00000000000E+00 0.  1.
</event>
<event>
 7    1  0.4915160E-006  0.6647490E+02  0.7818608E-02  0.1523266E+00
          2   -1    0    0  502    0  0.00000000000E+00  0.00000000000E+00  0.83160744386E+03  0.83160744386E+03  0.00000000000E+00 0. -1.
          1   -1    0    0  501    0 -0.00000000000E+00 -0.00000000000E+00 -0.71275734799E+02  0.71275734799E+02  0.00000000000E+00 0. -1.
         25    2    1    2    0    0 -0.44529194190E+02 -0.72743921145E+02  0.22201729092E+03  0.26868315513E+03  0.12499773272E+03 0.  0.
          2    1    1    2  501    0  0.39139055304E+02  0.51670699351E+02 -0.25726848723E+02  0.69739497895E+02  0.00000000000E+00 0. -1.
          1    1    1    2  502    0  0.53901388865E+01  0.21073221794E+02  0.56404126686E+03  0.56446052563E+03  0.00000000000E+00 0. -1.
         22    1    3    3    0    0  0.26518012863E+02  0.20723496513E+01  0.32374439744E+01  0.26795161555E+02  0.00000000000E+00 0.  1.
         22    1    3    3    0    0 -0.71047207054E+02 -0.74816270796E+02  0.21877984695E+03  0.24188799358E+03  0.00000000000E+00 0.  1.
</event>
<event>
 7    1  0.4915160E-006  0.1089666E+03  0.7818608E-02  0.1379302E+00
          2   -1    0    0  502    0  0.00000000000E+00  0.00000000000E+00  0.20491157256E+04  0.20491157256E+04  0.00000000000E+00 0. -1.
          1   -1    0    0  501    0 -0.00000000000E+00 -0.00000000000E+00 -0.16393405299E+03  0.16393405299E+03  0.00000000000E+00 0. -1.
         25    2    1    2    0    0  0.13652285699E+03 -0.11286602920E+02  0.29838425734E+03  0.35131781391E+03  0.12500065383E+03 0.  0.
          2    1    1    2  501    0 -0.10657075647E+03 -0.12669516629E+02 -0.11627189631E+03  0.15823083346E+03  0.00000000000E+00 0. -1.
          1    1    1    2  502    0 -0.29952100518E+02  0.23956119549E+02  0.17030693115E+04  0.17035011312E+04  0.00000000000E+00 0. -1.
         22    1    3    3    0    0 -0.14018065448E+02 -0.20275719068E+02  0.11479470894E+02  0.27191711874E+02  0.00000000000E+00 0. -1.
         22    1    3    3    0    0  0.15054092244E+03  0.89891161481E+01  0.28690478644E+03  0.32412610204E+03  0.00000000000E+00 0. -1.
</event>
<event>
 7    1  0.4915160E-006  0.3841964E+02  0.7818608E-02  0.1624167E+00
          2   -1    0    0  502    0  0.00000000000E+00  0.00000000000E+00  0.21135429084E+03  0.21135429084E+03  0.00000000000E+00 0. -1.
          1   -1    0    0  501    0 -0.00000000000E+00 -0.00000000000E+00 -0.27527358359E+03  0.27527358359E+03  0.00000000000E+00 0. -1.
         25    2    1    2    0    0 -0.77781840913E+01 -0.17564132283E+02 -0.24453852796E+03  0.27530531331E+03  0.12499969995E+03 0.  0.
          2    1    1    2  501    0 -0.14363628477E+02 -0.14015113731E+02 -0.58523008078E+01  0.20904225904E+02  0.00000000000E+00 0. -1.
          1    1    1    2  502    0  0.22141812568E+02  0.31579246013E+02  0.18647153601E+03  0.19041833522E+03  0.00000000000E+00 0. -1.
         22    1    3    3    0    0  0.86273403400E+01 -0.49231117586E+02 -0.31011707269E+02  0.58820574019E+02  0.00000000000E+00 0. -1.
         22    1    3    3    0    0 -0.16405524431E+02  0.31666985304E+02 -0.21352682069E+03  0.21648473929E+03  0.00000000000E+00 0. -1.
</event>
<event>
 7    1  0.4915160E-006  0.1632377E+03  0.7818608E-02  0.1348001E+00
          2   -1    0    0  502    0  0.00000000000E+00  0.00000000000E+00  0.27315450759E+04  0.27315450759E+04  0.00000000000E+00 0. -1.
          1   -1    0    0  501    0 -0.00000000000E+00 -0.00000000000E+00 -0.34936873919E+03  0.34936873919E+03  0.00000000000E+00 0. -1.
         25    2    1    2    0    0  0.81584076223E+02 -0.10828654869E+03  0.12192245698E+03  0.22106386023E+03  0.12498882616E+03 0.  0.
          2    1    1    2  501    0  0.31026635689E+02 -0.11978376088E+02 -0.29621563499E+03  0.29807689616E+03  0.00000000000E+00 0. -1.
          1    1    1    2  502    0 -0.11261071191E+03  0.12026492478E+03  0.25564695147E+04  0.25617730587E+04  0.00000000000E+00 0. -1.
         22    1    3    3    0    0 -0.39976409069E+01 -0.98078451762E+02  0.62251905845E+02  0.11623538022E+03  0.00000000000E+00 0.  1.
         22    1    3    3    0    0  0.85581717130E+02 -0.10208096927E+02  0.59670551137E+02  0.10482848002E+03  0.00000000000E+00 0.  1.
</event>
<event>
 7    1  0.1206330E-005  0.1077694E+03  0.7818608E-02  0.1271581E+00
          2   -1    0    0  502    0  0.00000000000E+00  0.00000000000E+00  0.11220672465E+04  0.11220672465E+04  0.00000000000E+00 0. -1.
          1   -1    0    0  501    0 -0.00000000000E+00 -0.00000000000E+00 -0.22572176518E+04  0.22572176518E+04  0.00000000000E+00 0. -1.
         25    2    1    2    0    0 -0.10088072887E+02 -0.79647581027E+02 -0.26480299993E+03  0.30362956259E+03  0.12499910452E+03 0.  0.
          2    1    1    2  501    0  0.99257517634E+02  0.17952877733E+02 -0.19690415906E+04  0.19716234798E+04  0.00000000000E+00 0. -1.
          1    1    1    2  502    0 -0.89169444747E+02  0.61694703295E+02  0.10986941852E+04  0.11040318559E+04  0.00000000000E+00 0. -1.
         22    1    3    3    0    0  0.51882616702E+02 -0.60307804244E+01 -0.98561223043E+02  0.11154591394E+03  0.00000000000E+00 0. -1.
         22    1    3    3    0    0 -0.61970689589E+02 -0.73616800603E+02 -0.16624177689E+03  0.19208364866E+03  0.00000000000E+00 0. -1.
</event>
<event>
 7    1  0.4915160E-006  0.6594552E+02  0.7818608E-02  0.1440378E+00
          2   -1    0    0  502    0  0.00000000000E+00  0.00000000000E+00  0.13151746682E+04  0.13151746682E+04  0.00000000000E+00 0. -1.
          1   -1    0    0  501    0 -0.00000000000E+00 -0.00000000000E+00 -0.35378433231E+02  0.35378433231E+02  0.00000000000E+00 0. -1.
         25    2    1    2    0    0 -0.10819712961E+02  0.65760194844E+02  0.93900877529E+03  0.94963329122E+03  0.12499775319E+03 0.  0.
          2    1    1    2  501    0 -0.28111063524E+02 -0.60123648321E+02  0.91978876616E+01  0.67005120083E+02  0.00000000000E+00 0. -1.
          1    1    1    2  502    0  0.38930776485E+02 -0.56365465230E+01  0.33158957202E+03  0.33391469014E+03  0.00000000000E+00 0. -1.
         22    1    3    3    0    0 -0.48992140075E+02  0.24979706949E+02  0.17164935584E+03  0.18024349339E+03  0.00000000000E+00 0. -1.
         22    1    3    3    0    0  0.38172427115E+02  0.40780487895E+02  0.76735941945E+03  0.76938979783E+03  0.00000000000E+00 0. -1.
</event>
<event>
 7    1  0.4915160E-006  0.6252397E+02  0.7818608E-02  0.1394375E+00
          2   -1    0    0  502    0  0.00000000000E+00  0.00000000000E+00  0.83466187318E+03  0.83466187318E+03  0.00000000000E+00 0. -1.
          1   -1    0    0  501    0 -0.00000000000E+00 -0.00000000000E+00 -0.10661745111E+03  0.10661745111E+03  0.00000000000E+00 0. -1.
         25    2    1    2    0    0  0.17758454844E+02 -0.83012054618E+01  0.25453181585E+03  0.28424568201E+03  0.12499955891E+03 0.  0.
          2    1    1    2  501    0  0.45626661106E+02  0.37697060262E+02 -0.79785883322E+02  0.99341067709E+02  0.00000000000E+00 0. -1.
          1    1    1    2  502    0 -0.63385115950E+02 -0.29395854800E+02  0.55329848954E+03  0.55769257457E+03  0.00000000000E+00 0. -1.
         22    1    3    3    0    0 -0.45319789523E+02 -0.17526955323E+02  0.17864655242E+03  0.18513689037E+03  0.00000000000E+00 0. -1.
         22    1    3    3    0    0  0.63078244367E+02  0.92257498608E+01  0.75885263438E+02  0.99108791638E+02  0.00000000000E+00 0. -1.
</event>
<event>
 7    1  0.4915160E-006  0.1734710E+03  0.7818608E-02  0.1221241E+00
          2   -1    0    0  502    0  0.00000000000E+00  0.00000000000E+00  0.32000787641E+04  0.32000787641E+04  0.00000000000E+00 0. -1.
          1   -1    0    0  501    0 -0.00000000000E+00 -0.00000000000E+00 -0.13556043940E+03  0.13556043940E+03  0.00000000000E+00 0. -1.
         25    2    1    2    0    0  0.99072286814E+02  0.11152932952E+03  0.15158447526E+03  0.24669394390E+03  0.12500375779E+03 0.  0.
          2    1    1    2  501    0 -0.34033690112E+02 -0.19260834080E+03  0.22770084828E+02  0.19691303098E+03  0.00000000000E+00 0. -1.
          1    1    1    2  502    0 -0.65038596702E+02  0.81079011283E+02  0.28901637646E+04  0.28920322286E+04  0.00000000000E+00 0. -1.
         22    1    3    3    0    0  0.43743542910E+02  0.68843630701E+01 -0.10957482549E+02  0.45617523223E+02  0.00000000000E+00 0.  1.
         22    1    3    3    0    0  0.55328743904E+02  0.10464496645E+03  0.16254195781E+03  0.20107642068E+03  0.00000000000E+00 0.  1.
</event>
<event>
 7    1  0.4915160E-006  0.6145719E+02  0.7818608E-02  0.1447866E+00
          2   -1    0    0  502    0  0.00000000000E+00  0.00000000000E+00  0.13823750963E+03  0.13823750963E+03  0.00000000000E+00 0. -1.
          1   -1    0    0  501    0 -0.00000000000E+00 -0.00000000000E+00 -0.38117354676E+03  0.38117354676E+03  0.00000000000E+00 0. -1.
         25    2    1    2    0    0 -0.27931590921E+02 -0.38151146141E+02 -0.86467382828E+01  0.13392783039E+03  0.12500485570E+03 0.  0.
          2    1    1    2  501    0  0.28526664206E+02 -0.27933672795E+02 -0.29382999094E+03  0.29653014049E+03  0.00000000000E+00 0. -1.
          1    1    1    2  502    0 -0.59507328591E+00  0.66084818937E+02  0.59540692087E+02  0.88953085502E+02  0.00000000000E+00 0. -1.
         22    1    3    3    0    0 -0.29793957845E+02  0.25384992605E+02 -0.45843837425E+02  0.60280471162E+02  0.00000000000E+00 0. -1.
         22    1    3    3    0    0  0.18623669246E+01 -0.63536138746E+02  0.37197099143E+02  0.73647359233E+02  0.00000000000E+00 0. -1.
</event>
<event>
 7    1  0.4915160E-006  0.2387317E+03  0.7818608E-02  0.1349535E+00
          2   -1    0    0  502    0  0.00000000000E+00  0.00000000000E+00  0.64004026849E+03  0.64004026849E+03  0.00000000000E+00 0. -1.
          1   -1    0    0  501    0 -0.00000000000E+00 -0.00000000000E+00 -0.10002925924E+04  0.10002925924E+04  0.00000000000E+00 0. -1.
         25    2    1    2    0    0  0.81052619481E+02 -0.22847180602E+03 -0.56607367674E+03  0.62835755477E+03  0.12499966346E+03 0.  0.
          2    1    1    2  501    0 -0.22269610234E+02 -0.28003862277E+01 -0.37935330700E+03  0.38001672231E+03  0.00000000000E+00 0. -1.
          1    1    1    2  502    0 -0.58783009247E+02  0.23127219225E+03  0.58517465985E+03  0.63195858378E+03  0.00000000000E+00 0. -1.
         22    1    3    3    0    0 -0.27557993126E+02 -0.93213488631E+02 -0.24170490773E+03  0.26051767669E+03  0.00000000000E+00 0. -1.
         22    1    3    3    0    0  0.10861061261E+03 -0.13525831739E+03 -0.32436876901E+03  0.36783987807E+03  0.00000000000E+00 0. -1.
</event>
<event>
 7    1  0.4915160E-006  0.9211139E+02  0.7818608E-02  0.1347396E+00
          2   -1    0    0  502    0  0.00000000000E+00  0.00000000000E+00  0.39569265069E+03  0.39569265069E+03  0.00000000000E+00 0. -1.
          1   -1    0    0  501    0 -0.00000000000E+00 -0.00000000000E+00 -0.15662920888E+04  0.15662920888E+04  0.00000000000E+00 0. -1.
         25    2    1    2    0    0 -0.44911663079E+02  0.12349792100E+03 -0.16464569390E+03  0.24495137632E+03  0.12499671304E+03 0.  0.
          2    1    1    2  501    0 -0.17261071838E+02 -0.56676286963E+02 -0.13549778411E+04  0.13562725006E+04  0.00000000000E+00 0. -1.
          1    1    1    2  502    0  0.62172734917E+02 -0.66821634034E+02  0.34902409688E+03  0.36076086254E+03  0.00000000000E+00 0. -1.
         22    1    3    3    0    0 -0.15312869006E+02 -0.22999981533E+02 -0.87449580376E+01  0.28982018543E+02  0.00000000000E+00 0. -1.
         22    1    3    3    0    0 -0.29598794073E+02  0.14649790253E+03 -0.15590073586E+03  0.21596935777E+03  0.00000000000E+00 0. -1.
</event>
<event>
 7    1  0.4915160E-006  0.7817687E+02  0.7818608E-02  0.1422880E+00
          2   -1    0    0  502    0  0.00000000000E+00  0.00000000000E+00  0.73287968377E+03  0.73287968377E+03  0.00000000000E+00 0. -1.
          1   -1    0    0  501    0 -0.00000000000E+00 -0.00000000000E+00 -0.17970435735E+03  0.17970435735E+03  0.00000000000E+00 0. -1.
         25    2    1    2    0    0 -0.57206051610E+02 -0.22954673368E+02  0.13503740394E+03  0.19406308913E+03  0.12500373086E+03 0.  0.
          2    1    1    2  501    0  0.79287345300E+02 -0.78204558372E+01 -0.13893705545E+03  0.16015975784E+03  0.00000000000E+00 0. -1.
          1    1    1    2  502    0 -0.22081293689E+02  0.30775129205E+02  0.55707497793E+03  0.55836119416E+03  0.00000000000E+00 0. -1.
         22    1    3    3    0    0  0.26349370017E+02 -0.14121523459E+02  0.97605652841E+02  0.10208119411E+03  0.00000000000E+00 0.  1.
         22    1    3    3    0    0 -0.83555421628E+02 -0.88331499088E+01  0.37431751098E+02  0.91981895017E+02  0.00000000000E+00 0.  1.
</event>
<event>
 7    1  0.4915160E-006  0.6223694E+02  0.7818608E-02  0.1509894E+00
          2   -1    0    0  502    0  0.00000000000E+00  0.00000000000E+00  0.18226678966E+04  0.18226678966E+04  0.00000000000E+00 0. -1.
          1   -1    0    0  501    0 -0.00000000000E+00 -0.00000000000E+00 -0.46202329090E+03  0.46202329090E+03  0.00000000000E+00 0. -1.
         25    2    1    2    0    0 -0.20594326800E+02  0.76132795648E+02  0.99610592211E+02  0.17823482120E+03  0.12500021015E+03 0.  0.
          2    1    1    2  501    0 -0.11156501066E+02 -0.22836851798E+02 -0.42175704762E+03  0.42252218467E+03  0.00000000000E+00 0. -1.
          1    1    1    2  502    0  0.31750827866E+02 -0.53295943850E+02  0.16827910611E+04  0.16839341816E+04  0.00000000000E+00 0. -1.
         22    1    3    3    0    0  0.10735382358E+02  0.10296579244E+03  0.54084461817E+02  0.11680039322E+03  0.00000000000E+00 0.  1.
         22    1    3    3    0    0 -0.31329709158E+02 -0.26832996789E+02  0.45526130394E+02  0.61434427980E+02  0.00000000000E+00 0.  1.
</event>
<event>
 7    1  0.4915160E-006  0.5298590E+02  0.7818608E-02  0.1545516E+00
          2   -1    0    0  502    0  0.00000000000E+00  0.00000000000E+00  0.23769382457E+04  0.23769382457E+04  0.00000000000E+00 0. -1.
          1   -1    0    0  501    0 -0.00000000000E+00 -0.00000000000E+00 -0.16221067909E+04  0.16221067909E+04  0.00000000000E+00 0. -1.
         25    2    1    2    0    0  0.64691869991E+02  0.16861635848E+02  0.22736231896E+03  0.26793253769E+03  0.12499947145E+03 0.  0.
          2    1    1    2  501    0 -0.20376924554E+02  0.11873300023E+02 -0.16014073275E+04  0.16015809760E+04  0.00000000000E+00 0. -1.
          1    1    1    2  502    0 -0.44314945436E+02 -0.28734935871E+02  0.21288764633E+04  0.21295315229E+04  0.00000000000E+00 0. -1.
         22    1    3    3    0    0  0.63709719704E+02 -0.14654110353E+02  0.37286644217E+02  0.75259319502E+02  0.00000000000E+00 0.  1.
         22    1    3    3    0    0  0.98215028700E+00  0.31515746201E+02  0.19007567474E+03  0.19267321819E+03  0.00000000000E+00 0.  1.
</event>
<event>
 7    1  0.4915160E-006  0.7980131E+02  0.7818608E-02  0.1449230E+00
          2   -1    0    0  502    0  0.00000000000E+00  0.00000000000E+00  0.84107876137E+02  0.84107876137E+02  0.00000000000E+00 0. -1.
          1   -1    0    0  501    0 -0.00000000000E+00 -0.00000000000E+00 -0.13225151133E+04  0.13225151133E+04  0.00000000000E+00 0. -1.
         25    2    1    2    0    0 -0.77428867214E+02  0.52190026176E+02 -0.75222231381E+03  0.76823292512E+03  0.12499755809E+03 0.  0.
          2    1    1    2  501    0  0.73100811734E+02 -0.22059508929E+02 -0.55652881821E+03  0.56174253543E+03  0.00000000000E+00 0. -1.
          1    1    1    2  502    0  0.43280554796E+01 -0.30130517247E+02  0.70343894884E+02  0.76647528866E+02  0.00000000000E+00 0. -1.
         22    1    3    3    0    0 -0.15607286973E+02  0.10878148973E+02 -0.85576160652E+01  0.20860352932E+02  0.00000000000E+00 0. -1.
         22    1    3    3    0    0 -0.61821580240E+02  0.41311877203E+02 -0.74366469775E+03  0.74737257219E+03  0.00000000000E+00 0. -1.
</event>
<event>
 7    1  0.4915160E-006  0.4807208E+02  0.7818608E-02  0.1480611E+00
          2   -1    0    0  502    0  0.00000000000E+00  0.00000000000E+00  0.76165462492E+03  0.76165462492E+03  0.00000000000E+00 0. -1.
          1   -1    0    0  501    0 -0.00000000000E+00 -0.00000000000E+00 -0.77847122322E+02  0.77847122322E+02  0.00000000000E+00 0. -1.
         25    2    1    2    0    0 -0.66428741049E+01  0.93426616507E+01  0.54429893907E+02  0.13681863312E+03  0.12500124765E+03 0.  0.
          2    1    1    2  501    0  0.75287345564E+01  0.39583566248E+02 -0.24381208134E+02  0.47095476120E+02  0.00000000000E+00 0. -1.
          1    1    1    2  502    0 -0.88586045152E+00 -0.48926227898E+02  0.65375881683E+03  0.65558763801E+03  0.00000000000E+00 0. -1.
         22    1    3    3    0    0 -0.40325034225E+01 -0.11793476894E+02  0.92425220747E+02  0.93261828264E+02  0.00000000000E+00 0.  1.
         22    1    3    3    0    0 -0.26103706823E+01  0.21136138545E+02 -0.37995326840E+02  0.43556804857E+02  0.00000000000E+00 0.  1.
</event>
<event>
 7    1  0.4915160E-006  0.7983358E+02  0.7818608E-02  0.1380966E+00
          2   -1    0    0  502    0  0.00000000000E+00  0.00000000000E+00  0.47892301401E+03  0.47892301401E+03  0.00000000000E+00 0. -1.
          1   -1    0    0  501    0 -0.00000000000E+00 -0.00000000000E+00 -0.13918151738E+04  0.13918151738E+04  0.00000000000E+00 0. -1.
         25    2    1    2    0    0 -0.11351041230E+02  0.11697147601E+03  0.95566676275E+02  0.19639097048E+03  0.12500100533E+03 0.  0.
          2    1    1    2  501    0  0.29785679218E+02 -0.42190239038E+02 -0.13364433416E+04  0.13374408429E+04  0.00000000000E+00 0. -1.
          1    1    1    2  502    0 -0.18434637988E+02 -0.74781236975E+02  0.32798450552E+03  0.33690637445E+03  0.00000000000E+00 0. -1.
         22    1    3    3    0    0 -0.56030134204E+02  0.10685063808E+03  0.46602409900E+02  0.12933761791E+03  0.00000000000E+00 0.  1.
         22    1    3    3    0    0  0.44679092974E+02  0.10120837929E+02  0.48964266376E+02  0.67053352572E+02  0.00000000000E+00 0.  1.
</event>
<event>
 7    1  0.4915160E-006  0.5885981E+02  0.7818608E-02  0.1530906E+00
          2   -1    0    0  502    0  0.00000000000E+00  0.00000000000E+00  0.10338703461E+04  0.10338703461E+04  0.00000000000E+00 0. -1.
          1   -1    0    0  501    0 -0.00000000000E+00 -0.00000000000E+00 -0.19362535806E+03  0.19362535806E+03  0.00000000000E+00 0. -1.
         25    2    1    2    0    0  0.70546531759E+01  0.60656115292E+02  0.36116266718E+03  0.38703313366E+03  0.12500896742E+03 0.  0.
          2    1    1    2  501    0 -0.28542958145E+02 -0.51510147887E+02 -0.17567814975E+03  0.18528574715E+03  0.00000000000E+00 0. -1.
          1    1    1    2  502    0  0.21488304969E+02 -0.91459674046E+01  0.65476047060E+03  0.65517682333E+03  0.00000000000E+00 0. -1.
         22    1    3    3    0    0  0.16819951929E+02 -0.34727493485E+02  0.63455035514E+02  0.74266083233E+02  0.00000000000E+00 0. -1.
         22    1    3    3    0    0 -0.97652987533E+01  0.95383608777E+02  0.29770763166E+03  0.31276705043E+03  0.00000000000E+00 0. -1.
</event>
<event>
 7    1  0.4915160E-006  0.1419380E+03  0.7818608E-02  0.1235793E+00
          2   -1    0    0  502    0  0.00000000000E+00  0.00000000000E+00  0.34014095090E+03  0.34014095090E+03  0.00000000000E+00 0. -1.
          1   -1    0    0  501    0 -0.00000000000E+00 -0.00000000000E+00 -0.24077358658E+04  0.24077358658E+04  0.00000000000E+00 0. -1.
         25    2    1    2    0    0  0.17890139902E+03 -0.12571393384E+03 -0.30210604955E+03  0.39331546390E+03  0.12497713886E+03 0.  0.
          2    1    1    2  501    0 -0.13668583454E+03  0.24927342426E+02 -0.20474543768E+04  0.20521632038E+04  0.00000000000E+00 0. -1.
          1    1    1    2  502    0 -0.42215564475E+02  0.10078659142E+03  0.28196551145E+03  0.30239814904E+03  0.00000000000E+00 0. -1.
         22    1    3    3    0    0  0.18498103039E+03 -0.73265930754E+02 -0.23440656021E+03  0.30746107670E+03  0.00000000000E+00 0.  1.
         22    1    3    3    0    0 -0.60796313749E+01 -0.52448003090E+02 -0.67699489332E+02  0.85854387201E+02  0.00000000000E+00 0.  1.
</event>
<event>
 7    1  0.4915160E-006  0.7807380E+02  0.7818608E-02  0.1389993E+00
          2   -1    0    0  502    0  0.00000000000E+00  0.00000000000E+00  0.11169459532E+04  0.11169459532E+04  0.00000000000E+00 0. -1.
          1   -1    0    0  501    0 -0.00000000000E+00 -0.00000000000E+00 -0.93999351019E+02  0.93999351019E+02  0.00000000000E+00 0. -1.
         25    2    1    2    0    0 -0.17591739826E+02  0.45353925960E+02  0.29392820400E+03  0.32308645317E+03  0.12499847681E+03 0.  0.
          2    1    1    2  501    0 -0.18712684433E+02 -0.78397095514E+02 -0.58007612037E+02  0.99303334274E+02  0.00000000000E+00 0. -1.
          1    1    1    2  502    0  0.36304424259E+02  0.33043169554E+02  0.78702601017E+03  0.78855551673E+03  0.00000000000E+00 0. -1.
         22    1    3    3    0    0 -0.71322012389E+02  0.34727794179E+02  0.17037566393E+03  0.18793806427E+03  0.00000000000E+00 0.  1.
         22    1    3    3    0    0  0.53730272563E+02  0.10626131781E+02  0.12355254007E+03  0.13514838890E+03  0.00000000000E+00 0.  1.
</event>
<event>
 7    1  0.4915160E-006  0.1881078E+03  0.7818608E-02  0.1254008E+00
          2   -1    0    0  502    0  0.00000000000E+00  0.00000000000E+00  0.41839308149E+03  0.41839308149E+03  0.00000000000E+00 0. -1.
          1   -1    0    0  501    0 -0.00000000000E+00 -0.00000000000E+00 -0.13656857821E+04  0.13656857821E+04  0.00000000000E+00 0. -1.
         25    2    1    2    0    0  0.12524997516E+03  0.84822898531E+02 -0.59751715488E+03  0.62891276486E+03  0.12498813960E+03 0.  0.
          2    1    1    2  501    0 -0.12146891227E+02  0.67545579390E+02 -0.72841332643E+03  0.73163920506E+03  0.00000000000E+00 0. -1.
          1    1    1    2  502    0 -0.11310308393E+03 -0.15236847792E+03  0.37863778071E+03  0.42352689365E+03  0.00000000000E+00 0. -1.
         22    1    3    3    0    0  0.48571111373E+02  0.10486476572E+03 -0.39054639558E+03  0.40728645822E+03  0.00000000000E+00 0.  1.
         22    1    3    3    0    0  0.76678863784E+02 -0.20041867184E+02 -0.20697075931E+03  0.22162630665E+03  0.00000000000E+00 0.  1.
</event>
<event>
 7    1  0.4915160E-006  0.1217174E+03  0.7818608E-02  0.1315732E+00
          2   -1    0    0  502    0  0.00000000000E+00  0.00000000000E+00  0.56243596894E+03  0.56243596894E+03  0.00000000000E+00 0. -1.
          1   -1    0    0  501    0 -0.00000000000E+00 -0.00000000000E+00 -0.19879650189E+04  0.19879650189E+04  0.00000000000E+00 0. -1.
         25    2    1    2    0    0 -0.12657282725E+03  0.92425402791E+02 -0.26751258427E+03  0.33429141810E+03  0.12499853517E+03 0.  0.
          2    1    1    2  501    0  0.58673785807E+02  0.78693943865E+01 -0.16796027440E+04  0.16806456849E+04  0.00000000000E+00 0. -1.
          1    1    1    2  502    0  0.67899041440E+02 -0.10029479718E+03  0.52158627835E+03  0.53546388480E+03  0.00000000000E+00 0. -1.
         22    1    3    3    0    0 -0.12750623877E+03  0.32275588009E+02 -0.22501863976E+03  0.26063948808E+03  0.00000000000E+00 0. -1.
         22    1    3    3    0    0  0.93341152608E+00  0.60149814783E+02 -0.42493944505E+02  0.73651930016E+02  0.00000000000E+00 0. -1.
</event>
<event>
 7    1  0.4915160E-006  0.1326886E+03  0.7818608E-02  0.1287791E+00
          2   -1    0    0  502    0  0.00000000000E+00  0.00000000000E+00  0.82681260646E+02  0.82681260646E+02  0.00000000000E+00 0. -1.
          1   -1    0    0  501    0 -0.00000000000E+00 -0.00000000000E+00 -0.70384728361E+03  0.70384728361E+03  0.00000000000E+00 0. -1.
         25    2    1    2    0    0 -0.13242925919E+03 -0.40417268917E+02 -0.19221739730E+03  0.26785689376E+03  0.12501489270E+03 0.  0.
          2    1    1    2  501    0  0.39105397816E+02 -0.58310000055E+02 -0.35912639117E+03  0.36592492820E+03  0.00000000000E+00 0. -1.
          1    1    1    2  502    0  0.93323861375E+02  0.98727268972E+02 -0.69822234499E+02  0.15274672229E+03  0.00000000000E+00 0. -1.
         22    1    3    3    0    0 -0.13684217658E+02 -0.14496487983E+02 -0.12961798481E+03  0.13114201448E+03  0.00000000000E+00 0. -1.
         22    1    3    3    0    0 -0.11874504153E+03 -0.25920780934E+02 -0.62599412486E+02  0.13671487928E+03  0.00000000000E+00 0. -1.
</event>
<event>
 7    1  0.4915160E-006  0.6217619E+02  0.7818608E-02  0.1419374E+00
          2   -1    0    0  502    0  0.00000000000E+00  0.00000000000E+00  0.98828504580E+03  0.98828504580E+03  0.00000000000E+00 0. -1.
          1   -1    0    0  501    0 -0.00000000000E+00 -0.00000000000E+00 -0.36917641148E+03  0.36917641148E+03  0.00000000000E+00 0. -1.
         25    2    1    2    0    0  0.30029133769E+02  0.62703110849E+02  0.65279529948E+03  0.66828162157E+03  0.12500077486E+03 0.  0.
          2    1    1    2  501    0  0.29895488589E+02 -0.38727883646E+02 -0.35656900276E+03  0.35990977055E+03  0.00000000000E+00 0. -1.
          1    1    1    2  502    0 -0.59924622358E+02 -0.23975227203E+02  0.32288233759E+03  0.32927006517E+03  0.00000000000E+00 0. -1.
         22    1    3    3    0    0 -0.25586286354E+02  0.80636385516E+02  0.38630884991E+03  0.39546354097E+03  0.00000000000E+00 0. -1.
         22    1    3    3    0    0  0.55615420123E+02 -0.17933274666E+02  0.26648644957E+03  0.27281808060E+03  0.00000000000E+00 0. -1.
</event>
<event>
 7    1  0.4915160E-006  0.2913436E+03  0.7818608E-02  0.1274693E+00
          2   -1    0    0  502    0  0.00000000000E+00  0.00000000000E+00  0.93416991691E+03  0.93416991691E+03  0.00000000000E+00 0. -1.
          1   -1    0    0  501    0 -0.00000000000E+00 -0.00000000000E+00 -0.28158826713E+04  0.28158826713E+04  0.00000000000E+00 0. -1.
         25    2    1    2    0    0  0.30015152569E+03  0.11951098122E+03 -0.60749155091E+02  0.35169576801E+03  0.12500256151E+03 0.  0.
          2    1    1    2  501    0 -0.31239697172E+02 -0.18311735381E+02 -0.25833609836E+04  0.25836147565E+04  0.00000000000E+00 0. -1.
          1    1    1    2  502    0 -0.26891182852E+03 -0.10119924583E+03  0.76239738428E+03  0.81474206374E+03  0.00000000000E+00 0. -1.
         22    1    3    3    0    0  0.15412549500E+03  0.22461976636E+01 -0.57100020398E+02  0.16437799713E+03  0.00000000000E+00 0.  1.
         22    1    3    3    0    0  0.14602603070E+03  0.11726478355E+03 -0.36491346927E+01  0.18731777088E+03  0.00000000000E+00 0.  1.
</event>
<event>
 7    1  0.4915160E-006  0.1360945E+03  0.7818608E-02  0.1355858E+00
          2   -1    0    0  502    0  0.00000000000E+00  0.00000000000E+00  0.64040378238E+03  0.64040378238E+03  0.00000000000E+00 0. -1.
          1   -1    0    0  501    0 -0.00000000000E+00 -0.00000000000E+00 -0.10956311529E+04  0.10956311529E+04  0.00000000000E+00 0. -1.
         25    2    1    2    0    0 -0.12016787757E+03 -0.70843745094E+02  0.64087475489E+02  0.19797058769E+03  0.12500397617E+03 0.  0.
          2    1    1    2  501    0  0.25557401140E+02 -0.27185679960E+02 -0.10192324553E+04  0.10199152121E+04  0.00000000000E+00 0. -1.
          1    1    1    2  502    0  0.94610476434E+02  0.98029425054E+02  0.49991760934E+03  0.51814913543E+03  0.00000000000E+00 0. -1.
         22    1    3    3    0    0 -0.12084718731E+03 -0.29995296785E+02  0.30859765825E+01  0.12455233343E+03  0.00000000000E+00 0. -1.
         22    1    3    3    0    0  0.67930973738E+00 -0.40848448309E+02  0.61001498907E+02  0.73418254269E+02  0.00000000000E+00 0. -1.
</event>
<event>
 7    1  0.4915160E-006  0.1117325E+03  0.7818608E-02  0.1319803E+00
          2   -1    0    0  502    0  0.00000000000E+00  0.00000000000E+00  0.19739515217E+03  0.19739515217E+03  0.00000000000E+00 0. -1.
          1   -1    0    0  501    0 -0.00000000000E+00 -0.00000000000E+00 -0.13868105720E+04  0.13868105720E+04  0.00000000000E+00 0. -1.
         25    2    1    2    0    0 -0.55390279391E+02 -0.24415618020E+02 -0.32939920998E+03  0.35748110290E+03  0.12499877576E+03 0.  0.
          2    1    1    2  501    0 -0.25666759997E+02 -0.56633560390E+02 -0.10244201408E+04  0.10263053969E+04  0.00000000000E+00 0. -1.
          1    1    1    2  502    0  0.81057039388E+02  0.81049178410E+02  0.16440393101E+03  0.20041922435E+03  0.00000000000E+00 0. -1.
         22    1    3    3    0    0 -0.94636770627E+02 -0.20436822241E+02 -0.26291104339E+03  0.28017137398E+03  0.00000000000E+00 0.  1.
         22    1    3    3    0    0  0.39246491236E+02 -0.39787957795E+01 -0.66488166591E+02  0.77309728928E+02  0.00000000000E+00 0.  1.
</event>
<event>
 7    1  0.4915160E-006  0.6437110E+02  0.7818608E-02  0.1438382E+00
          2   -1    0    0  502    0  0.00000000000E+00  0.00000000000E+00  0.16500862770E+03  0.16500862770E+03  0.00000000000E+00 0. -1.
          1   -1    0    0  501    0 -0.00000000000E+00 -0.00000000000E+00 -0.57332393999E+03  0.57332393999E+03  0.00000000000E+00 0. -1.
         25    2    1    2    0    0  0.12974014801E+02 -0.47586184216E+02 -0.26678890121E+03  0.29871985029E+03  0.12499784464E+03 0.  0.
          2    1    1    2  501    0  0.23312104703E+02  0.66468051532E+02 -0.28336775314E+03  0.29199099237E+03  0.00000000000E+00 0. -1.
          1    1    1    2  502    0 -0.36286119504E+02 -0.18881867316E+02  0.14184134206E+03  0.14762172503E+03  0.00000000000E+00 0. -1.
         22    1    3    3    0    0  0.59438278776E+02 -0.23194235331E+02 -0.21771587214E+03  0.22687239259E+03  0.00000000000E+00 0. -1.
         22    1    3    3    0    0 -0.46464263975E+02 -0.24391948885E+02 -0.49073029064E+02  0.71847457705E+02  0.00000000000E+00 0. -1.
</event>
<event>
 7    1  0.4915160E-006  0.6858674E+02  0.7818608E-02  0.1410495E+00
          2   -1    0    0  502    0  0.00000000000E+00  0.00000000000E+00  0.19416371131E+04  0.19416371131E+04  0.00000000000E+00 0. -1.
          1   -1    0    0  501    0 -0.00000000000E+00 -0.00000000000E+00 -0.32657334244E+02  0.32657334244E+02  0.00000000000E+00 0. -1.
         25    2    1    2    0    0 -0.91941092242E+02 -0.27612194513E+02  0.10838237820E+04  0.10952241632E+04  0.12500551837E+03 0.  0.
          2    1    1    2  501    0  0.66708101678E+02 -0.12642924740E+02  0.17629070385E+02  0.70146977826E+02  0.00000000000E+00 0. -1.
          1    1    1    2  502    0  0.25232990564E+02  0.40255119253E+02  0.80752692652E+03  0.80892330631E+03  0.00000000000E+00 0. -1.
         22    1    3    3    0    0 -0.22545461440E+02 -0.45100087448E+02  0.82927871952E+03  0.83081015302E+03  0.00000000000E+00 0.  1.
         22    1    3    3    0    0 -0.69395630802E+02  0.17487892935E+02  0.25454506247E+03  0.26441401022E+03  0.00000000000E+00 0.  1.
</event>
<event>
 7    1  0.4915160E-006  0.1246753E+03  0.7818608E-02  0.1344020E+00
          2   -1    0    0  502    0  0.00000000000E+00  0.00000000000E+00  0.42096020267E+03  0.42096020267E+03  0.00000000000E+00 0. -1.
          1   -1    0    0  501    0 -0.00000000000E+00 -0.00000000000E+00 -0.64461379167E+03  0.64461379167E+03  0.00000000000E+00 0. -1.
         25    2    1    2    0    0 -0.15495489298E+02 -0.95751588446E+02  0.11865945200E+03  0.19777095967E+03  0.12499924025E+03 0.  0.
          2    1    1    2  501    0  0.57463898812E+02  0.11215267965E+03 -0.59649348796E+03  0.60965958074E+03  0.00000000000E+00 0. -1.
          1    1    1    2  502    0 -0.41968409514E+02 -0.16401091204E+02  0.25418044696E+03  0.25814345393E+03  0.00000000000E+00 0. -1.
         22    1    3    3    0    0 -0.30105079255E+02 -0.45953005759E+02  0.13302471908E+03  0.14392209845E+03  0.00000000000E+00 0. -1.
         22    1    3    3    0    0  0.14609589957E+02 -0.49798582687E+02 -0.14365267084E+02  0.53848861220E+02  0.00000000000E+00 0. -1.
</event>
<event>
 7    1  0.4915160E-006  0.1167913E+03  0.7818608E-02  0.1309448E+00
          2   -1    0    0  502    0  0.00000000000E+00  0.00000000000E+00  0.11982588483E+04  0.11982588483E+04  0.00000000000E+00 0. -1.
          1   -1    0    0  501    0 -0.00000000000E+00 -0.00000000000E+00 -0.51047471963E+02  0.51047471963E+02  0.00000000000E+00 0. -1.
         25    2    1    2    0    0 -0.15834157235E+03 -0.33222526686E+02  0.39735370920E+03  0.44686842013E+03  0.12500249951E+03 0.  0.
          2    1    1    2  501    0  0.48632470030E+02  0.43579351544E+02  0.26075648596E+02  0.70315122640E+02  0.00000000000E+00 0. -1.
          1    1    1    2  502    0  0.10970910232E+03 -0.10356824858E+02  0.72378201850E+03  0.73212277745E+03  0.00000000000E+00 0. -1.
         22    1    3    3    0    0 -0.13872531686E+03  0.21409354214E+02  0.22696556887E+03  0.26686409169E+03  0.00000000000E+00 0. -1.
         22    1    3    3    0    0 -0.19616255489E+02 -0.54631880900E+02  0.17038814033E+03  0.18000432844E+03  0.00000000000E+00 0. -1.
</event>
<event>
 7    1  0.4915160E-006  0.7771024E+02  0.7818608E-02  0.1368122E+00
          2   -1    0    0  502    0  0.00000000000E+00  0.00000000000E+00  0.41701932513E+03  0.41701932513E+03  0.00000000000E+00 0. -1.
          1   -1    0    0  501    0 -0.00000000000E+00 -0.00000000000E+00 -0.46853840744E+03  0.46853840744E+03  0.00000000000E+00 0. -1.
         25    2    1    2    0    0 -0.31700314813E+02  0.51258002404E+02 -0.76316579184E+02  0.15837279305E+03  0.12500171418E+03 0.  0.
          2    1    1    2  501    0 -0.46002240928E+02 -0.36887959496E+02 -0.34450917044E+03  0.34951894977E+03  0.00000000000E+00 0. -1.
          1    1    1    2  502    0  0.77702555741E+02 -0.14370042908E+02  0.36930666731E+03  0.37766598976E+03  0.00000000000E+00 0. -1.
         22    1    3    3    0    0 -0.49668307682E+02 -0.55314413528E+00 -0.89149141495E+02  0.10205300674E+03  0.00000000000E+00 0. -1.
         22    1    3    3    0    0  0.17967992870E+02  0.51811146539E+02  0.12832562310E+02  0.56319786300E+02  0.00000000000E+00 0. -1.
</event>
<event>
 7    1  0.4915160E-006  0.2232246E+03  0.7818608E-02  0.1211786E+00
          2   -1    0    0  502    0  0.00000000000E+00  0.00000000000E+00  0.19021486687E+04  0.19021486687E+04  0.00000000000E+00 0. -1.
          1   -1    0    0  501    0 -0.00000000000E+00 -0.00000000000E+00 -0.28153011099E+04  0.28153011099E+04  0.00000000000E+00 0. -1.
         25    2    1    2    0    0 -0.18067759823E+03 -0.16841517128E+03  0.25002666502E+02  0.27795416640E+03  0.12500128348E+03 0.  0.
          2    1    1    2  501    0  0.83338083281E+02 -0.31960686151E+02 -0.26809930310E+04  0.26824783976E+04  0.00000000000E+00 0. -1.
          1    1    1    2  502    0  0.97339514946E+02  0.20037585743E+03  0.17428379233E+04  0.17570172146E+04  0.00000000000E+00 0. -1.
         22    1    3    3    0    0 -0.75809036600E+02 -0.85571838985E+01 -0.25098194807E+02  0.80312855814E+02  0.00000000000E+00 0. -1.
         22    1    3    3    0    0 -0.10486856163E+03 -0.15985798738E+03  0.50100861309E+02  0.19764131059E+03  0.00000000000E+00 0. -1.
</event>
<event>
 7    1  0.4915160E-006  0.8403683E+02  0.7818608E-02  0.1396950E+00
          2   -1    0    0  502    0  0.00000000000E+00  0.00000000000E+00  0.65036504213E+03  0.65036504213E+03  0.00000000000E+00 0. -1.
          1   -1    0    0  501    0 -0.00000000000E+00 -0.00000000000E+00 -0.26112235831E+03  0.26112235831E+03  0.00000000000E+00 0. -1.
         25    2    1    2    0    0 -0.51539414189E+02 -0.10997701901E+03  0.85916836721E+02  0.19428283983E+03  0.12495144296E+03 0.  0.
          2    1    1    2  501    0  0.29997359093E+02  0.31002936029E+02 -0.20135682982E+03  0.20592619190E+03  0.00000000000E+00 0. -1.
          1    1    1    2  502    0  0.21542055096E+02  0.78974082978E+02  0.50468267692E+03  0.51127836871E+03  0.00000000000E+00 0. -1.
         22    1    3    3    0    0 -0.76912488814E-01 -0.37029554235E+02  0.97468249794E+02  0.10426530353E+03  0.00000000000E+00 0.  1.
         22    1    3    3    0    0 -0.51462501701E+02 -0.72947464772E+02 -0.11551413073E+02  0.90017536303E+02  0.00000000000E+00 0.  1.
</event>
<event>
 7    1  0.6406130E-006  0.5529288E+02  0.7818608E-02  0.1539959E+00
          2   -1    0    0  502    0  0.00000000000E+00  0.00000000000E+00  0.41107931138E+04  0.41107931138E+04  0.00000000000E+00 0. -1.
          1   -1    0    0  501    0 -0.00000000000E+00 -0.00000000000E+00 -0.11224245254E+04  0.11224245254E+04  0.00000000000E+00 0. -1.
         25    2    1    2    0    0 -0.20954385028E+02  0.34629084391E+02 -0.26537467428E+03  0.29612006315E+03  0.12500045727E+03 0.  0.
          2    1    1    2  501    0  0.12230795094E+02  0.19983277630E+02 -0.84132735922E+03  0.84165352082E+03  0.00000000000E+00 0. -1.
          1    1    1    2  502    0  0.87235899336E+01 -0.54612362021E+02  0.40950706219E+04  0.40954440552E+04  0.00000000000E+00 0. -1.
         22    1    3    3    0    0  0.39058764057E+02  0.16191107826E+02 -0.28312663637E+02  0.50885616283E+02  0.00000000000E+00 0.  1.
         22    1    3    3    0    0 -0.60013149085E+02  0.18437976566E+02 -0.23706201064E+03  0.24523444687E+03  0.00000000000E+00 0.  1.
</event>
<event>
 7    1  0.4915160E-006  0.7561499E+02  0.7818608E-02  0.1447084E+00
          2   -1    0    0  502    0  0.00000000000E+00  0.00000000000E+00  0.46836515495E+02  0.46836515495E+02  0.00000000000E+00 0. -1.
          1   -1    0    0  501    0 -0.00000000000E+00 -0.00000000000E+00 -0.12321416678E+04  0.12321416678E+04  0.00000000000E+00 0. -1.
         25    2    1    2    0    0  0.74326174694E+02 -0.76889975217E+02 -0.13531047757E+03  0.21300188658E+03  0.12499771924E+03 0.  0.
          2    1    1    2  501    0 -0.53991290771E+02  0.51360495026E+02 -0.10164341649E+04  0.10191620928E+04  0.00000000000E+00 0. -1.
          1    1    1    2  502    0 -0.20334883923E+02  0.25529480191E+02 -0.33560509851E+02  0.46814203874E+02  0.00000000000E+00 0. -1.
         22    1    3    3    0    0  0.61525225285E+02 -0.71793353738E+02 -0.19708742057E+02  0.96581952252E+02  0.00000000000E+00 0. -1.
         22    1    3    3    0    0  0.12800949409E+02 -0.50966214787E+01 -0.11560173551E+03  0.11641993433E+03  0.00000000000E+00 0. -1.
</event>
<event>
 7    1  0.4915160E-006  0.1095627E+03  0.7818608E-02  0.1324230E+00
          2   -1    0    0  502    0  0.00000000000E+00  0.00000000000E+00  0.27826740139E+04  0.27826740139E+04  0.00000000000E+00 0. -1.
          1   -1    0    0  501    0 -0.00000000000E+00 -0.00000000000E+00 -0.27637899489E+02  0.27637899489E+02  0.00000000000E+00 0. -1.
         25    2    1    2    0    0 -0.93949955791E+02 -0.57598872971E+02  0.21991546196E+04  0.22054584156E+04  0.12498622974E+03 0.  0.
          2    1    1    2  501    0  0.11050241139E+03 -0.10692749418E+01  0.11393728102E+03  0.15872501466E+03  0.00000000000E+00 0. -1.
          1    1    1    2  502    0 -0.16552455601E+02  0.58668147913E+02  0.44194421377E+03  0.44612848312E+03  0.00000000000E+00 0. -1.
         22    1    3    3    0    0 -0.50654119534E+02 -0.75905927680E+02  0.19352242142E+04  0.19373745918E+04  0.00000000000E+00 0.  1.
         22    1    3    3    0    0 -0.43295836257E+02  0.18307054708E+02  0.26393040544E+03  0.26808382384E+03  0.00000000000E+00 0.  1.
</event>
<event>
 7    1  0.4915160E-006  0.7694236E+02  0.7818608E-02  0.1510603E+00
          2   -1    0    0  502    0  0.00000000000E+00  0.00000000000E+00  0.31838387097E+03  0.31838387097E+03  0.00000000000E+00 0. -1.
          1   -1    0    0  501    0 -0.00000000000E+00 -0.00000000000E+00 -0.40816675101E+03  0.40816675101E+03  0.00000000000E+00 0. -1.
         25    2    1    2    0    0 -0.40077187381E+02 -0.86993111254E+02  0.66648102273E+02  0.17100435333E+03  0.12500614772E+03 0.  0.
          2    1    1    2  501    0  0.26770271310E+02  0.71451363703E+02 -0.35135847064E+03  0.35954793796E+03  0.00000000000E+00 0. -1.
          1    1    1    2  502    0  0.13306916071E+02  0.15541747551E+02  0.19492748832E+03  0.19599833069E+03  0.00000000000E+00 0. -1.
         22    1    3    3    0    0 -0.36600773942E+02 -0.11217193070E+03  0.79743044331E+02  0.14241176851E+03  0.00000000000E+00 0. -1.
         22    1    3    3    0    0 -0.34764134385E+01  0.25178819449E+02 -0.13094942058E+02  0.28592584821E+02  0.00000000000E+00 0. -1.
</event>
<event>
 7    1  0.4915160E-006  0.2088598E+03  0.7818608E-02  0.1357439E+00
          2   -1    0    0  502    0  0.00000000000E+00  0.00000000000E+00  0.61624412403E+03  0.61624412403E+03  0.00000000000E+00 0. -1.
          1   -1    0    0  501    0 -0.00000000000E+00 -0.00000000000E+00 -0.16900314380E+04  0.16900314380E+04  0.00000000000E+00 0. -1.
         25    2    1    2    0    0  0.19219447180E+02 -0.20389384160E+03  0.35815517707E+03  0.43109517710E+03  0.12500334022E+03 0.  0.
          2    1    1    2  501    0 -0.21086865799E+02 -0.11441370374E+02 -0.16011390107E+04  0.16013187355E+04  0.00000000000E+00 0. -1.
          1    1    1    2  502    0  0.18674186185E+01  0.21533521197E+03  0.16919651970E+03  0.27386164946E+03  0.00000000000E+00 0. -1.
         22    1    3    3    0    0  0.34163457570E+02 -0.16105306902E+03  0.16653895068E+03  0.23418038980E+03  0.00000000000E+00 0.  1.
         22    1    3    3    0    0 -0.14944010390E+02 -0.42840772578E+02  0.19161622639E+03  0.19691478730E+03  0.00000000000E+00 0.  1.
</event>
<event>
 7    1  0.4915160E-006  0.7399462E+02  0.7818608E-02  0.1362858E+00
          2   -1    0    0  502    0  0.00000000000E+00  0.00000000000E+00  0.14336982539E+04  0.14336982539E+04  0.00000000000E+00 0. -1.
          1   -1    0    0  501    0 -0.00000000000E+00 -0.00000000000E+00 -0.13211309184E+04  0.13211309184E+04  0.00000000000E+00 0. -1.
         25    2    1    2    0    0  0.56212260591E+02  0.31687472003E+02  0.28898278933E+03  0.32140315782E+03  0.12500009282E+03 0.  0.
          2    1    1    2  501    0  0.13779836529E+02 -0.63219000328E+02 -0.13028114188E+04  0.13044171567E+04  0.00000000000E+00 0. -1.
          1    1    1    2  502    0 -0.69992097120E+02  0.31531528325E+02  0.11263959649E+04  0.11290088577E+04  0.00000000000E+00 0. -1.
         22    1    3    3    0    0 -0.50765544840E+01  0.68675733997E+02  0.15077917935E+03  0.16576033534E+03  0.00000000000E+00 0. -1.
         22    1    3    3    0    0  0.61288815075E+02 -0.36988261995E+02  0.13820360998E+03  0.15564282248E+03  0.00000000000E+00 0. -1.
</event>
<event>
 7    1  0.4915160E-006  0.2913315E+03  0.7818608E-02  0.1232428E+00
          2   -1    0    0  502    0  0.00000000000E+00  0.00000000000E+00  0.26044107375E+04  0.26044107375E+04  0.00000000000E+00 0. -1.
          1   -1    0    0  501    0 -0.00000000000E+00 -0.00000000000E+00 -0.15116286730E+03  0.15116286730E+03  0.00000000000E+00 0. -1.
         25    2    1    2    0    0 -0.34020954485E+03  0.31804840648E+02  0.19290075641E+04  0.19630205929E+04  0.12500233397E+03 0.  0.
          2    1    1    2  501    0  0.28671397260E+03 -0.18577924010E+02  0.22936303162E+02  0.28822927566E+03  0.00000000000E+00 0. -1.
          1    1    1    2  502    0  0.53495572256E+02 -0.13226916638E+02  0.50130400293E+03  0.50432373623E+03  0.00000000000E+00 0. -1.
         22    1    3    3    0    0 -0.33314729332E+03  0.35196316779E+02  0.19255209416E+04  0.19544453936E+04  0.00000000000E+00 0.  1.
         22    1    3    3    0    0 -0.70622515374E+01 -0.33914761313E+01  0.34866224372E+01  0.85751993065E+01  0.00000000000E+00 0.  1.
</event>
<event>
 7    1  0.4915160E-006  0.4965321E+02  0.7818608E-02  0.1486596E+00
          2   -1    0    0  502    0  0.00000000000E+00  0.00000000000E+00  0.19012640775E+04  0.19012640775E+04  0.00000000000E+00 0. -1.
          1   -1    0    0  501    0 -0.00000000000E+00 -0.00000000000E+00 -0.59353567719E+02  0.59353567719E+02  0.00000000000E+00 0. -1.
         25    2    1    2    0    0 -0.79947690275E+02  0.24639899627E-01  0.29721990668E+03  0.33220324827E+03  0.12501076532E+03 0.  0.
          2    1    1    2  501    0  0.45913402161E+02 -0.15538230442E+02 -0.27533402926E+02  0.55745541346E+02  0.00000000000E+00 0. -1.
          1    1    1    2  502    0  0.34034288114E+02  0.15513590542E+02  0.15722240060E+04  0.15726688556E+04  0.00000000000E+00 0. -1.
         22    1    3    3    0    0 -0.85170444533E+02  0.11519405307E+02  0.30533102381E+03  0.31719668255E+03  0.00000000000E+00 0. -1.
         22    1    3    3    0    0  0.52227542577E+01 -0.11494765407E+02 -0.81111171252E+01  0.15006565724E+02  0.00000000000E+00 0. -1.
</event>
<event>
 7    1  0.4915160E-006  0.8825676E+02  0.7818608E-02  0.1425370E+00
          2   -1    0    0  502    0  0.00000000000E+00  0.00000000000E+00  0.20219985657E+03  0.20219985657E+03  0.00000000000E+00 0. -1.
          1   -1    0    0  501    0 -0.00000000000E+00 -0.00000000000E+00 -0.68154487644E+03  0.68154487644E+03  0.00000000000E+00 0. -1.
         25    2    1    2    0    0  0.16109246499E+02  0.58165634163E+02 -0.44804322905E+02  0.14585519560E+03  0.12499424751E+03 0.  0.
          2    1    1    2  501    0  0.17255098796E+02  0.28033934497E+02 -0.57161542165E+03  0.57256251204E+03  0.00000000000E+00 0. -1.
          1    1    1    2  502    0 -0.33364345294E+02 -0.86199568661E+02  0.13707472469E+03  0.16532702538E+03  0.00000000000E+00 0. -1.
         22    1    3    3    0    0 -0.52692253226E+02  0.34988859406E+02 -0.59994686883E+01  0.63534931000E+02  0.00000000000E+00 0. -1.
         22    1    3    3    0    0  0.68801499725E+02  0.23176774757E+02 -0.38804854217E+02  0.82320264597E+02  0.00000000000E+00 0. -1.
</event>
<event>
 7    1  0.4915160E-006  0.8702748E+02  0.7818608E-02  0.1389853E+00
          2   -1    0    0  502    0  0.00000000000E+00  0.00000000000E+00  0.32789816353E+02  0.32789816353E+02  0.00000000000E+00 0. -1.
          1   -1    0    0  501    0 -0.00000000000E+00 -0.00000000000E+00 -0.14018848172E+04  0.14018848172E+04  0.00000000000E+00 0. -1.
         25    2    1    2    0    0 -0.10684930155E+02  0.71936587302E+02 -0.31438466581E+03  0.34605135230E+03  0.12499912003E+03 0.  0.
          2    1    1    2  501    0  0.54767506919E+02 -0.71179166247E+02 -0.10373641719E+04  0.10412446296E+04  0.00000000000E+00 0. -1.
          1    1    1    2  502    0 -0.44082576764E+02 -0.75742105473E+00 -0.17346163199E+02  0.47378651717E+02  0.00000000000E+00 0. -1.
         22    1    3    3    0    0 -0.17708363836E+01 -0.34632332393E+02 -0.11062909251E+03  0.11593675180E+03  0.00000000000E+00 0. -1.
         22    1    3    3    0    0 -0.89140937713E+01  0.10656891969E+03 -0.20375557329E+03  0.23011460049E+03  0.00000000000E+00 0. -1.
</event>
<event>
 7    1  0.4915160E-006  0.9160869E+02  0.7818608E-02  0.1379283E+00
          2   -1    0    0  502    0  0.00000000000E+00  0.00000000000E+00  0.40698507311E+03  0.40698507311E+03  0.00000000000E+00 0. -1.
          1   -1    0    0  501    0 -0.00000000000E+00 -0.00000000000E+00 -0.15101877376E+04  0.15101877376E+04  0.00000000000E+00 0. -1.
         25    2    1    2    0    0  0.37307644964E+02  0.12610885846E+03  0.84786474891E+02  0.20027221875E+03  0.12499964288E+03 0.  0.
          2    1    1    2  501    0 -0.59631693327E+01 -0.45237023730E+02 -0.14449635296E+04  0.14456837654E+04  0.00000000000E+00 0. -1.
          1    1    1    2  502    0 -0.31344475631E+02 -0.80871834733E+02  0.25697439019E+03  0.27121682658E+03  0.00000000000E+00 0. -1.
         22    1    3    3    0    0  0.66806331020E+02  0.69616546287E+02  0.95374738378E+02  0.13566830913E+03  0.00000000000E+00 0.  1.
         22    1    3    3    0    0 -0.29498686056E+02  0.56492312176E+02 -0.10588263487E+02  0.64603909616E+02  0.00000000000E+00 0.  1.
</event>
<event>
 7    1  0.4915160E-006  0.7888502E+02  0.7818608E-02  0.1389291E+00
          2   -1    0    0  502    0  0.00000000000E+00  0.00000000000E+00  0.61114721562E+01  0.61114721562E+01  0.00000000000E+00 0. -1.
          1   -1    0    0  501    0 -0.00000000000E+00 -0.00000000000E+00 -0.34336752961E+04  0.34336752961E+04  0.00000000000E+00 0. -1.
         25    2    1    2    0    0  0.85919005973E+02 -0.26254333624E+02 -0.14779132601E+04  0.14859084532E+04  0.12499984452E+03 0.  0.
          2    1    1    2  501    0 -0.11814851484E+02  0.47410428718E+02 -0.95359502591E+03  0.95484596292E+03  0.00000000000E+00 0. -1.
          1    1    1    2  502    0 -0.74104154489E+02 -0.21156095094E+02 -0.99605553789E+03  0.99903235214E+03  0.00000000000E+00 0. -1.
         22    1    3    3    0    0  0.92570866295E+02 -0.19461642109E+02 -0.14712754722E+04  0.14743132761E+04  0.00000000000E+00 0.  1.
         22    1    3    3    0    0 -0.66518603223E+01 -0.67926915145E+01 -0.66377878768E+01  0.11595177086E+02  0.00000000000E+00 0.  1.
</event>
<event>
 7    1  0.4915160E-006  0.3197115E+02  0.7818608E-02  0.1609386E+00
          2   -1    0    0  502    0  0.00000000000E+00  0.00000000000E+00  0.22648072929E+04  0.22648072929E+04  0.00000000000E+00 0. -1.
          1   -1    0    0  501    0 -0.00000000000E+00 -0.00000000000E+00 -0.14323680580E+03  0.14323680580E+03  0.00000000000E+00 0. -1.
         25    2    1    2    0    0 -0.32745399876E+02  0.25907776582E+02  0.19383860190E+04  0.19428605808E+04  0.12499361516E+03 0.  0.
          2    1    1    2  501    0  0.18337715890E+01 -0.26245118788E+02 -0.13902602252E+03  0.14149347658E+03  0.00000000000E+00 0. -1.
          1    1    1    2  502    0  0.30911628287E+02  0.33734220632E+00  0.32221049063E+03  0.32369004130E+03  0.00000000000E+00 0. -1.
         22    1    3    3    0    0  0.38932310052E+02  0.35886538317E+02  0.11306406918E+04  0.11318798268E+04  0.00000000000E+00 0. -1.
         22    1    3    3    0    0 -0.71677709928E+02 -0.99787617358E+01  0.80774532721E+03  0.81098075404E+03  0.00000000000E+00 0. -1.
</event>
<event>
 7    1  0.4915160E-006  0.1212420E+03  0.7818608E-02  0.1262952E+00
          2   -1    0    0  502    0  0.00000000000E+00  0.00000000000E+00  0.21818670932E+04  0.21818670932E+04  0.00000000000E+00 0. -1.
          1   -1    0    0  501    0 -0.00000000000E+00 -0.00000000000E+00 -0.82929235367E+03  0.82929235367E+03  0.00000000000E+00 0. -1.
         25    2    1    2    0    0 -0.11242303636E+03 -0.46365860283E+02 -0.37484602375E+02  0.17837833420E+03  0.12500001038E+03 0.  0.
          2    1    1    2  501    0  0.11290442048E+03 -0.51130591714E+02 -0.71490029747E+03  0.72556473240E+03  0.00000000000E+00 0. -1.
          1    1    1    2  502    0 -0.48138412264E+00  0.97496451997E+02  0.21049596394E+04  0.21072163803E+04  0.00000000000E+00 0. -1.
         22    1    3    3    0    0  0.25854352240E+01 -0.56147952445E+01 -0.54794310355E+02  0.55141879259E+02  0.00000000000E+00 0.  1.
         22    1    3    3    0    0 -0.11500847158E+03 -0.40751065039E+02  0.17309707980E+02  0.12323645494E+03  0.00000000000E+00 0.  1.
</event>
<event>
 7    1  0.4915160E-006  0.2920558E+02  0.7818608E-02  0.1631419E+00
          2   -1    0    0  502    0  0.00000000000E+00  0.00000000000E+00  0.11404449076E+04  0.11404449076E+04  0.00000000000E+00 0. -1.
          1   -1    0    0  501    0 -0.00000000000E+00 -0.00000000000E+00 -0.15073360531E+03  0.15073360531E+03  0.00000000000E+00 0. -1.
         25    2    1    2    0    0  0.36311986589E+02 -0.34871575883E+02  0.89288503126E+03  0.90299713848E+03  0.12500226351E+03 0.  0.
          2    1    1    2  501    0 -0.21770686213E+02  0.12910846542E+02 -0.14385422599E+03  0.14606399649E+03  0.00000000000E+00 0. -1.
          1    1    1    2  502    0 -0.14541300376E+02  0.21960729341E+02  0.24068049697E+03  0.24211737788E+03  0.00000000000E+00 0. -1.
         22    1    3    3    0    0  0.63238034471E+01  0.61657480535E+01  0.76953665192E+03  0.76958733461E+03  0.00000000000E+00 0.  1.
         22    1    3    3    0    0  0.29988183142E+02 -0.41037323936E+02  0.12334837934E+03  0.13340980387E+03  0.00000000000E+00 0.  1.
</event>
<event>
 7    1  0.4915160E-006  0.1201773E+03  0.7818608E-02  0.1376985E+00
          2   -1    0    0  502    0  0.00000000000E+00  0.00000000000E+00  0.90202664166E+03  0.90202664166E+03  0.00000000000E+00 0. -1.
          1   -1    0    0  501    0 -0.00000000000E+00 -0.00000000000E+00 -0.49449221591E+03  0.49449221591E+03  0.00000000000E+00 0. -1.
         25    2    1    2    0    0 -0.50299253743E+02 -0.98910926847E+02 -0.14449894246E+02  0.16776447870E+03  0.12499093765E+03 0.  0.
          2    1    1    2  501    0  0.21698262970E+02  0.11984139995E+03 -0.39379880607E+03  0.41220174117E+03  0.00000000000E+00 0. -1.
          1    1    1    2  502    0  0.28600990773E+02 -0.20930473104E+02  0.81578312606E+03  0.81655263771E+03  0.00000000000E+00 0. -1.
         22    1    3    3    0    0 -0.25155141831E+02 -0.24393699175E+02  0.53417397933E+02  0.63884678303E+02  0.00000000000E+00 0. -1.
         22    1    3    3    0    0 -0.25144111913E+02 -0.74517227672E+02 -0.67867292179E+02  0.10387980040E+03  0.00000000000E+00 0. -1.
</event>
<event>
 7    1  0.4915160E-006  0.1257651E+03  0.7818608E-02  0.1402491E+00
          2   -1    0    0  502    0  0.00000000000E+00  0.00000000000E+00  0.10811177633E+04  0.10811177633E+04  0.00000000000E+00 0. -1.
          1   -1    0    0  501    0 -0.00000000000E+00 -0.00000000000E+00 -0.32030103053E+02  0.32030103053E+02  0.00000000000E+00 0. -1.
         25    2    1    2    0    0  0.14130073001E+03  0.32656604931E+02  0.53879586703E+03  0.57180280793E+03  0.12500045872E+03 0.  0.
          2    1    1    2  501    0 -0.11385302944E+03 -0.29874545248E+02  0.21794540768E+03  0.24769982134E+03  0.00000000000E+00 0. -1.
          1    1    1    2  502    0 -0.27447700565E+02 -0.27820596828E+01  0.29234638555E+03  0.29364523709E+03  0.00000000000E+00 0. -1.
         22    1    3    3    0    0  0.54473484941E+02 -0.47594575148E+02  0.17837332869E+03  0.19248285257E+03  0.00000000000E+00 0. -1.
         22    1    3    3    0    0  0.86827245065E+02  0.80251180079E+02  0.36042253834E+03  0.37931995536E+03  0.00000000000E+00 0. -1.
</event>
<event>
 7    1  0.4915160E-006  0.1679811E+03  0.7818608E-02  0.1297071E+00
          2   -1    0    0  502    0  0.00000000000E+00  0.00000000000E+00  0.26170591478E+04  0.26170591478E+04  0.00000000000E+00 0. -1.
          1   -1    0    0  501    0 -0.00000000000E+00 -0.00000000000E+00 -0.33897612733E+04  0.33897612733E+04  0.00000000000E+00 0. -1.
         25    2    1    2    0    0  0.21638276162E+03  0.29065255340E+02 -0.21126519712E+03  0.32852017672E+03  0.12500493749E+03 0.  0.
          2    1    1    2  501    0 -0.50343679565E+02 -0.72208858319E+01 -0.31169203502E+04  0.31173352558E+04  0.00000000000E+00 0. -1.
          1    1    1    2  502    0 -0.16603908206E+03 -0.21844369508E+02  0.25554834219E+04  0.25609649886E+04  0.00000000000E+00 0. -1.
         22    1    3    3    0    0  0.22443965497E+03  0.48629006786E+02 -0.20011223785E+03  0.30460276880E+03  0.00000000000E+00 0. -1.
         22    1    3    3    0    0 -0.80568933415E+01 -0.19563751446E+02 -0.11152959271E+02  0.23917407917E+02  0.00000000000E+00 0. -1.
</event>
<event>
 7    1  0.4915160E-006  0.4691709E+02  0.7818608E-02  0.1463347E+00
          2   -1    0    0  502    0  0.00000000000E+00  0.00000000000E+00  0.41846701240E+03  0.41846701240E+03  0.00000000000E+00 0. -1.
          1   -1    0    0  501    0 -0.00000000000E+00 -0.00000000000E+00 -0.31521184419E+03  0.31521184419E+03  0.00000000000E+00 0. -1.
         25    2    1    2    0    0  0.91650694521E+00  0.62952311294E+00 -0.60721708921E+02  0.13897199697E+03  0.12499941489E+03 0.  0.
          2    1    1    2  501    0  0.46691550232E+02 -0.10676215277E+01 -0.21131119810E+03  0.21641086646E+03  0.00000000000E+00 0. -1.
          1    1    1    2  502    0 -0.47608057177E+02  0.43809841473E+00  0.37528807522E+03  0.37829599316E+03  0.00000000000E+00 0. -1.
         22    1    3    3    0    0  0.25580510719E+02 -0.48867413901E+02  0.22004745056E+01  0.55201709739E+02  0.00000000000E+00 0. -1.
         22    1    3    3    0    0 -0.24664003774E+02  0.49496937014E+02 -0.62922183426E+02  0.83770287233E+02  0.00000000000E+00 0. -1.
</event>
<event>
 7    1  0.4915160E-006  0.7276235E+02  0.7818608E-02  0.1363612E+00
          2   -1    0    0  502    0  0.00000000000E+00  0.00000000000E+00  0.39547793538E+03  0.39547793538E+03  0.00000000000E+00 0. -1.
          1   -1    0    0  501    0 -0.00000000000E+00 -0.00000000000E+00 -0.70722928398E+02  0.70722928398E+02  0.00000000000E+00 0. -1.
         25    2    1    2    0    0  0.99847446838E+02 -0.26326808123E+02  0.13616418913E+03  0.21172643203E+03  0.12499912860E+03 0.  0.
          2    1    1    2  501    0 -0.35396086097E+02  0.54976510228E+02  0.14975266685E+02  0.67078746263E+02  0.00000000000E+00 0. -1.
          1    1    1    2  502    0 -0.64451360741E+02 -0.28649702105E+02  0.17361555116E+03  0.18739568548E+03  0.00000000000E+00 0. -1.
         22    1    3    3    0    0  0.45104518242E+02  0.49439125114E+02  0.72302357257E+02  0.98520432007E+02  0.00000000000E+00 0. -1.
         22    1    3    3    0    0  0.54742928595E+02 -0.75765933237E+02  0.63861831871E+02  0.11320600002E+03  0.00000000000E+00 0. -1.
</event>
<event>
 7    1  0.4915160E-006  0.1565268E+03  0.7818608E-02  0.1290694E+00
          2   -1    0    0  502    0  0.00000000000E+00  0.00000000000E+00  0.13823245556E+04  0.13823245556E+04  0.00000000000E+00 0. -1.
          1   -1    0    0  501    0 -0.00000000000E+00 -0.00000000000E+00 -0.17945136257E+03  0.17945136257E+03  0.00000000000E+00 0. -1.
         25    2    1    2    0    0 -0.99752705767E+02 -0.18501940026E+03  0.10545051713E+03  0.26632062197E+03  0.12499632533E+03 0.  0.
          2    1    1    2  501    0  0.35080248588E+02  0.46085734015E+02 -0.85157434709E+02  0.10298692833E+03  0.00000000000E+00 0. -1.
          1    1    1    2  502    0  0.64672457179E+02  0.13893366624E+03  0.11825801106E+04  0.11924683679E+04  0.00000000000E+00 0. -1.
         22    1    3    3    0    0 -0.28134226700E+02 -0.10166916698E+01  0.56145754350E+02  0.62808551214E+02  0.00000000000E+00 0.  1.
         22    1    3    3    0    0 -0.71618479067E+02 -0.18400270859E+03  0.49304762777E+02  0.20351207076E+03  0.00000000000E+00 0.  1.
</event>
<event>
 7    1  0.4915160E-006  0.1037076E+03  0.7818608E-02  0.1312184E+00
          2   -1    0    0  502    0  0.00000000000E+00  0.00000000000E+00  0.27216018559E+03  0.27216018559E+03  0.00000000000E+00 0. -1.
          1   -1    0    0  501    0 -0.00000000000E+00 -0.00000000000E+00 -0.16285469138E+04  0.16285469138E+04  0.00000000000E+00 0. -1.
         25    2    1    2    0    0 -0.16913436999E+03  0.39644195935E+02 -0.85282668875E+02  0.23038253826E+03  0.12499953178E+03 0.  0.
          2    1    1    2  501    0  0.99544615647E+02 -0.22217186617E+02 -0.14624346698E+04  0.14659870044E+04  0.00000000000E+00 0. -1.
          1    1    1    2  502    0  0.69589754338E+02 -0.17427009318E+02  0.19133061045E+03  0.20433755665E+03  0.00000000000E+00 0. -1.
         22    1    3    3    0    0 -0.15843352195E+03  0.29828473822E+02 -0.11451055869E+03  0.19774626868E+03  0.00000000000E+00 0. -1.
         22    1    3    3    0    0 -0.10700848035E+02  0.98157221129E+01  0.29227889811E+02  0.32636269579E+02  0.00000000000E+00 0. -1.
</event>
<event>
 7    1  0.4915160E-006  0.2363096E+02  0.7818608E-02  0.1698571E+00
          2   -1    0    0  502    0  0.00000000000E+00  0.00000000000E+00  0.10195899623E+04  0.10195899623E+04  0.00000000000E+00 0. -1.
          1   -1    0    0  501    0 -0.00000000000E+00 -0.00000000000E+00 -0.37921280653E+03  0.37921280653E+03  0.00000000000E+00 0. -1.
         25    2    1    2    0    0  0.13970207094E+02 -0.76296665862E+01  0.67644221225E+03  0.68807873498E+03  0.12499960203E+03 0.  0.
          2    1    1    2  501    0  0.74104049720E+01  0.20243562780E+02 -0.37262589342E+03  0.37324894157E+03  0.00000000000E+00 0. -1.
          1    1    1    2  502    0 -0.21380612066E+02 -0.12613896193E+02  0.33656083695E+03  0.33747509230E+03  0.00000000000E+00 0. -1.
         22    1    3    3    0    0 -0.16527903981E+02 -0.47624328264E+02  0.13167898815E+03  0.14099859635E+03  0.00000000000E+00 0.  1.
         22    1    3    3    0    0  0.30498111075E+02  0.39994661678E+02  0.54476322410E+03  0.54708013862E+03  0.00000000000E+00 0.  1.
</event>
<event>
 7    1  0.4915160E-006  0.1223727E+03  0.7818608E-02  0.1312600E+00
          2   -1    0    0  502    0  0.00000000000E+00  0.00000000000E+00  0.44980795660E+03  0.44980795660E+03  0.00000000000E+00 0. -1.
          1   -1    0    0  501    0 -0.00000000000E+00 -0.00000000000E+00 -0.35093716735E+03  0.35093716735E+03  0.00000000000E+00 0. -1.
         25    2    1    2    0    0 -0.14297567007E+03  0.10869459088E+03  0.17430429723E+03  0.27975769734E+03  0.12500329942E+03 0.  0.
          2    1    1    2  501    0  0.97852391697E+02 -0.68291526595E+02 -0.28174319584E+03  0.30597067109E+03  0.00000000000E+00 0. -1.
          1    1    1    2  502    0  0.45123278369E+02 -0.40403064287E+02  0.20630968786E+03  0.21501675553E+03  0.00000000000E+00 0. -1.
         22    1    3    3    0    0 -0.12933986152E+03  0.37857163992E+02  0.15436288315E+03  0.20491428534E+03  0.00000000000E+00 0. -1.
         22    1    3    3    0    0 -0.13635808543E+02  0.70837426890E+02  0.19941414087E+02  0.74843411994E+02  0.00000000000E+00 0. -1.
</event>
<event>
 7    1  0.4915160E-006  0.5119342E+02  0.7818608E-02  0.1573835E+00
          2   -1    0    0  502    0  0.00000000000E+00  0.00000000000E+00  0.24880264210E+04  0.24880264210E+04  0.00000000000E+00 0. -1.
          1   -1    0    0  501    0 -0.00000000000E+00 -0.00000000000E+00 -0.54177393145E+03  0.54177393145E+03  0.00000000000E+00 0. -1.
         25    2    1    2    0    0 -0.23770568962E+02  0.45696276205E+02  0.95904850350E+03  0.96853127131E+03  0.12500240735E+03 0.  0.
          2    1    1    2  501    0  0.19601780898E+02  0.56397265816E+01 -0.53640356428E+03  0.53679122580E+03  0.00000000000E+00 0. -1.
          1    1    1    2  502    0  0.41687880643E+01 -0.51336002787E+02  0.15236075504E+04  0.15244778554E+04  0.00000000000E+00 0. -1.
         22    1    3    3    0    0 -0.43961121525E+02  0.35614044952E+02  0.17014306532E+03  0.17930310393E+03  0.00000000000E+00 0.  1.
         22    1    3    3    0    0  0.20190552563E+02  0.10082231253E+02  0.78890543817E+03  0.78922816738E+03  0.00000000000E+00 0.  1.
</event>
<event>
 7    1  0.4915160E-006  0.7653387E+02  0.7818608E-02  0.1453958E+00
          2   -1    0    0  502    0  0.00000000000E+00  0.00000000000E+00  0.31897870213E+04  0.31897870213E+04  0.00000000000E+00 0. -1.
          1   -1    0    0  501    0 -0.00000000000E+00 -0.00000000000E+00 -0.64240468504E+02  0.64240468504E+02  0.00000000000E+00 0. -1.
         25    2    1    2    0    0 -0.74111946627E+02 -0.11013877427E+02  0.85738827011E+03  0.86968626711E+03  0.12500268531E+03 0.  0.
          2    1    1    2  501    0 -0.62978117994E+00  0.30648704482E+02 -0.53359066073E+02  0.61538034117E+02  0.00000000000E+00 0. -1.
          1    1    1    2  502    0  0.74741727807E+02 -0.19634827055E+02  0.23215173488E+04  0.23228031886E+04  0.00000000000E+00 0. -1.
         22    1    3    3    0    0 -0.10345724596E+03 -0.32663946971E+02  0.67846559048E+03  0.68708506944E+03  0.00000000000E+00 0.  1.
         22    1    3    3    0    0  0.29345299332E+02  0.21650069545E+02  0.17892267963E+03  0.18260119767E+03  0.00000000000E+00 0.  1.
</event>
<event>
 7    1  0.4915160E-006  0.1091048E+03  0.7818608E-02  0.1283273E+00
          2   -1    0    0  502    0  0.00000000000E+00  0.00000000000E+00  0.33549476495E+03  0.33549476495E+03  0.00000000000E+00 0. -1.
          1   -1    0    0  501    0 -0.00000000000E+00 -0.00000000000E+00 -0.96284324785E+03  0.96284324785E+03  0.00000000000E+00 0. -1.
         25    2    1    2    0    0 -0.43436436383E+02 -0.60696186453E+01 -0.43986438030E+02  0.13958183269E+03  0.12499886803E+03 0.  0.
          2    1    1    2  501    0 -0.38771096972E+02 -0.80224508921E+02 -0.85630401100E+03  0.86092724957E+03  0.00000000000E+00 0. -1.
          1    1    1    2  502    0  0.82207533355E+02  0.86294127566E+02  0.27294196614E+03  0.29782893055E+03  0.00000000000E+00 0. -1.
         22    1    3    3    0    0 -0.19801463901E+02  0.46710176783E+02  0.18906847236E+02  0.54142473716E+02  0.00000000000E+00 0.  1.
         22    1    3    3    0    0 -0.23634972482E+02 -0.52779795428E+02 -0.62893285267E+02  0.85439358971E+02  0.00000000000E+00 0.  1.
</event>
<event>
 7    1  0.4915160E-006  0.8893440E+02  0.7818608E-02  0.1375913E+00
          2   -1    0    0  502    0  0.00000000000E+00  0.00000000000E+00  0.80877933589E+03  0.80877933589E+03  0.00000000000E+00 0. -1.
          1   -1    0    0  501    0 -0.00000000000E+00 -0.00000000000E+00 -0.17294938217E+03  0.17294938217E+03  0.00000000000E+00 0. -1.
         25    2    1    2    0    0  0.55227176554E+02 -0.71424535101E+02  0.17875140651E+03  0.23606836288E+03  0.12499880551E+03 0.  0.
          2    1    1    2  501    0 -0.44785858340E+02 -0.18125931784E+02 -0.13674623712E+03  0.14503053429E+03  0.00000000000E+00 0. -1.
          1    1    1    2  502    0 -0.10441318213E+02  0.89550466885E+02  0.59382478434E+03  0.60062982089E+03  0.00000000000E+00 0. -1.
         22    1    3    3    0    0 -0.17561347071E+02 -0.69436908701E+02  0.13004632092E+03  0.14846525111E+03  0.00000000000E+00 0. -1.
         22    1    3    3    0    0  0.72788523624E+02 -0.19876263998E+01  0.48705085587E+02  0.87603111772E+02  0.00000000000E+00 0. -1.
</event>
<event>
 7    1  0.4915160E-006  0.7945700E+02  0.7818608E-02  0.1335311E+00
          2   -1    0    0  502    0  0.00000000000E+00  0.00000000000E+00  0.67265818011E+03  0.67265818011E+03  0.00000000000E+00 0. -1.
          1   -1    0    0  501    0 -0.00000000000E+00 -0.00000000000E+00 -0.18840554095E+04  0.18840554095E+04  0.00000000000E+00 0. -1.
         25    2    1    2    0    0  0.10267236781E+03 -0.11488933123E+03 -0.17234621692E+03  0.26280944162E+03  0.12499764229E+03 0.  0.
          2    1    1    2  501    0 -0.54143472749E+02  0.56081841921E+02 -0.16632449711E+04  0.16650707260E+04  0.00000000000E+00 0. -1.
          1    1    1    2  502    0 -0.48528895056E+02  0.58807489310E+02  0.62419395871E+03  0.62883342193E+03  0.00000000000E+00 0. -1.
         22    1    3    3    0    0  0.68018757003E+02  0.72785509037E+01 -0.39320530647E+02  0.78902678902E+02  0.00000000000E+00 0.  1.
         22    1    3    3    0    0  0.34653610802E+02 -0.12216788213E+03 -0.13302568627E+03  0.18390676272E+03  0.00000000000E+00 0.  1.
</event>
<event>
 7    1  0.4915160E-006  0.3791925E+02  0.7818608E-02  0.1538571E+00
          2   -1    0    0  502    0  0.00000000000E+00  0.00000000000E+00  0.14092942617E+04  0.14092942617E+04  0.00000000000E+00 0. -1.
          1   -1    0    0  501    0 -0.00000000000E+00 -0.00000000000E+00 -0.52224807900E+03  0.52224807900E+03  0.00000000000E+00 0. -1.
         25    2    1    2    0    0 -0.42159277780E+02  0.27566100737E+02  0.47868086201E+02  0.14301154464E+03  0.12499461433E+03 0.  0.
          2    1    1    2  501    0  0.89598950171E+01 -0.36854070819E+02 -0.47369209425E+03  0.47520806224E+03  0.00000000000E+00 0. -1.
          1    1    1    2  502    0  0.33199382763E+02  0.92879700825E+01  0.13128701907E+04  0.13133227338E+04  0.00000000000E+00 0. -1.
         22    1    3    3    0    0  0.47077519210E+01  0.70220306698E+02  0.16427796061E+02  0.72269820010E+02  0.00000000000E+00 0. -1.
         22    1    3    3    0    0 -0.46867029701E+02 -0.42654205962E+02  0.31440290140E+02  0.70741724627E+02  0.00000000000E+00 0. -1.
</event>
<event>
 7    1  0.4915160E-006  0.7052623E+02  0.7818608E-02  0.1366657E+00
          2   -1    0    0  502    0  0.00000000000E+00  0.00000000000E+00  0.64035401343E+03  0.64035401343E+03  0.00000000000E+00 0. -1.
          1   -1    0    0  501    0 -0.00000000000E+00 -0.00000000000E+00 -0.47206815625E+02  0.47206815625E+02  0.00000000000E+00 0. -1.
         25    2    1    2    0    0  0.25468184745E+02  0.60286284315E+00  0.82199443502E+02  0.15174282227E+03  0.12498057338E+03 0.  0.
          2    1    1    2  501    0  0.15438143114E+02  0.63929750671E+02  0.11423202765E+03  0.13181162856E+03  0.00000000000E+00 0. -1.
          1    1    1    2  502    0 -0.40906327859E+02 -0.64532613514E+02  0.39671572665E+03  0.40400637821E+03  0.00000000000E+00 0. -1.
         22    1    3    3    0    0  0.40817166034E+01 -0.56202162860E+02  0.96826248692E+01  0.57176015469E+02  0.00000000000E+00 0. -1.
         22    1    3    3    0    0  0.21386468141E+02  0.56805025703E+02  0.72516818633E+02  0.94566806805E+02  0.00000000000E+00 0. -1.
</event>
<event>
 7    1  0.4915160E-006  0.1625764E+03  0.7818608E-02  0.1235028E+00
          2   -1    0    0  502    0  0.00000000000E+00  0.00000000000E+00  0.58301029349E+03  0.58301029349E+03  0.00000000000E+00 0. -1.
          1   -1    0    0  501    0 -0.00000000000E+00 -0.00000000000E+00 -0.24968701541E+03  0.24968701541E+03  0.00000000000E+00 0. -1.
         25    2    1    2    0    0  0.16852827476E+02  0.80347719365E+02 -0.13413025317E+02  0.15015004867E+03  0.12500141626E+03 0.  0.
          2    1    1    2  501    0  0.22565409237E+02  0.93463876165E+02 -0.13680090496E+03  0.16720999204E+03  0.00000000000E+00 0. -1.
          1    1    1    2  502    0 -0.39418236714E+02 -0.17381159553E+03  0.48353720835E+03  0.51533726819E+03  0.00000000000E+00 0. -1.
         22    1    3    3    0    0  0.53304002795E+02  0.25782892385E+01 -0.32066915386E+02  0.62259548277E+02  0.00000000000E+00 0.  1.
         22    1    3    3    0    0 -0.36451175318E+02  0.77769430127E+02  0.18653890069E+02  0.87890500391E+02  0.00000000000E+00 0.  1.
</event>
<event>
 7    1  0.4915160E-006  0.1282971E+03  0.7818608E-02  0.1296323E+00
          2   -1    0    0  502    0  0.00000000000E+00  0.00000000000E+00  0.81448387163E+03  0.81448387163E+03  0.00000000000E+00 0. -1.
          1   -1    0    0  501    0 -0.00000000000E+00 -0.00000000000E+00 -0.26089689509E+03  0.26089689509E+03  0.00000000000E+00 0. -1.
         25    2    1    2    0    0  0.11722605814E+02 -0.83801297107E+02  0.20268291169E+03  0.25271662862E+03  0.12500101922E+03 0.  0.
          2    1    1    2  501    0 -0.29960140655E+02 -0.59988086510E+02 -0.22189839218E+03  0.23180827639E+03  0.00000000000E+00 0. -1.
          1    1    1    2  502    0  0.18237534841E+02  0.14378938362E+03  0.57280245704E+03  0.59085586170E+03  0.00000000000E+00 0. -1.
         22    1    3    3    0    0 -0.29882417037E+02 -0.99725418969E+02  0.12055632657E+03  0.15928573669E+03  0.00000000000E+00 0.  1.
         22    1    3    3    0    0  0.41605022851E+02  0.15924121862E+02  0.82126585124E+02  0.93430891934E+02  0.00000000000E+00 0.  1.
</event>
<event>
 7    1  0.4915160E-006  0.1815097E+03  0.7818608E-02  0.1194231E+00
          2   -1    0    0  502    0  0.00000000000E+00  0.00000000000E+00  0.43964150765E+03  0.43964150765E+03  0.00000000000E+00 0. -1.
          1   -1    0    0  501    0 -0.00000000000E+00 -0.00000000000E+00 -0.10797204263E+04  0.10797204263E+04  0.00000000000E+00 0. -1.
         25    2    1    2    0    0 -0.10082671486E+03 -0.85029889538E+02  0.15447241790E+03  0.23850406524E+03  0.12500541067E+03 0.  0.
          2    1    1    2  501    0  0.13360473113E+02  0.18481852929E+03 -0.10105264766E+04  0.10273753700E+04  0.00000000000E+00 0. -1.
          1    1    1    2  502    0  0.87466241750E+02 -0.99788639757E+02  0.21597514000E+03  0.25348249874E+03  0.00000000000E+00 0. -1.
         22    1    3    3    0    0 -0.97028938435E+02 -0.70545838611E+02  0.45178244804E+02  0.12818893885E+03  0.00000000000E+00 0. -1.
         22    1    3    3    0    0 -0.37977764281E+01 -0.14484050927E+02  0.10929417310E+03  0.11031512639E+03  0.00000000000E+00 0. -1.
</event>
<event>
 7    1  0.4915160E-006  0.1180272E+03  0.7818608E-02  0.1309733E+00
          2   -1    0    0  502    0  0.00000000000E+00  0.00000000000E+00  0.10370125920E+04  0.10370125920E+04  0.00000000000E+00 0. -1.
          1   -1    0    0  501    0 -0.00000000000E+00 -0.00000000000E+00 -0.12358510856E+03  0.12358510856E+03  0.00000000000E+00 0. -1.
         25    2    1    2    0    0 -0.15990623450E+03  0.23343862721E+02  0.35499048384E+03  0.40957939965E+03  0.12498840445E+03 0.  0.
          2    1    1    2  501    0  0.49912750653E+02 -0.40774776833E+02 -0.80118464101E+02  0.10282428406E+03  0.00000000000E+00 0. -1.
          1    1    1    2  502    0  0.10999348384E+03  0.17430914112E+02  0.63855546374E+03  0.64819401688E+03  0.00000000000E+00 0. -1.
         22    1    3    3    0    0 -0.12145414982E+03  0.69961947310E+02  0.20977743755E+03  0.25229418916E+03  0.00000000000E+00 0. -1.
         22    1    3    3    0    0 -0.38452084674E+02 -0.46618084589E+02  0.14521304629E+03  0.15728521049E+03  0.00000000000E+00 0. -1.
</event>
<event>
 7    1  0.4915160E-006  0.1710281E+03  0.7818608E-02  0.1287184E+00
          2   -1    0    0  502    0  0.00000000000E+00  0.00000000000E+00  0.12739345340E+04  0.12739345340E+04  0.00000000000E+00 0. -1.
          1   -1    0    0  501    0 -0.00000000000E+00 -0.00000000000E+00 -0.10864164137E+04  0.10864164137E+04  0.00000000000E+00 0. -1.
         25    2    1    2    0    0  0.98353343817E+02 -0.81807418184E+02 -0.48255586494E+02  0.18525451318E+03  0.12499919646E+03 0.  0.
          2    1    1    2  501    0 -0.15279532647E+03  0.87900530860E+02 -0.96101833598E+03  0.97705125618E+03  0.00000000000E+00 0. -1.
          1    1    1    2  502    0  0.54441982652E+02 -0.60931126756E+01  0.11967920428E+04  0.11980451783E+04  0.00000000000E+00 0. -1.
         22    1    3    3    0    0 -0.17174623292E+00 -0.57322706893E+02 -0.60088361574E+02  0.83045369642E+02  0.00000000000E+00 0.  1.
         22    1    3    3    0    0  0.98525090050E+02 -0.24484711291E+02  0.11832775080E+02  0.10220914354E+03  0.00000000000E+00 0.  1.
</event>
<event>
 7    1  0.4915160E-006  0.3575196E+03  0.7818608E-02  0.1196118E+00
          2   -1    0    0  502    0  0.00000000000E+00  0.00000000000E+00  0.17293499338E+04  0.17293499338E+04  0.00000000000E+00 0. -1.
          1   -1    0    0  501    0 -0.00000000000E+00 -0.00000000000E+00 -0.14625268754E+04  0.14625268754E+04  0.00000000000E+00 0. -1.
         25    2    1    2    0    0  0.36546113967E+03 -0.18131194165E+03  0.32120303986E+03  0.53407187366E+03  0.12500203449E+03 0.  0.
          2    1    1    2  501    0 -0.65589243760E+02  0.72660050721E+01 -0.13321733557E+04  0.13338068051E+04  0.00000000000E+00 0. -1.
          1    1    1    2  502    0 -0.29987189591E+03  0.17404593658E+03  0.12777933743E+04  0.13239981304E+04  0.00000000000E+00 0. -1.
         22    1    3    3    0    0  0.29041426537E+03 -0.18939609416E+03  0.29144530544E+03  0.45293674180E+03  0.00000000000E+00 0. -1.
         22    1    3    3    0    0  0.75046874301E+02  0.80841525045E+01  0.29757734426E+02  0.81135131862E+02  0.00000000000E+00 0. -1.
</event>
<event>
 7    1  0.4915160E-006  0.1708924E+03  0.7818608E-02  0.1208274E+00
          2   -1    0    0  502    0  0.00000000000E+00  0.00000000000E+00  0.23828845673E+03  0.23828845673E+03  0.00000000000E+00 0. -1.
          1   -1    0    0  501    0 -0.00000000000E+00 -0.00000000000E+00 -0.18372687250E+04  0.18372687250E+04  0.00000000000E+00 0. -1.
         25    2    1    2    0    0  0.24037097147E+03 -0.13589968540E+03 -0.88237517949E+03  0.93298335721E+03  0.12500023614E+03 0.  0.
          2    1    1    2  501    0 -0.79015323884E+02  0.91695976859E+02 -0.89200488002E+03  0.90018013728E+03  0.00000000000E+00 0. -1.
          1    1    1    2  502    0 -0.16135564758E+03  0.44203708539E+02  0.17539979123E+03  0.24239368725E+03  0.00000000000E+00 0. -1.
         22    1    3    3    0    0  0.94732995778E+02 -0.30033825284E+02 -0.15871925790E+03  0.18726498332E+03  0.00000000000E+00 0. -1.
         22    1    3    3    0    0  0.14563797569E+03 -0.10586586011E+03 -0.72365592159E+03  0.74571837389E+03  0.00000000000E+00 0. -1.
</event>
<event>
 7    1  0.1069271E-005  0.9220861E+02  0.7818608E-02  0.1299649E+00
          2   -1    0    0  502    0  0.00000000000E+00  0.00000000000E+00  0.94434369878E+03  0.94434369878E+03  0.00000000000E+00 0. -1.
          1   -1    0    0  501    0 -0.00000000000E+00 -0.00000000000E+00 -0.19875563824E+04  0.19875563824E+04  0.00000000000E+00 0. -1.
         25    2    1    2    0    0 -0.11920734448E+03 -0.14649876887E+02 -0.32077332828E+03  0.36461679454E+03  0.12499947540E+03 0.  0.
          2    1    1    2  501    0  0.52919756116E+02  0.76220527813E+02 -0.16413294218E+04  0.16439502244E+04  0.00000000000E+00 0. -1.
          1    1    1    2  502    0  0.66287588368E+02 -0.61570650926E+02  0.91889006651E+03  0.92333306220E+03  0.00000000000E+00 0. -1.
         22    1    3    3    0    0 -0.11994071420E+02  0.29690774294E+02 -0.17698177099E+03  0.17985535046E+03  0.00000000000E+00 0. -1.
         22    1    3    3    0    0 -0.10721327306E+03 -0.44340651181E+02 -0.14379155729E+03  0.18476144408E+03  0.00000000000E+00 0. -1.
</event>
<event>
 7    1  0.4915160E-006  0.7094949E+02  0.7818608E-02  0.1434911E+00
          2   -1    0    0  502    0  0.00000000000E+00  0.00000000000E+00  0.61532558100E+03  0.61532558100E+03  0.00000000000E+00 0. -1.
          1   -1    0    0  501    0 -0.00000000000E+00 -0.00000000000E+00 -0.51097448370E+02  0.51097448370E+02  0.00000000000E+00 0. -1.
         25    2    1    2    0    0  0.95133604901E+02 -0.91707880374E+01  0.36096925405E+03  0.39377432076E+03  0.12499962875E+03 0.  0.
          2    1    1    2  501    0 -0.31535029387E+02  0.21367093288E+02 -0.17983501655E+02  0.42123830379E+02  0.00000000000E+00 0. -1.
          1    1    1    2  502    0 -0.63598575514E+02 -0.12196305251E+02  0.22124238024E+03  0.23052487823E+03  0.00000000000E+00 0. -1.
         22    1    3    3    0    0  0.11947454323E+03 -0.21632779101E+00  0.21913614633E+03  0.24958939061E+03  0.00000000000E+00 0. -1.
         22    1    3    3    0    0 -0.24340938330E+02 -0.89544602464E+01  0.14183310772E+03  0.14418493015E+03  0.00000000000E+00 0. -1.
</event>
<event>
 7    1  0.4915160E-006  0.7075219E+02  0.7818608E-02  0.1385043E+00
          2   -1    0    0  502    0  0.00000000000E+00  0.00000000000E+00  0.24204118408E+03  0.24204118408E+03  0.00000000000E+00 0. -1.
          1   -1    0    0  501    0 -0.00000000000E+00 -0.00000000000E+00 -0.74619829445E+03  0.74619829445E+03  0.00000000000E+00 0. -1.
         25    2    1    2    0    0  0.53298382883E+02  0.28276590155E+02  0.11647981187E+03  0.18118144628E+03  0.12497554454E+03 0.  0.
          2    1    1    2  501    0 -0.14902139513E+02 -0.69556550269E+02 -0.70336165644E+03  0.70694964969E+03  0.00000000000E+00 0. -1.
          1    1    1    2  502    0 -0.38396243371E+02  0.41279960115E+02  0.82724734200E+02  0.10010838257E+03  0.00000000000E+00 0. -1.
         22    1    3    3    0    0  0.22513822082E+02 -0.49904082655E+02  0.45087520081E+02  0.70923720414E+02  0.00000000000E+00 0. -1.
         22    1    3    3    0    0  0.30784560801E+02  0.78180672810E+02  0.71392291793E+02  0.11025772586E+03  0.00000000000E+00 0. -1.
</event>
<event>
 7    1  0.4915160E-006  0.1088415E+03  0.7818608E-02  0.1452799E+00
          2   -1    0    0  502    0  0.00000000000E+00  0.00000000000E+00  0.19984117020E+03  0.19984117020E+03  0.00000000000E+00 0. -1.
          1   -1    0    0  501    0 -0.00000000000E+00 -0.00000000000E+00 -0.17252571818E+04  0.17252571818E+04  0.00000000000E+00 0. -1.
         25    2    1    2    0    0 -0.10244679921E+03  0.38913263722E+02 -0.15160783845E+03  0.22498654234E+03  0.12499767515E+03 0.  0.
          2    1    1    2  501    0  0.10745313530E+03 -0.17757924054E+02 -0.15342968300E+04  0.15381574310E+04  0.00000000000E+00 0. -1.
          1    1    1    2  502    0 -0.50063360913E+01 -0.21155339669E+02  0.16048865681E+03  0.16195437865E+03  0.00000000000E+00 0. -1.
         22    1    3    3    0    0  0.20236993154E+02  0.17420747161E+02  0.25226933349E+01  0.26821303198E+02  0.00000000000E+00 0.  1.
         22    1    3    3    0    0 -0.12268379236E+03  0.21492516561E+02 -0.15413053178E+03  0.19816523914E+03  0.00000000000E+00 0.  1.
</event>
<event>
 7    1  0.4915160E-006  0.6328066E+02  0.7818608E-02  0.1427631E+00
          2   -1    0    0  502    0  0.00000000000E+00  0.00000000000E+00  0.42714622729E+03  0.42714622729E+03  0.00000000000E+00 0. -1.
          1   -1    0    0  501    0 -0.00000000000E+00 -0.00000000000E+00 -0.92920331596E+03  0.92920331596E+03  0.00000000000E+00 0. -1.
         25    2    1    2    0    0 -0.56466821372E+02  0.19968330445E+02  0.13029998587E+03  0.19023796989E+03  0.12500065094E+03 0.  0.
          2    1    1    2  501    0  0.58225914223E+02  0.25124465881E+02 -0.89619819120E+03  0.89843903175E+03  0.00000000000E+00 0. -1.
          1    1    1    2  502    0 -0.17590928512E+01 -0.45092796326E+02  0.26384111666E+03  0.26767254160E+03  0.00000000000E+00 0. -1.
         22    1    3    3    0    0  0.18556808845E+02  0.37105217314E+02  0.31410713847E+01  0.41605512085E+02  0.00000000000E+00 0. -1.
         22    1    3    3    0    0 -0.75023630217E+02 -0.17136886869E+02  0.12715891448E+03  0.14863245781E+03  0.00000000000E+00 0. -1.
</event>
<event>
 7    1  0.4915160E-006  0.1121215E+03  0.7818608E-02  0.1320737E+00
          2   -1    0    0  502    0  0.00000000000E+00  0.00000000000E+00  0.72914580831E+03  0.72914580831E+03  0.00000000000E+00 0. -1.
          1   -1    0    0  501    0 -0.00000000000E+00 -0.00000000000E+00 -0.60925550270E+03  0.60925550270E+03  0.00000000000E+00 0. -1.
         25    2    1    2    0    0  0.24122391242E+02  0.88342208018E+02 -0.10970637732E+03  0.18986341521E+03  0.12500556681E+03 0.  0.
          2    1    1    2  501    0  0.60117645576E+02 -0.12717057349E+02 -0.45273143374E+03  0.45688248593E+03  0.00000000000E+00 0. -1.
          1    1    1    2  502    0 -0.84240036818E+02 -0.75625150669E+02  0.68232811666E+03  0.69165540987E+03  0.00000000000E+00 0. -1.
         22    1    3    3    0    0  0.21863486607E+01 -0.93680218196E+01 -0.86544458866E+02  0.87077455829E+02  0.00000000000E+00 0. -1.
         22    1    3    3    0    0  0.21936042581E+02  0.97710229837E+02 -0.23161918455E+02  0.10278595938E+03  0.00000000000E+00 0. -1.
</event>
<event>
 7    1  0.4915160E-006  0.1120503E+03  0.7818608E-02  0.1457461E+00
          2   -1    0    0  502    0  0.00000000000E+00  0.00000000000E+00  0.37580602852E+03  0.37580602852E+03  0.00000000000E+00 0. -1.
          1   -1    0    0  501    0 -0.00000000000E+00 -0.00000000000E+00 -0.26598478816E+03  0.26598478816E+03  0.00000000000E+00 0. -1.
         25    2    1    2    0    0  0.52607879180E+02 -0.98208935630E+02  0.10995826527E+02  0.16779851041E+03  0.12499139133E+03 0.  0.
          2    1    1    2  501    0 -0.34248572115E+02  0.10712353930E+03 -0.17030522820E+03  0.20408892208E+03  0.00000000000E+00 0. -1.
          1    1    1    2  502    0 -0.18359307065E+02 -0.89146036708E+01  0.26913064203E+03  0.26990338418E+03  0.00000000000E+00 0. -1.
         22    1    3    3    0    0  0.84072730788E+02 -0.93614992291E+02  0.31822239241E+02  0.12978692443E+03  0.00000000000E+00 0. -1.
         22    1    3    3    0    0 -0.31464851608E+02 -0.45939433394E+01 -0.20826412714E+02  0.38011585979E+02  0.00000000000E+00 0. -1.
</event>
<event>
 7    1  0.4915160E-006  0.2429347E+03  0.7818608E-02  0.1209693E+00
          2   -1    0    0  502    0  0.00000000000E+00  0.00000000000E+00  0.11613367866E+04  0.11613367866E+04  0.00000000000E+00 0. -1.
          1   -1    0    0  501    0 -0.00000000000E+00 -0.00000000000E+00 -0.84610892925E+03  0.84610892925E+03  0.00000000000E+00 0. -1.
         25    2    1    2    0    0  0.50525534161E+02 -0.16923217585E+03 -0.40535147912E+02  0.22013778999E+03  0.12500075768E+03 0.  0.
          2    1    1    2  501    0 -0.75086433177E+02  0.24942025221E+03 -0.69034098745E+03  0.73784762222E+03  0.00000000000E+00 0. -1.
          1    1    1    2  502    0  0.24560899016E+02 -0.80188076359E+02  0.10461039927E+04  0.10494603036E+04  0.00000000000E+00 0. -1.
         22    1    3    3    0    0  0.16701343382E+02 -0.66101573654E+02 -0.79580754801E+02  0.10479241120E+03  0.00000000000E+00 0. -1.
         22    1    3    3    0    0  0.33824190779E+02 -0.10313060219E+03  0.39045606889E+02  0.11534537879E+03  0.00000000000E+00 0. -1.
</event>
<event>
 7    1  0.4915160E-006  0.3109745E+03  0.7818608E-02  0.1167919E+00
          2   -1    0    0  502    0  0.00000000000E+00  0.00000000000E+00  0.19829885767E+04  0.19829885767E+04  0.00000000000E+00 0. -1.
          1   -1    0    0  501    0 -0.00000000000E+00 -0.00000000000E+00 -0.11799456175E+03  0.11799456175E+03  0.00000000000E+00 0. -1.
         25    2    1    2    0    0 -0.14208117320E+03 -0.28951711083E+03  0.26721279085E+03  0.43707508723E+03  0.12499895616E+03 0.  0.
          2    1    1    2  501    0 -0.77919491397E+02  0.68955402121E+02  0.14725430011E+03  0.18030563919E+03  0.00000000000E+00 0. -1.
          1    1    1    2  502    0  0.22000066459E+03  0.22056170871E+03  0.14505269240E+04  0.14836024120E+04  0.00000000000E+00 0. -1.
         22    1    3    3    0    0  0.15223967912E+02 -0.12104498030E+02  0.43126230125E+02  0.47309193571E+02  0.00000000000E+00 0. -1.
         22    1    3    3    0    0 -0.15730514111E+03 -0.27741261280E+03  0.22408656072E+03  0.38976589365E+03  0.00000000000E+00 0. -1.
</event>
<event>
 7    1  0.4915160E-006  0.2627825E+03  0.7818608E-02  0.1108379E+00
          2   -1    0    0  502    0  0.00000000000E+00  0.00000000000E+00  0.84873811686E+03  0.84873811686E+03  0.00000000000E+00 0. -1.
          1   -1    0    0  501    0 -0.00000000000E+00 -0.00000000000E+00 -0.15031231636E+04  0.15031231636E+04  0.00000000000E+00 0. -1.
         25    2    1    2    0    0  0.22431680799E+03  0.16712028293E+03 -0.40421878355E+03  0.50721452763E+03  0.12500613087E+03 0.  0.
          2    1    1    2  501    0  0.29749129159E+02 -0.25146092164E+03 -0.10088381796E+04  0.10401307987E+04  0.00000000000E+00 0. -1.
          1    1    1    2  502    0 -0.25406593714E+03  0.84340638712E+02  0.75867191639E+03  0.80451595414E+03  0.00000000000E+00 0. -1.
         22    1    3    3    0    0  0.12382164743E+03  0.16498233373E+02 -0.15234138679E+03  0.19700733542E+03  0.00000000000E+00 0. -1.
         22    1    3    3    0    0  0.10049516055E+03  0.15062204956E+03 -0.25187739675E+03  0.31020719222E+03  0.00000000000E+00 0. -1.
</event>
<event>
 7    1  0.4915160E-006  0.7004556E+02  0.7818608E-02  0.1473580E+00
          2   -1    0    0  502    0  0.00000000000E+00  0.00000000000E+00  0.10500788242E+04  0.10500788242E+04  0.00000000000E+00 0. -1.
          1   -1    0    0  501    0 -0.00000000000E+00 -0.00000000000E+00 -0.69005433171E+02  0.69005433171E+02  0.00000000000E+00 0. -1.
         25    2    1    2    0    0  0.42605582438E+02 -0.29878865391E+00  0.38097395218E+03  0.40321384241E+03  0.12499970216E+03 0.  0.
          2    1    1    2  501    0 -0.71539587494E+02  0.30763093598E+01 -0.35280903345E+02  0.79825549788E+02  0.00000000000E+00 0. -1.
          1    1    1    2  502    0  0.28934005056E+02 -0.27775207058E+01  0.63538034219E+03  0.63604486517E+03  0.00000000000E+00 0. -1.
         22    1    3    3    0    0  0.84675248615E+02  0.16878050321E+02  0.26181885634E+03  0.27568801179E+03  0.00000000000E+00 0. -1.
         22    1    3    3    0    0 -0.42069666177E+02 -0.17176838975E+02  0.11915509584E+03  0.12752583062E+03  0.00000000000E+00 0. -1.
</event>
<event>
 7    1  0.4915160E-006  0.7812684E+02  0.7818608E-02  0.1426267E+00
          2   -1    0    0  502    0  0.00000000000E+00  0.00000000000E+00  0.64021823191E+02  0.64021823191E+02  0.00000000000E+00 0. -1.
          1   -1    0    0  501    0 -0.00000000000E+00 -0.00000000000E+00 -0.11721812298E+04  0.11721812298E+04  0.00000000000E+00 0. -1.
         25    2    1    2    0    0 -0.20698589395E+02 -0.73092295796E+02 -0.44246570071E+02  0.15282419447E+03  0.12500624043E+03 0.  0.
          2    1    1    2  501    0  0.53914509233E+02  0.56943669885E+02 -0.10307895914E+04  0.10337681256E+04  0.00000000000E+00 0. -1.
          1    1    1    2  502    0 -0.33215919838E+02  0.16148625911E+02 -0.33123245176E+02  0.49610732916E+02  0.00000000000E+00 0. -1.
         22    1    3    3    0    0 -0.50806498997E+02 -0.67991121658E+02 -0.72195160651E+02  0.11142815706E+03  0.00000000000E+00 0. -1.
         22    1    3    3    0    0  0.30107909602E+02 -0.51011741377E+01  0.27948590579E+02  0.41396037414E+02  0.00000000000E+00 0. -1.
</event>
<event>
 7    1  0.4915160E-006  0.1099096E+03  0.7818608E-02  0.1404505E+00
          2   -1    0    0  502    0  0.00000000000E+00  0.00000000000E+00  0.95510680940E+03  0.95510680940E+03  0.00000000000E+00 0. -1.
          1   -1    0    0  501    0 -0.00000000000E+00 -0.00000000000E+00 -0.51368984746E+02  0.51368984746E+02  0.00000000000E+00 0. -1.
         25    2    1    2    0    0  0.72811716246E+02 -0.82428643999E+02  0.54485003252E+03  0.56972051953E+03  0.12499554017E+03 0.  0.
          2    1    1    2  501    0 -0.25041523845E+02 -0.18394213674E+02 -0.23158302106E+02  0.38752186643E+02  0.00000000000E+00 0. -1.
          1    1    1    2  502    0 -0.47770192401E+02  0.10082285767E+03  0.38204609425E+03  0.39800308798E+03  0.00000000000E+00 0. -1.
         22    1    3    3    0    0  0.89595834039E+02 -0.10498526574E+03  0.46588810733E+03  0.48590230299E+03  0.00000000000E+00 0.  1.
         22    1    3    3    0    0 -0.16784117793E+02  0.22556621740E+02  0.78961925186E+02  0.83818216537E+02  0.00000000000E+00 0.  1.
</event>
<event>
 7    1  0.4915160E-006  0.4886386E+02  0.7818608E-02  0.1463881E+00
          2   -1    0    0  502    0  0.00000000000E+00  0.00000000000E+00  0.21446894835E+04  0.21446894835E+04  0.00000000000E+00 0. -1.
          1   -1    0    0  501    0 -0.00000000000E+00 -0.00000000000E+00 -0.68207478589E+02  0.68207478589E+02  0.00000000000E+00 0. -1.
         25    2    1    2    0    0 -0.61166489056E+02 -0.27366462352E+02  0.43524880062E+03  0.45777344926E+03  0.12499899904E+03 0.  0.
          2    1    1    2  501    0  0.19941674510E+02  0.44569038096E+02 -0.46128435851E+02  0.67170694005E+02  0.00000000000E+00 0. -1.
          1    1    1    2  502    0  0.41224814545E+02 -0.17202575744E+02  0.16873616402E+04  0.16879528188E+04  0.00000000000E+00 0. -1.
         22    1    3    3    0    0  0.12156488009E+02 -0.27668390366E+02  0.20323576834E+02  0.36419332798E+02  0.00000000000E+00 0. -1.
         22    1    3    3    0    0 -0.73322977064E+02  0.30192801418E+00  0.41492522378E+03  0.42135411646E+03  0.00000000000E+00 0. -1.
</event>
<event>
 7    1  0.4915160E-006  0.2067086E+03  0.7818608E-02  0.1268322E+00
          2   -1    0    0  502    0  0.00000000000E+00  0.00000000000E+00  0.30408774116E+03  0.30408774116E+03  0.00000000000E+00 0. -1.
          1   -1    0    0  501    0 -0.00000000000E+00 -0.00000000000E+00 -0.80368648301E+03  0.80368648301E+03  0.00000000000E+00 0. -1.
         25    2    1    2    0    0 -0.19573941966E+03  0.70951156307E+02 -0.17676963041E+03  0.30036661803E+03  0.12499846400E+03 0.  0.
          2    1    1    2  501    0  0.17050887534E+03 -0.11900244357E+03 -0.54257811356E+03  0.58105582129E+03  0.00000000000E+00 0. -1.
          1    1    1    2  502    0  0.25230544320E+02  0.48051287262E+02  0.21974900211E+03  0.22635178484E+03  0.00000000000E+00 0. -1.
         22    1    3    3    0    0 -0.31364744630E+02 -0.19364243676E+02  0.73021002060E+01  0.37577144733E+02  0.00000000000E+00 0.  1.
         22    1    3    3    0    0 -0.16437467503E+03  0.90315399983E+02 -0.18407173062E+03  0.26278947330E+03  0.00000000000E+00 0.  1.
</event>
<event>
 7    1  0.4915160E-006  0.4420844E+02  0.7818608E-02  0.1543301E+00
          2   -1    0    0  502    0  0.00000000000E+00  0.00000000000E+00  0.19997300390E+02  0.19997300390E+02  0.00000000000E+00 0. -1.
          1   -1    0    0  501    0 -0.00000000000E+00 -0.00000000000E+00 -0.71213664620E+03  0.71213664620E+03  0.00000000000E+00 0. -1.
         25    2    1    2    0    0  0.12211920480E+02 -0.24221591565E+02 -0.44366998104E+03  0.46173872684E+03  0.12499513304E+03 0.  0.
          2    1    1    2  501    0  0.32639439517E+00  0.50009427213E+02 -0.23199728111E+03  0.23732633184E+03  0.00000000000E+00 0. -1.
          1    1    1    2  502    0 -0.12538314875E+02 -0.25787835649E+02 -0.16472083654E+02  0.33068887905E+02  0.00000000000E+00 0. -1.
         22    1    3    3    0    0 -0.34216365537E+02 -0.39556991188E+02 -0.36765105482E+03  0.37135268053E+03  0.00000000000E+00 0. -1.
         22    1    3    3    0    0  0.46428286018E+02  0.15335399623E+02 -0.76018926220E+02  0.90386046311E+02  0.00000000000E+00 0. -1.
</event>
<event>
 7    1  0.4915160E-006  0.2219106E+03  0.7818608E-02  0.1253515E+00
          2   -1    0    0  502    0  0.00000000000E+00  0.00000000000E+00  0.93807764663E+03  0.93807764663E+03  0.00000000000E+00 0. -1.
          1   -1    0    0  501    0 -0.00000000000E+00 -0.00000000000E+00 -0.37232461337E+03  0.37232461337E+03  0.00000000000E+00 0. -1.
         25    2    1    2    0    0  0.76812125093E+01 -0.25349607265E+03 -0.43108911084E+01  0.28277704882E+03  0.12500006272E+03 0.  0.
          2    1    1    2  501    0 -0.43366921092E+02  0.20719089979E+03 -0.17843095330E+03  0.27685079718E+03  0.00000000000E+00 0. -1.
          1    1    1    2  502    0  0.35685708583E+02  0.46305172857E+02  0.74849487767E+03  0.75077441400E+03  0.00000000000E+00 0. -1.
         22    1    3    3    0    0 -0.39308540887E+02 -0.22356216608E+03 -0.53129402591E+01  0.22705380601E+03  0.00000000000E+00 0.  1.
         22    1    3    3    0    0  0.46989753396E+02 -0.29933906575E+02  0.10020491508E+01  0.55723242813E+02  0.00000000000E+00 0.  1.
</event>
<event>
 7    1  0.4915160E-006  0.4917064E+02  0.7818608E-02  0.1456105E+00
          2   -1    0    0  502    0  0.00000000000E+00  0.00000000000E+00  0.19068207771E+04  0.19068207771E+04  0.00000000000E+00 0. -1.
          1   -1    0    0  501    0 -0.00000000000E+00 -0.00000000000E+00 -0.21656189411E+02  0.21656189411E+02  0.00000000000E+00 0. -1.
         25    2    1    2    0    0 -0.21818501189E+02 -0.18167226474E+02  0.37093286143E+03  0.39245386536E+03  0.12499101423E+03 0.  0.
          2    1    1    2  501    0  0.47395598824E+02 -0.23827580576E+02  0.56641851937E+02  0.77604096380E+02  0.00000000000E+00 0. -1.
          1    1    1    2  502    0 -0.25577097636E+02  0.41994807050E+02  0.14575898743E+04  0.14584190047E+04  0.00000000000E+00 0. -1.
         22    1    3    3    0    0  0.37320850615E+02  0.25731428941E+02  0.21859353198E+03  0.22324445021E+03  0.00000000000E+00 0.  1.
         22    1    3    3    0    0 -0.59139351803E+02 -0.43898655415E+02  0.15233932945E+03  0.16920941515E+03  0.00000000000E+00 0.  1.
</event>
<event>
 7    1  0.4915160E-006  0.9560560E+02  0.7818608E-02  0.1346913E+00
          2   -1    0    0  502    0  0.00000000000E+00  0.00000000000E+00  0.15878299410E+04  0.15878299410E+04  0.00000000000E+00 0. -1.
          1   -1    0    0  501    0 -0.00000000000E+00 -0.00000000000E+00 -0.10186756713E+04  0.10186756713E+04  0.00000000000E+00 0. -1.
         25    2    1    2    0    0 -0.70488006828E+02  0.12634245120E+03  0.45187146538E+03  0.49066887126E+03  0.12504857425E+03 0.  0.
          2    1    1    2  501    0  0.12757798274E+02 -0.55880098107E+02 -0.99659425766E+03  0.99824118387E+03  0.00000000000E+00 0. -1.
          1    1    1    2  502    0  0.57730208553E+02 -0.70462353094E+02  0.11138770620E+04  0.11175955572E+04  0.00000000000E+00 0. -1.
         22    1    3    3    0    0 -0.71277024746E+02  0.23613174267E+02  0.10626094489E+03  0.13011296885E+03  0.00000000000E+00 0.  1.
         22    1    3    3    0    0  0.78901791849E+00  0.10272927693E+03  0.34561052049E+03  0.36055590241E+03  0.00000000000E+00 0.  1.
</event>
<event>
 7    1  0.4915160E-006  0.8020618E+02  0.7818608E-02  0.1462201E+00
          2   -1    0    0  502    0  0.00000000000E+00  0.00000000000E+00  0.37840915207E+02  0.37840915207E+02  0.00000000000E+00 0. -1.
          1   -1    0    0  501    0 -0.00000000000E+00 -0.00000000000E+00 -0.12962706648E+04  0.12962706648E+04  0.00000000000E+00 0. -1.
         25    2    1    2    0    0 -0.42245728422E+02  0.66555392642E+02 -0.85215420250E+03  0.86487393604E+03  0.12500327412E+03 0.  0.
          2    1    1    2  501    0  0.18618485270E+02 -0.80718499552E+02 -0.42687623064E+03  0.43483955714E+03  0.00000000000E+00 0. -1.
          1    1    1    2  502    0  0.23627243153E+02  0.14163106910E+02  0.20600683537E+02  0.34398086844E+02  0.00000000000E+00 0. -1.
         22    1    3    3    0    0 -0.71312207957E+02  0.65220786874E+02 -0.79386897000E+03  0.79972940647E+03  0.00000000000E+00 0.  1.
         22    1    3    3    0    0  0.29066479535E+02  0.13346057687E+01 -0.58285232502E+02  0.65144529570E+02  0.00000000000E+00 0.  1.
</event>
<event>
 7    1  0.4915160E-006  0.9900083E+02  0.7818608E-02  0.1312893E+00
          2   -1    0    0  502    0  0.00000000000E+00  0.00000000000E+00  0.26121496630E+03  0.26121496630E+03  0.00000000000E+00 0. -1.
          1   -1    0    0  501    0 -0.00000000000E+00 -0.00000000000E+00 -0.93577689218E+03  0.93577689218E+03  0.00000000000E+00 0. -1.
         25    2    1    2    0    0  0.13675245566E+03 -0.26220202717E+02 -0.34755606021E+02  0.19031750169E+03  0.12499626451E+03 0.  0.
          2    1    1    2  501    0 -0.73208362682E+02  0.65433148126E+02 -0.81256163676E+03  0.81847258646E+03  0.00000000000E+00 0. -1.
          1    1    1    2  502    0 -0.63544092974E+02 -0.39212945408E+02  0.17275531690E+03  0.18820177034E+03  0.00000000000E+00 0. -1.
         22    1    3    3    0    0  0.12164550002E+03  0.32951843930E+02 -0.22191196737E+02  0.12796835900E+03  0.00000000000E+00 0.  1.
         22    1    3    3    0    0  0.15106955637E+02 -0.59172046647E+02 -0.12564409283E+02  0.62349142686E+02  0.00000000000E+00 0.  1.
</event>
<event>
 7    1  0.4915160E-006  0.3902294E+02  0.7818608E-02  0.1581397E+00
          2   -1    0    0  502    0  0.00000000000E+00  0.00000000000E+00  0.70765978573E+02  0.70765978573E+02  0.00000000000E+00 0. -1.
          1   -1    0    0  501    0 -0.00000000000E+00 -0.00000000000E+00 -0.13950101919E+04  0.13950101919E+04  0.00000000000E+00 0. -1.
         25    2    1    2    0    0  0.53919642602E+01  0.63592576754E+02 -0.33657105318E+03  0.36466144779E+03  0.12499923425E+03 0.  0.
          2    1    1    2  501    0  0.74741364101E+00 -0.25523038167E+02 -0.10376647330E+04  0.10379788448E+04  0.00000000000E+00 0. -1.
          1    1    1    2  502    0 -0.61393779012E+01 -0.38069538586E+02  0.49991572826E+02  0.63135877936E+02  0.00000000000E+00 0. -1.
         22    1    3    3    0    0  0.19391913907E+02 -0.22346425183E+02 -0.18516680933E+02  0.34903818075E+02  0.00000000000E+00 0. -1.
         22    1    3    3    0    0 -0.13999949647E+02  0.85939001936E+02 -0.31805437225E+03  0.32975762971E+03  0.00000000000E+00 0. -1.
</event>
<event>
 7    1  0.4915160E-006  0.1400100E+03  0.7818608E-02  0.1429458E+00
          2   -1    0    0  502    0  0.00000000000E+00  0.00000000000E+00  0.23967583551E+04  0.23967583551E+04  0.00000000000E+00 0. -1.
          1   -1    0    0  501    0 -0.00000000000E+00 -0.00000000000E+00 -0.10974102028E+03  0.10974102028E+03  0.00000000000E+00 0. -1.
         25    2    1    2    0    0 -0.13989025593E+03  0.51234882759E+02  0.86992089236E+03  0.89139160796E+03  0.12498937101E+03 0.  0.
          2    1    1    2  501    0  0.17010958095E+02  0.10735164468E+02 -0.94825408786E+02  0.96935414596E+02  0.00000000000E+00 0. -1.
          1    1    1    2  502    0  0.12287929783E+03 -0.61970047227E+02  0.15119218513E+04  0.15181723528E+04  0.00000000000E+00 0. -1.
         22    1    3    3    0    0 -0.64370171926E+02 -0.14870906803E+02  0.59621778116E+03  0.59986690647E+03  0.00000000000E+00 0.  1.
         22    1    3    3    0    0 -0.75520084001E+02  0.66105789561E+02  0.27370311120E+03  0.29152470149E+03  0.00000000000E+00 0.  1.
</event>
<event>
 7    1  0.4915160E-006  0.8848734E+02  0.7818608E-02  0.1402317E+00
          2   -1    0    0  502    0  0.00000000000E+00  0.00000000000E+00  0.11050043966E+04  0.11050043966E+04  0.00000000000E+00 0. -1.
          1   -1    0    0  501    0 -0.00000000000E+00 -0.00000000000E+00 -0.49554646519E+03  0.49554646519E+03  0.00000000000E+00 0. -1.
         25    2    1    2    0    0 -0.23662627846E+02 -0.48015276724E+02  0.51686543995E+03  0.53445283777E+03  0.12499826413E+03 0.  0.
          2    1    1    2  501    0  0.18160498339E+02  0.86892341763E+02 -0.48202995279E+03  0.49013565280E+03  0.00000000000E+00 0. -1.
          1    1    1    2  502    0  0.55021295071E+01 -0.38877065039E+02  0.57462244429E+03  0.57596237125E+03  0.00000000000E+00 0. -1.
         22    1    3    3    0    0 -0.72624770481E+02 -0.10858992681E+02  0.24749604501E+03  0.25815996456E+03  0.00000000000E+00 0. -1.
         22    1    3    3    0    0  0.48962142635E+02 -0.37156284043E+02  0.26936939494E+03  0.27629287321E+03  0.00000000000E+00 0. -1.
</event>
<event>
 7    1  0.4915160E-006  0.8256696E+02  0.7818608E-02  0.1398507E+00
          2   -1    0    0  502    0  0.00000000000E+00  0.00000000000E+00  0.48216846872E+03  0.48216846872E+03  0.00000000000E+00 0. -1.
          1   -1    0    0  501    0 -0.00000000000E+00 -0.00000000000E+00 -0.78620107140E+03  0.78620107140E+03  0.00000000000E+00 0. -1.
         25    2    1    2    0    0  0.24364979580E+02  0.10805179934E+03  0.58245617693E+02  0.17688019553E+03  0.12500083208E+03 0.  0.
          2    1    1    2  501    0 -0.33366599580E+02 -0.27702858194E+02 -0.72174265403E+03  0.72304442254E+03  0.00000000000E+00 0. -1.
          1    1    1    2  502    0  0.90016200003E+01 -0.80348941148E+02  0.35946443367E+03  0.36844492204E+03  0.00000000000E+00 0. -1.
         22    1    3    3    0    0  0.18266362788E+02  0.14323847741E+01  0.67255957523E+02  0.69707069641E+02  0.00000000000E+00 0. -1.
         22    1    3    3    0    0  0.60986167917E+01  0.10661941457E+03 -0.90103398296E+01  0.10717312589E+03  0.00000000000E+00 0. -1.
</event>
<event>
 7    1  0.4915160E-006  0.1241622E+03  0.7818608E-02  0.1292568E+00
          2   -1    0    0  502    0  0.00000000000E+00  0.00000000000E+00  0.13186266942E+04  0.13186266942E+04  0.00000000000E+00 0. -1.
          1   -1    0    0  501    0 -0.00000000000E+00 -0.00000000000E+00 -0.16230041195E+03  0.16230041195E+03  0.00000000000E+00 0. -1.
         25    2    1    2    0    0 -0.28360915210E+02 -0.12342554923E+03  0.41187408303E+03  0.44866895997E+03  0.12500147061E+03 0.  0.
          2    1    1    2  501    0  0.71670685537E+02  0.33437718166E+01 -0.13002806738E+03  0.14850981880E+03  0.00000000000E+00 0. -1.
          1    1    1    2  502    0 -0.43309770326E+02  0.12008177742E+03  0.87448026661E+03  0.88374832738E+03  0.00000000000E+00 0. -1.
         22    1    3    3    0    0  0.28633852658E+02  0.11368331590E+02  0.88832681087E+02  0.94023304081E+02  0.00000000000E+00 0.  1.
         22    1    3    3    0    0 -0.56994767868E+02 -0.13479388082E+03  0.32304140194E+03  0.35464565589E+03  0.00000000000E+00 0.  1.
</event>
<event>
 7    1  0.4915160E-006  0.9571845E+02  0.7818608E-02  0.1365164E+00
          2   -1    0    0  502    0  0.00000000000E+00  0.00000000000E+00  0.17261169684E+04  0.17261169684E+04  0.00000000000E+00 0. -1.
          1   -1    0    0  501    0 -0.00000000000E+00 -0.00000000000E+00 -0.21612994710E+03  0.21612994710E+03  0.00000000000E+00 0. -1.
         25    2    1    2    0    0 -0.43386141266E+02  0.10457292708E+03  0.34138392045E+03  0.38075605274E+03  0.12495733763E+03 0.  0.
          2    1    1    2  501    0 -0.48082354345E+01 -0.95374324444E+02 -0.18436729685E+03  0.20763111771E+03  0.00000000000E+00 0. -1.
          1    1    1    2  502    0  0.48194376701E+02 -0.91986026319E+01  0.13529703977E+04  0.13538597451E+04  0.00000000000E+00 0. -1.
         22    1    3    3    0    0 -0.61795830553E+01 -0.67203842955E+01  0.18507555865E+03  0.18530060232E+03  0.00000000000E+00 0. -1.
         22    1    3    3    0    0 -0.37206558211E+02  0.11129331137E+03  0.15630836180E+03  0.19545545042E+03  0.00000000000E+00 0. -1.
</event>
<event>
 7    1  0.4915160E-006  0.8510183E+02  0.7818608E-02  0.1370789E+00
          2   -1    0    0  502    0  0.00000000000E+00  0.00000000000E+00  0.15064857044E+04  0.15064857044E+04  0.00000000000E+00 0. -1.
          1   -1    0    0  501    0 -0.00000000000E+00 -0.00000000000E+00 -0.64543994223E+02  0.64543994223E+02  0.00000000000E+00 0. -1.
         25    2    1    2    0    0  0.11659248275E+03 -0.31522634863E+02  0.72239346095E+03  0.74301066753E+03  0.12500022443E+03 0.  0.
          2    1    1    2  501    0 -0.67286692338E+02  0.50036834558E+02 -0.20319582368E+02  0.86279019501E+02  0.00000000000E+00 0. -1.
          1    1    1    2  502    0 -0.49305790412E+02 -0.18514199695E+02  0.73986783164E+03  0.74174001163E+03  0.00000000000E+00 0. -1.
         22    1    3    3    0    0  0.62957566478E+02  0.43548797525E+02  0.41761837728E+03  0.42457656787E+03  0.00000000000E+00 0. -1.
         22    1    3    3    0    0  0.53634916272E+02 -0.75071432388E+02  0.30477508367E+03  0.31843409967E+03  0.00000000000E+00 0. -1.
</event>
<event>
 7    1  0.4915160E-006  0.4618970E+02  0.7818608E-02  0.1513476E+00
          2   -1    0    0  502    0  0.00000000000E+00  0.00000000000E+00  0.10467273746E+04  0.10467273746E+04  0.00000000000E+00 0. -1.
          1   -1    0    0  501    0 -0.00000000000E+00 -0.00000000000E+00 -0.47290357501E+02  0.47290357501E+02  0.00000000000E+00 0. -1.
         25    2    1    2    0    0  0.11841541851E+02  0.38085213085E+02  0.72983693043E+03  0.74153769454E+03  0.12500200731E+03 0.  0.
          2    1    1    2  501    0 -0.41059907392E+02 -0.21848172481E+02 -0.27148695747E+02  0.53854529212E+02  0.00000000000E+00 0. -1.
          1    1    1    2  502    0  0.29218365542E+02 -0.16237040605E+02  0.29674878236E+03  0.29862550830E+03  0.00000000000E+00 0. -1.
         22    1    3    3    0    0 -0.31716819060E+02 -0.22716966160E+02  0.10107615292E+03  0.10834392393E+03  0.00000000000E+00 0. -1.
         22    1    3    3    0    0  0.43558360911E+02  0.60802179245E+02  0.62876077751E+03  0.63319377061E+03  0.00000000000E+00 0. -1.
</event>
<event>
 7    1  0.4915160E-006  0.3483705E+02  0.7818608E-02  0.1622710E+00
          2   -1    0    0  502    0  0.00000000000E+00  0.00000000000E+00  0.10851745228E+04  0.10851745228E+04  0.00000000000E+00 0. -1.
          1   -1    0    0  501    0 -0.00000000000E+00 -0.00000000000E+00 -0.31292046788E+03  0.31292046788E+03  0.00000000000E+00 0. -1.
         25    2    1    2    0    0  0.13861297582E+02  0.21150939392E+02 -0.88142482749E+02  0.15501646469E+03  0.12498603622E+03 0.  0.
          2    1    1    2  501    0 -0.17774116473E+02  0.13502467621E+02 -0.19039976464E+03  0.19170369382E+03  0.00000000000E+00 0. -1.
          1    1    1    2  502    0  0.39128188911E+01 -0.34653407013E+02  0.10507963023E+04  0.10513748321E+04  0.00000000000E+00 0. -1.
         22    1    3    3    0    0  0.26102555996E+02  0.47126449790E+02  0.81933604431E+01  0.54491988903E+02  0.00000000000E+00 0. -1.
         22    1    3    3    0    0 -0.12241258414E+02 -0.25975510398E+02 -0.96335843192E+02  0.10052447578E+03  0.00000000000E+00 0. -1.
</event>
<event>
 7    1  0.4915160E-006  0.3447689E+02  0.7818608E-02  0.1587897E+00
          2   -1    0    0  502    0  0.00000000000E+00  0.00000000000E+00  0.10387215604E+04  0.10387215604E+04  0.00000000000E+00 0. -1.
          1   -1    0    0  501    0 -0.00000000000E+00 -0.00000000000E+00 -0.56563423424E+03  0.56563423424E+03  0.00000000000E+00 0. -1.
         25    2    1    2    0    0 -0.28315122614E+02 -0.59964561900E+01  0.72083952200E+02  0.14716968626E+03  0.12500046693E+03 0.  0.
          2    1    1    2  501    0  0.26869055362E+02 -0.21736595626E+02 -0.52731805634E+03  0.52844939045E+03  0.00000000000E+00 0. -1.
          1    1    1    2  502    0  0.14460672515E+01  0.27733051816E+02  0.92832143033E+03  0.92873671796E+03  0.00000000000E+00 0. -1.
         22    1    3    3    0    0 -0.49172728093E+02  0.55643905517E+00  0.10016265439E+03  0.11158326105E+03  0.00000000000E+00 0.  1.
         22    1    3    3    0    0  0.20857605480E+02 -0.65528952451E+01 -0.28078702188E+02  0.35586425207E+02  0.00000000000E+00 0.  1.
</event>
<event>
 7    1  0.4915160E-006  0.1042662E+03  0.7818608E-02  0.1403661E+00
          2   -1    0    0  502    0  0.00000000000E+00  0.00000000000E+00  0.92324116405E+02  0.92324116405E+02  0.00000000000E+00 0. -1.
          1   -1    0    0  501    0 -0.00000000000E+00 -0.00000000000E+00 -0.18888725691E+04  0.18888725691E+04  0.00000000000E+00 0. -1.
         25    2    1    2    0    0  0.12103694699E+03  0.26433515411E+02 -0.37220512877E+03  0.41171627805E+03  0.12499984981E+03 0.  0.
          2    1    1    2  501    0 -0.28092632313E+02  0.17259911236E+02 -0.14602951245E+04  0.14606672965E+04  0.00000000000E+00 0. -1.
          1    1    1    2  502    0 -0.92944314681E+02 -0.43693426647E+02  0.35951800507E+02  0.10881311099E+03  0.00000000000E+00 0. -1.
         22    1    3    3    0    0  0.68054316311E+02 -0.43672917032E+01 -0.33079825773E+03  0.33775427535E+03  0.00000000000E+00 0. -1.
         22    1    3    3    0    0  0.52982630683E+02  0.30800807114E+02 -0.41406871045E+02  0.73962002695E+02  0.00000000000E+00 0. -1.
</event>
<event>
 7    1  0.4915160E-006  0.1681072E+03  0.7818608E-02  0.1212678E+00
          2   -1    0    0  502    0  0.00000000000E+00  0.00000000000E+00  0.27072647638E+04  0.27072647638E+04  0.00000000000E+00 0. -1.
          1   -1    0    0  501    0 -0.00000000000E+00 -0.00000000000E+00 -0.19963706362E+04  0.19963706362E+04  0.00000000000E+00 0. -1.
         25    2    1    2    0    0 -0.15533773769E+03 -0.20479230086E+03  0.22602122700E+03  0.36439070295E+03  0.12500116038E+03 0.  0.
          2    1    1    2  501    0  0.15955241548E+02  0.11631257223E+03 -0.19225681918E+04  0.19261494325E+04  0.00000000000E+00 0. -1.
          1    1    1    2  502    0  0.13938249614E+03  0.88479728628E+02  0.24074410924E+04  0.24130952646E+04  0.00000000000E+00 0. -1.
         22    1    3    3    0    0 -0.54391378138E+02 -0.17035226195E+03  0.13292786592E+03  0.22281860943E+03  0.00000000000E+00 0. -1.
         22    1    3    3    0    0 -0.10094635955E+03 -0.34440038910E+02  0.93093361080E+02  0.14157209352E+03  0.00000000000E+00 0. -1.
</event>
<event>
 7    1  0.4915160E-006  0.5782335E+02  0.7818608E-02  0.1468368E+00
          2   -1    0    0  502    0  0.00000000000E+00  0.00000000000E+00  0.36738015723E+04  0.36738015723E+04  0.00000000000E+00 0. -1.
          1   -1    0    0  501    0 -0.00000000000E+00 -0.00000000000E+00 -0.46383141821E+01  0.46383141821E+01  0.00000000000E+00 0. -1.
         25    2    1    2    0    0 -0.28543367783E+02 -0.14467800627E+02  0.23536687749E+04  0.23572030004E+04  0.12500096790E+03 0.  0.
          2    1    1    2  501    0  0.62577413843E+02  0.11455583138E+01  0.38741757495E+03  0.39244059730E+03  0.00000000000E+00 0. -1.
          1    1    1    2  502    0 -0.34034046060E+02  0.13322242313E+02  0.92807690831E+03  0.92879628884E+03  0.00000000000E+00 0. -1.
         22    1    3    3    0    0 -0.32467255718E+02 -0.67933439087E+02  0.13223811955E+04  0.13245229711E+04  0.00000000000E+00 0. -1.
         22    1    3    3    0    0  0.39238879346E+01  0.53465638460E+02  0.10312875794E+04  0.10326800292E+04  0.00000000000E+00 0. -1.
</event>
<event>
 7    1  0.4915160E-006  0.1796986E+03  0.7818608E-02  0.1297280E+00
          2   -1    0    0  502    0  0.00000000000E+00  0.00000000000E+00  0.32786125456E+04  0.32786125456E+04  0.00000000000E+00 0. -1.
          1   -1    0    0  501    0 -0.00000000000E+00 -0.00000000000E+00 -0.73436776188E+02  0.73436776188E+02  0.00000000000E+00 0. -1.
         25    2    1    2    0    0  0.10087975602E+03  0.15739452227E+03  0.19547532256E+03  0.29796935991E+03  0.12500150757E+03 0.  0.
          2    1    1    2  501    0 -0.53945244918E+02 -0.16437580259E+03  0.31842717489E+03  0.36238840991E+03  0.00000000000E+00 0. -1.
          1    1    1    2  502    0 -0.46934511099E+02  0.69812803204E+01  0.26912732720E+04  0.26916915520E+04  0.00000000000E+00 0. -1.
         22    1    3    3    0    0 -0.48912173723E+01  0.10048091999E+03  0.60938069663E+02  0.11761712301E+03  0.00000000000E+00 0.  1.
         22    1    3    3    0    0  0.10577097339E+03  0.56913602279E+02  0.13453725290E+03  0.18035223690E+03  0.00000000000E+00 0.  1.
</event>
<event>
 7    1  0.4915160E-006  0.2362652E+02  0.7818608E-02  0.1705693E+00
          2   -1    0    0  502    0  0.00000000000E+00  0.00000000000E+00  0.85710187188E+03  0.85710187188E+03  0.00000000000E+00 0. -1.
          1   -1    0    0  501    0 -0.00000000000E+00 -0.00000000000E+00 -0.18628823735E+03  0.18628823735E+03  0.00000000000E+00 0. -1.
         25    2    1    2    0    0  0.17673397540E+02 -0.26988521582E+02  0.20561480045E+03  0.24278188888E+03  0.12499948051E+03 0.  0.
          2    1    1    2  501    0  0.27874764873E+01  0.23457315990E+02 -0.16670148619E+03  0.16836686490E+03  0.00000000000E+00 0. -1.
          1    1    1    2  502    0 -0.20460874027E+02  0.35312055916E+01  0.63190032027E+03  0.63224135544E+03  0.00000000000E+00 0. -1.
         22    1    3    3    0    0  0.23733592257E+01  0.43675222861E+02  0.30486608919E+02  0.53315956799E+02  0.00000000000E+00 0. -1.
         22    1    3    3    0    0  0.15300038314E+02 -0.70663744443E+02  0.17512819153E+03  0.18946593209E+03  0.00000000000E+00 0. -1.
</event>
<event>
 7    1  0.4915160E-006  0.1851975E+03  0.7818608E-02  0.1281378E+00
          2   -1    0    0  502    0  0.00000000000E+00  0.00000000000E+00  0.20213312349E+03  0.20213312349E+03  0.00000000000E+00 0. -1.
          1   -1    0    0  501    0 -0.00000000000E+00 -0.00000000000E+00 -0.11908169311E+04  0.11908169311E+04  0.00000000000E+00 0. -1.
         25    2    1    2    0    0 -0.35735812175E+02  0.14200167521E+03 -0.15033323539E+03  0.24426409434E+03  0.12499336819E+03 0.  0.
          2    1    1    2  501    0 -0.29000636891E+02  0.44891323729E+02 -0.92940896221E+03  0.93094429851E+03  0.00000000000E+00 0. -1.
          1    1    1    2  502    0  0.64736449066E+02 -0.18689299894E+03  0.91058389956E+02  0.21774166177E+03  0.00000000000E+00 0. -1.
         22    1    3    3    0    0 -0.15073642453E+02  0.12301296042E+03 -0.39713771688E+02  0.13014064235E+03  0.00000000000E+00 0.  1.
         22    1    3    3    0    0 -0.20662169722E+02  0.18988714785E+02 -0.11061946370E+03  0.11412345200E+03  0.00000000000E+00 0.  1.
</event>
<event>
 7    1  0.4915160E-006  0.1411236E+03  0.7818608E-02  0.1311892E+00
          2   -1    0    0  502    0  0.00000000000E+00  0.00000000000E+00  0.43164370146E+03  0.43164370146E+03  0.00000000000E+00 0. -1.
          1   -1    0    0  501    0 -0.00000000000E+00 -0.00000000000E+00 -0.34614954405E+03  0.34614954405E+03  0.00000000000E+00 0. -1.
         25    2    1    2    0    0  0.60626487283E+02 -0.10400098526E+03 -0.59970408450E+02  0.18361262538E+03  0.12500148165E+03 0.  0.
          2    1    1    2  501    0 -0.11338560881E+03  0.10076767670E+03 -0.19645271358E+03  0.24820171157E+03  0.00000000000E+00 0. -1.
          1    1    1    2  502    0  0.52759121527E+02  0.32333085548E+01  0.34191727944E+03  0.34597890856E+03  0.00000000000E+00 0. -1.
         22    1    3    3    0    0 -0.35195595424E+00  0.32499429993E+01  0.30466990783E+02  0.30641859113E+02  0.00000000000E+00 0.  1.
         22    1    3    3    0    0  0.60978443237E+02 -0.10725092826E+03 -0.90437399233E+02  0.15297076627E+03  0.00000000000E+00 0.  1.
</event>
<event>
 7    1  0.5254746E-006  0.1511483E+03  0.7818608E-02  0.1235800E+00
          2   -1    0    0  502    0  0.00000000000E+00  0.00000000000E+00  0.27491456273E+04  0.27491456273E+04  0.00000000000E+00 0. -1.
          1   -1    0    0  501    0 -0.00000000000E+00 -0.00000000000E+00 -0.12995164998E+04  0.12995164998E+04  0.00000000000E+00 0. -1.
         25    2    1    2    0    0 -0.60745898308E+02 -0.10423503268E+03 -0.37247197779E+03  0.41099357848E+03  0.12500136443E+03 0.  0.
          2    1    1    2  501    0 -0.17358215378E+02  0.17077539791E+03 -0.89869336642E+03  0.91494005871E+03  0.00000000000E+00 0. -1.
          1    1    1    2  502    0  0.78104113686E+02 -0.66540365228E+02  0.27207944717E+04  0.27227284899E+04  0.00000000000E+00 0. -1.
         22    1    3    3    0    0 -0.92884246968E+02 -0.75698628111E+02 -0.32775243826E+03  0.34896909092E+03  0.00000000000E+00 0.  1.
         22    1    3    3    0    0  0.32138348660E+02 -0.28536404569E+02 -0.44719539529E+02  0.62024487552E+02  0.00000000000E+00 0.  1.
</event>
<event>
 7    1  0.4915160E-006  0.1272538E+03  0.7818608E-02  0.1247665E+00
          2   -1    0    0  502    0  0.00000000000E+00  0.00000000000E+00  0.14347632938E+04  0.14347632938E+04  0.00000000000E+00 0. -1.
          1   -1    0    0  501    0 -0.00000000000E+00 -0.00000000000E+00 -0.91025434668E+03  0.91025434668E+03  0.00000000000E+00 0. -1.
         25    2    1    2    0    0  0.54589802388E+02  0.35285546440E+02  0.68966074423E+02  0.15686483069E+03  0.12500055749E+03 0.  0.
          2    1    1    2  501    0 -0.46377940993E+01 -0.13112356652E+03 -0.85910690209E+03  0.86906821829E+03  0.00000000000E+00 0. -1.
          1    1    1    2  502    0 -0.49952008289E+02  0.95838020084E+02  0.13146497748E+04  0.13190845915E+04  0.00000000000E+00 0. -1.
         22    1    3    3    0    0  0.75860043375E+02 -0.21373853396E+02  0.50440454241E+02  0.93572577254E+02  0.00000000000E+00 0.  1.
         22    1    3    3    0    0 -0.21270240987E+02  0.56659399836E+02  0.18525620182E+02  0.63292253433E+02  0.00000000000E+00 0.  1.
</event>
<event>
 7    1  0.4915160E-006  0.5935878E+02  0.7818608E-02  0.1509833E+00
          2   -1    0    0  502    0  0.00000000000E+00  0.00000000000E+00  0.73032745970E+03  0.73032745970E+03  0.00000000000E+00 0. -1.
          1   -1    0    0  501    0 -0.00000000000E+00 -0.00000000000E+00 -0.28522506284E+02  0.28522506284E+02  0.00000000000E+00 0. -1.
         25    2    1    2    0    0 -0.16556163373E+02  0.72090974552E+02  0.23437780199E+03  0.27573393887E+03  0.12500014330E+03 0.  0.
          2    1    1    2  501    0 -0.32875372877E+01 -0.54287486753E+02  0.92959258795E+02  0.10770033851E+03  0.00000000000E+00 0. -1.
          1    1    1    2  502    0  0.19843700660E+02 -0.17803487799E+02  0.37446789263E+03  0.37541568860E+03  0.00000000000E+00 0. -1.
         22    1    3    3    0    0  0.88352625351E+01  0.46829588230E+02  0.23512818406E+03  0.23990901429E+03  0.00000000000E+00 0.  1.
         22    1    3    3    0    0 -0.25391425908E+02  0.25261386322E+02 -0.75038206911E+00  0.35824924589E+02  0.00000000000E+00 0.  1.
</event>
<event>
 7    1  0.4915160E-006  0.1351076E+03  0.7818608E-02  0.1299409E+00
          2   -1    0    0  502    0  0.00000000000E+00  0.00000000000E+00  0.17135284596E+04  0.17135284596E+04  0.00000000000E+00 0. -1.
          1   -1    0    0  501    0 -0.00000000000E+00 -0.00000000000E+00 -0.12725920814E+03  0.12725920814E+03  0.00000000000E+00 0. -1.
         25    2    1    2    0    0 -0.14773526074E+03 -0.97513256358E+01  0.34151002894E+03  0.39265108365E+03  0.12499991203E+03 0.  0.
          2    1    1    2  501    0  0.29104148728E+02 -0.54610202536E+02 -0.88541175210E+02  0.10802252266E+03  0.00000000000E+00 0. -1.
          1    1    1    2  502    0  0.11863111201E+03  0.64361528172E+02  0.13333003977E+04  0.13401140614E+04  0.00000000000E+00 0. -1.
         22    1    3    3    0    0 -0.13457992607E+03 -0.22521603903E+02  0.16028083391E+03  0.21049685238E+03  0.00000000000E+00 0.  1.
         22    1    3    3    0    0 -0.13155334665E+02  0.12770278267E+02  0.18122919503E+03  0.18215423127E+03  0.00000000000E+00 0.  1.
</event>
<event>
 7    1  0.5197720E-006  0.8411030E+02  0.7818608E-02  0.1333869E+00
          2   -1    0    0  502    0  0.00000000000E+00  0.00000000000E+00  0.37911943158E+03  0.37911943158E+03  0.00000000000E+00 0. -1.
          1   -1    0    0  501    0 -0.00000000000E+00 -0.00000000000E+00 -0.14428126263E+04  0.14428126263E+04  0.00000000000E+00 0. -1.
         25    2    1    2    0    0  0.30514598685E+02 -0.88919602684E+02 -0.35849252826E+03  0.39112361368E+03  0.12499180729E+03 0.  0.
          2    1    1    2  501    0  0.47064091206E+02  0.55724612978E+02 -0.10618299544E+04  0.10643322382E+04  0.00000000000E+00 0. -1.
          1    1    1    2  502    0 -0.77578689891E+02  0.33194989706E+02  0.35662928800E+03  0.36647620595E+03  0.00000000000E+00 0. -1.
         22    1    3    3    0    0 -0.46112918614E+02 -0.29080909049E+02 -0.86183277121E+02  0.10197871243E+03  0.00000000000E+00 0. -1.
         22    1    3    3    0    0  0.76627517299E+02 -0.59838693634E+02 -0.27230925113E+03  0.28914490125E+03  0.00000000000E+00 0. -1.
</event>
<event>
 7    1  0.4915160E-006  0.1046290E+03  0.7818608E-02  0.1284919E+00
          2   -1    0    0  502    0  0.00000000000E+00  0.00000000000E+00  0.83720924926E+03  0.83720924926E+03  0.00000000000E+00 0. -1.
          1   -1    0    0  501    0 -0.00000000000E+00 -0.00000000000E+00 -0.72647688996E+03  0.72647688996E+03  0.00000000000E+00 0. -1.
         25    2    1    2    0    0  0.22143189337E+02  0.19140804643E+03 -0.10835340205E+02  0.22993369316E+03  0.12499895032E+03 0.  0.
          2    1    1    2  501    0 -0.12648150118E+02 -0.10042302312E+03 -0.59895437982E+03  0.60744638313E+03  0.00000000000E+00 0. -1.
          1    1    1    2  502    0 -0.94950392190E+01 -0.90985023307E+02  0.72052207933E+03  0.72630606292E+03  0.00000000000E+00 0. -1.
         22    1    3    3    0    0  0.12206858204E+02  0.10531671555E+03 -0.68147090352E+02  0.12603429646E+03  0.00000000000E+00 0.  1.
         22    1    3    3    0    0  0.99363311324E+01  0.86091330884E+02  0.57311750147E+02  0.10389939670E+03  0.00000000000E+00 0.  1.
</event>
<event>
 7    1  0.4915160E-006  0.1137553E+03  0.7818608E-02  0.1370884E+00
          2   -1    0    0  502    0  0.00000000000E+00  0.00000000000E+00  0.17598929093E+04  0.17598929093E+04  0.00000000000E+00 0. -1.
          1   -1    0    0  501    0 -0.00000000000E+00 -0.00000000000E+00 -0.35867674944E+02  0.35867674944E+02  0.00000000000E+00 0. -1.
         25    2    1    2    0    0  0.14935740503E+02 -0.82335716737E+02  0.49590083756E+03  0.51821391966E+03  0.12500311692E+03 0.  0.
          2    1    1    2  501    0 -0.24975115116E+02  0.12040427492E+03  0.13083610100E+03  0.17955230747E+03  0.00000000000E+00 0. -1.
          1    1    1    2  502    0  0.10039374613E+02 -0.38068558180E+02  0.10972882958E+04  0.10979943571E+04  0.00000000000E+00 0. -1.
         22    1    3    3    0    0  0.47731018734E+02  0.77128615928E+01  0.10284311642E+03  0.11364173959E+03  0.00000000000E+00 0. -1.
         22    1    3    3    0    0 -0.32795278231E+02 -0.90048578330E+02  0.39305772114E+03  0.40457218007E+03  0.00000000000E+00 0. -1.
</event>
<event>
 7    1  0.4915160E-006  0.1290127E+03  0.7818608E-02  0.1239248E+00
          2   -1    0    0  502    0  0.00000000000E+00  0.00000000000E+00  0.11657704822E+04  0.11657704822E+04  0.00000000000E+00 0. -1.
          1   -1    0    0  501    0 -0.00000000000E+00 -0.00000000000E+00 -0.11545371307E+03  0.11545371307E+03  0.00000000000E+00 0. -1.
         25    2    1    2    0    0  0.11761939037E+03 -0.16109008488E+03  0.52592038545E+03  0.57619616404E+03  0.12500172472E+03 0.  0.
          2    1    1    2  501    0 -0.96001506326E+01  0.11565911282E+03 -0.44419336438E+02  0.12426693333E+03  0.00000000000E+00 0. -1.
          1    1    1    2  502    0 -0.10801923974E+03  0.45430972060E+02  0.56881572008E+03  0.58076109786E+03  0.00000000000E+00 0. -1.
         22    1    3    3    0    0  0.76089224618E+02 -0.78376549637E+02  0.42690498994E+03  0.44065896573E+03  0.00000000000E+00 0.  1.
         22    1    3    3    0    0  0.41530165754E+02 -0.82713535238E+02  0.99015395511E+02  0.13553719832E+03  0.00000000000E+00 0.  1.
</event>
<event>
 7    1  0.4915160E-006  0.2222499E+03  0.7818608E-02  0.1203988E+00
          2   -1    0    0  502    0  0.00000000000E+00  0.00000000000E+00  0.11843031381E+04  0.11843031381E+04  0.00000000000E+00 0. -1.
          1   -1    0    0  501    0 -0.00000000000E+00 -0.00000000000E+00 -0.14398301831E+03  0.14398301831E+03  0.00000000000E+00 0. -1.
         25    2    1    2    0    0  0.28045132148E+03  0.47635526784E+02  0.27459490870E+03  0.41467008049E+03  0.12500729836E+03 0.  0.
          2    1    1    2  501    0 -0.18561878620E+03 -0.70113055573E+02  0.68949879678E+02  0.21005775458E+03  0.00000000000E+00 0. -1.
          1    1    1    2  502    0 -0.94832535280E+02  0.22477528789E+02  0.69677533144E+03  0.70355832136E+03  0.00000000000E+00 0. -1.
         22    1    3    3    0    0  0.13467110916E+03  0.85965326066E+02  0.14905814761E+03  0.21850555209E+03  0.00000000000E+00 0. -1.
         22    1    3    3    0    0  0.14578021232E+03 -0.38329799281E+02  0.12553676109E+03  0.19616452840E+03  0.00000000000E+00 0. -1.
</event>
<event>
 7    1  0.4915160E-006  0.5946925E+02  0.7818608E-02  0.1400669E+00
          2   -1    0    0  502    0  0.00000000000E+00  0.00000000000E+00  0.95524821928E+03  0.95524821928E+03  0.00000000000E+00 0. -1.
          1   -1    0    0  501    0 -0.00000000000E+00 -0.00000000000E+00 -0.15164324237E+04  0.15164324237E+04  0.00000000000E+00 0. -1.
         25    2    1    2    0    0  0.31427705515E+00 -0.10281560963E+01 -0.35231111337E+02  0.12987467530E+03  0.12500017681E+03 0.  0.
          2    1    1    2  501    0  0.38484597381E+02 -0.44969746588E+02 -0.14322705219E+04  0.14334930032E+04  0.00000000000E+00 0. -1.
          1    1    1    2  502    0 -0.38798874436E+02  0.45997902684E+02  0.90631742881E+03  0.90831296449E+03  0.00000000000E+00 0. -1.
         22    1    3    3    0    0 -0.57333055953E+02  0.42784494394E+01 -0.42546352401E+02  0.71523258715E+02  0.00000000000E+00 0. -1.
         22    1    3    3    0    0  0.57647333008E+02 -0.53066055357E+01  0.73152410646E+01  0.58351416582E+02  0.00000000000E+00 0. -1.
</event>
<event>
 7    1  0.4915160E-006  0.2268920E+03  0.7818608E-02  0.1245247E+00
          2   -1    0    0  502    0  0.00000000000E+00  0.00000000000E+00  0.66311135565E+03  0.66311135565E+03  0.00000000000E+00 0. -1.
          1   -1    0    0  501    0 -0.00000000000E+00 -0.00000000000E+00 -0.39897099022E+03  0.39897099022E+03  0.00000000000E+00 0. -1.
         25    2    1    2    0    0 -0.21733322191E+03 -0.83774808364E+02 -0.91391604576E+02  0.27969564940E+03  0.12500113218E+03 0.  0.
          2    1    1    2  501    0  0.18181681674E+03  0.13472210722E+03 -0.15101083815E+03  0.27205086705E+03  0.00000000000E+00 0. -1.
          1    1    1    2  502    0  0.35516405163E+02 -0.50947298861E+02  0.50654280816E+03  0.51033582942E+03  0.00000000000E+00 0. -1.
         22    1    3    3    0    0 -0.14440176523E+03 -0.70668757146E+02 -0.11963507233E+03  0.20039584220E+03  0.00000000000E+00 0.  1.
         22    1    3    3    0    0 -0.72931456680E+02 -0.13106051218E+02  0.28243467755E+02  0.79299807206E+02  0.00000000000E+00 0.  1.
</event>
<event>
 7    1  0.4915160E-006  0.7582529E+02  0.7818608E-02  0.1342357E+00
          2   -1    0    0  502    0  0.00000000000E+00  0.00000000000E+00  0.18495789389E+04  0.18495789389E+04  0.00000000000E+00 0. -1.
          1   -1    0    0  501    0 -0.00000000000E+00 -0.00000000000E+00 -0.18873181655E+04  0.18873181655E+04  0.00000000000E+00 0. -1.
         25    2    1    2    0    0  0.73066639372E+02 -0.26795479370E+02  0.68000021235E+02  0.16219017344E+03  0.12499967187E+03 0.  0.
          2    1    1    2  501    0 -0.12966314852E+02  0.74031223282E+02 -0.18386127456E+04  0.18401482483E+04  0.00000000000E+00 0. -1.
          1    1    1    2  502    0 -0.60100324520E+02 -0.47235743912E+02  0.17328734977E+04  0.17345586827E+04  0.00000000000E+00 0. -1.
         22    1    3    3    0    0  0.47547529656E+02 -0.75560230079E+02  0.57411931168E+02  0.10614257292E+03  0.00000000000E+00 0. -1.
         22    1    3    3    0    0  0.25519109717E+02  0.48764750710E+02  0.10588090067E+02  0.56047600517E+02  0.00000000000E+00 0. -1.
</event>
<event>
 7    1  0.4915160E-006  0.1877786E+03  0.7818608E-02  0.1310082E+00
          2   -1    0    0  502    0  0.00000000000E+00  0.00000000000E+00  0.56873076829E+03  0.56873076829E+03  0.00000000000E+00 0. -1.
          1   -1    0    0  501    0 -0.00000000000E+00 -0.00000000000E+00 -0.17371587330E+04  0.17371587330E+04  0.00000000000E+00 0. -1.
         25    2    1    2    0    0 -0.10391251738E+02  0.17871026968E+03 -0.13673280338E+03  0.25761441435E+03  0.12499595336E+03 0.  0.
          2    1    1    2  501    0  0.50633357363E+02 -0.18206712407E+03 -0.15333732729E+04  0.15449743586E+04  0.00000000000E+00 0. -1.
          1    1    1    2  502    0 -0.40242105625E+02  0.33568543923E+01  0.50167811159E+03  0.50330072838E+03  0.00000000000E+00 0. -1.
         22    1    3    3    0    0 -0.66643904790E+02  0.99063246548E+02 -0.60530384892E+02  0.13386136245E+03  0.00000000000E+00 0.  1.
         22    1    3    3    0    0  0.56252653052E+02  0.79647023133E+02 -0.76202418489E+02  0.12375305189E+03  0.00000000000E+00 0.  1.
</event>
<event>
 7    1  0.4915160E-006  0.9546333E+02  0.7818608E-02  0.1360359E+00
          2   -1    0    0  502    0  0.00000000000E+00  0.00000000000E+00  0.23531796634E+03  0.23531796634E+03  0.00000000000E+00 0. -1.
          1   -1    0    0  501    0 -0.00000000000E+00 -0.00000000000E+00 -0.22057941536E+04  0.22057941536E+04  0.00000000000E+00 0. -1.
         25    2    1    2    0    0  0.28107528157E+02  0.12746127425E+03 -0.49159289298E+03  0.52376044630E+03  0.12500009244E+03 0.  0.
          2    1    1    2  501    0  0.21421439919E+02 -0.46518843826E+02 -0.16874422899E+04  0.16882192875E+04  0.00000000000E+00 0. -1.
          1    1    1    2  502    0 -0.49528968076E+02 -0.80942430427E+02  0.20855899562E+03  0.22913238614E+03  0.00000000000E+00 0. -1.
         22    1    3    3    0    0  0.11953025305E+02  0.13465983743E+03 -0.27486153478E+03  0.30630868406E+03  0.00000000000E+00 0.  1.
         22    1    3    3    0    0  0.16154502852E+02 -0.71985631774E+01 -0.21673135820E+03  0.21745176224E+03  0.00000000000E+00 0.  1.
</event>
<event>
 7    1  0.4915160E-006  0.6540111E+02  0.7818608E-02  0.1415964E+00
          2   -1    0    0  502    0  0.00000000000E+00  0.00000000000E+00  0.41413676665E+03  0.41413676665E+03  0.00000000000E+00 0. -1.
          1   -1    0    0  501    0 -0.00000000000E+00 -0.00000000000E+00 -0.16615759740E+04  0.16615759740E+04  0.00000000000E+00 0. -1.
         25    2    1    2    0    0  0.49738662562E+02  0.96017018749E+01 -0.11517860839E+03  0.17736006958E+03  0.12499742085E+03 0.  0.
          2    1    1    2  501    0  0.42330423399E+01 -0.47564006485E+02 -0.15120851771E+04  0.15128389987E+04  0.00000000000E+00 0. -1.
          1    1    1    2  502    0 -0.53971704902E+02  0.37962304610E+02  0.37982457806E+03  0.38551367239E+03  0.00000000000E+00 0. -1.
         22    1    3    3    0    0 -0.18745433393E+02  0.20585266638E+02 -0.10330604877E+03  0.10699198189E+03  0.00000000000E+00 0.  1.
         22    1    3    3    0    0  0.68484095954E+02 -0.10983564763E+02 -0.11872559611E+02  0.70368087691E+02  0.00000000000E+00 0.  1.
</event>
<event>
 7    1  0.4915160E-006  0.5934777E+02  0.7818608E-02  0.1487005E+00
          2   -1    0    0  502    0  0.00000000000E+00  0.00000000000E+00  0.36388156778E+03  0.36388156778E+03  0.00000000000E+00 0. -1.
          1   -1    0    0  501    0 -0.00000000000E+00 -0.00000000000E+00 -0.12110211647E+03  0.12110211647E+03  0.00000000000E+00 0. -1.
         25    2    1    2    0    0 -0.17709717609E+02  0.75356458072E+02  0.20576169725E+02  0.14845998061E+03  0.12499902884E+03 0.  0.
          2    1    1    2  501    0 -0.15608590759E+02 -0.27019573419E+02 -0.49519662136E+02  0.58531037846E+02  0.00000000000E+00 0. -1.
          1    1    1    2  502    0  0.33318308368E+02 -0.48336884653E+02  0.27172294372E+03  0.27799266579E+03  0.00000000000E+00 0. -1.
         22    1    3    3    0    0 -0.29862486670E+02 -0.25227627280E+02  0.26082852110E+02  0.46994855702E+02  0.00000000000E+00 0.  1.
         22    1    3    3    0    0  0.12152769061E+02  0.10058408535E+03 -0.55066823849E+01  0.10146512491E+03  0.00000000000E+00 0.  1.
</event>
<event>
 7    1  0.4915160E-006  0.4401775E+03  0.7818608E-02  0.1255591E+00
          2   -1    0    0  502    0  0.00000000000E+00  0.00000000000E+00  0.11446678903E+03  0.11446678903E+03  0.00000000000E+00 0. -1.
          1   -1    0    0  501    0 -0.00000000000E+00 -0.00000000000E+00 -0.24429166426E+04  0.24429166426E+04  0.00000000000E+00 0. -1.
         25    2    1    2    0    0 -0.34255360470E+03 -0.25293490445E+03 -0.82495952620E+03  0.93675081692E+03  0.12499934058E+03 0.  0.
          2    1    1    2  501    0 -0.22166172539E+02 -0.18499947656E+02 -0.67482939766E+03  0.67544674344E+03  0.00000000000E+00 0. -1.
          1    1    1    2  502    0  0.36471977724E+03  0.27143485211E+03 -0.82866092975E+03  0.94518587132E+03  0.00000000000E+00 0. -1.
         22    1    3    3    0    0 -0.21709936452E+03 -0.21016098967E+03 -0.65400483536E+03  0.72043188459E+03  0.00000000000E+00 0. -1.
         22    1    3    3    0    0 -0.12545424018E+03 -0.42773914782E+02 -0.17095469084E+03  0.21631893233E+03  0.00000000000E+00 0. -1.
</event>
<event>
 7    1  0.4915160E-006  0.9061615E+02  0.7818608E-02  0.1313174E+00
          2   -1    0    0  502    0  0.00000000000E+00  0.00000000000E+00  0.26241129094E+03  0.26241129094E+03  0.00000000000E+00 0. -1.
          1   -1    0    0  501    0 -0.00000000000E+00 -0.00000000000E+00 -0.21613295053E+03  0.21613295053E+03  0.00000000000E+00 0. -1.
         25    2    1    2    0    0 -0.82492551087E+02 -0.32104937140E+02  0.39872647772E+02  0.15827311746E+03  0.12499921478E+03 0.  0.
          2    1    1    2  501    0  0.27249401414E+02  0.91850990809E+02 -0.12996863043E+03  0.16146510238E+03  0.00000000000E+00 0. -1.
          1    1    1    2  502    0  0.55243149673E+02 -0.59746053669E+02  0.13637432307E+03  0.15880602164E+03  0.00000000000E+00 0. -1.
         22    1    3    3    0    0 -0.95100806805E+02 -0.32071675406E+02 -0.15438074896E+02  0.10154353734E+03  0.00000000000E+00 0. -1.
         22    1    3    3    0    0  0.12608255717E+02 -0.33261733361E-01  0.55310722668E+02  0.56729580121E+02  0.00000000000E+00 0. -1.
</event>
<event>
 7    1  0.4915160E-006  0.1228119E+03  0.7818608E-02  0.1328524E+00
          2   -1    0    0  502    0  0.00000000000E+00  0.00000000000E+00  0.11394448304E+04  0.11394448304E+04  0.00000000000E+00 0. -1.
          1   -1    0    0  501    0 -0.00000000000E+00 -0.00000000000E+00 -0.12977196482E+03  0.12977196482E+03  0.00000000000E+00 0. -1.
         25    2    1    2    0    0 -0.13318835422E+03 -0.10412336009E+03  0.32353612844E+03  0.38585184538E+03  0.12500083342E+03 0.  0.
          2    1    1    2  501    0  0.86354957582E+02  0.80721120181E+02 -0.61943851005E+02  0.13345455638E+03  0.00000000000E+00 0. -1.
          1    1    1    2  502    0  0.46833396639E+02  0.23402239910E+02  0.74808058814E+03  0.74991039346E+03  0.00000000000E+00 0. -1.
         22    1    3    3    0    0 -0.75302942775E+02 -0.10559036506E+02  0.49967434729E+02  0.90987751791E+02  0.00000000000E+00 0.  1.
         22    1    3    3    0    0 -0.57885411446E+02 -0.93564323585E+02  0.27356869372E+03  0.29486409359E+03  0.00000000000E+00 0.  1.
</event>
<event>
 7    1  0.4915160E-006  0.4904553E+02  0.7818608E-02  0.1551316E+00
          2   -1    0    0  502    0  0.00000000000E+00  0.00000000000E+00  0.11757140523E+04  0.11757140523E+04  0.00000000000E+00 0. -1.
          1   -1    0    0  501    0 -0.00000000000E+00 -0.00000000000E+00 -0.17671014701E+04  0.17671014701E+04  0.00000000000E+00 0. -1.
         25    2    1    2    0    0  0.73055305487E+02  0.87659624851E+01  0.76165376435E+03  0.77534744642E+03  0.12503314029E+03 0.  0.
          2    1    1    2  501    0 -0.48675775563E+02 -0.59214655828E+01 -0.17595428999E+04  0.17602260114E+04  0.00000000000E+00 0. -1.
          1    1    1    2  502    0 -0.24379529924E+02 -0.28444969023E+01  0.40650171772E+03  0.40724206456E+03  0.00000000000E+00 0. -1.
         22    1    3    3    0    0  0.96512807480E+01 -0.41764894276E+02  0.10075847763E+03  0.10949760010E+03  0.00000000000E+00 0.  1.
         22    1    3    3    0    0  0.63404024739E+02  0.50530856762E+02  0.66089528672E+03  0.66584984632E+03  0.00000000000E+00 0.  1.
</event>
<event>
 7    1  0.4915160E-006  0.1776645E+03  0.7818608E-02  0.1304658E+00
          2   -1    0    0  502    0  0.00000000000E+00  0.00000000000E+00  0.12419506816E+04  0.12419506816E+04  0.00000000000E+00 0. -1.
          1   -1    0    0  501    0 -0.00000000000E+00 -0.00000000000E+00 -0.14293728462E+03  0.14293728462E+03  0.00000000000E+00 0. -1.
         25    2    1    2    0    0  0.15145300590E+03  0.29139074335E+02  0.10584458002E+03  0.22497855420E+03  0.12500070432E+03 0.  0.
          2    1    1    2  501    0 -0.18519217108E+03 -0.58678143461E+02  0.31032859748E+02  0.19672900938E+03  0.00000000000E+00 0. -1.
          1    1    1    2  502    0  0.33739165176E+02  0.29539069126E+02  0.96213595717E+03  0.96318040259E+03  0.00000000000E+00 0. -1.
         22    1    3    3    0    0  0.67823762086E+01 -0.33230686602E+02  0.44414645664E+02  0.55883270382E+02  0.00000000000E+00 0.  1.
         22    1    3    3    0    0  0.14467062969E+03  0.62369760937E+02  0.61429934353E+02  0.16909528382E+03  0.00000000000E+00 0.  1.
</event>
<event>
 7    1  0.4915160E-006  0.5137465E+03  0.7818608E-02  0.1030204E+00
          2   -1    0    0  502    0  0.00000000000E+00  0.00000000000E+00  0.12207603002E+04  0.12207603002E+04  0.00000000000E+00 0. -1.
          1   -1    0    0  501    0 -0.00000000000E+00 -0.00000000000E+00 -0.40903119694E+04  0.40903119694E+04  0.00000000000E+00 0. -1.
         25    2    1    2    0    0 -0.53474608434E+03  0.28508640986E+03  0.34651089823E+03  0.70917033009E+03  0.12500047470E+03 0.  0.
          2    1    1    2  501    0  0.50629767141E+03  0.93733237769E+02 -0.38383995760E+04  0.38727812431E+04  0.00000000000E+00 0. -1.
          1    1    1    2  502    0  0.28448412933E+02 -0.37881964763E+03  0.62233700863E+03  0.72912069642E+03  0.00000000000E+00 0. -1.
         22    1    3    3    0    0 -0.39864810604E+03  0.21063335645E+03  0.19146790865E+03  0.48984352944E+03  0.00000000000E+00 0. -1.
         22    1    3    3    0    0 -0.13609797831E+03  0.74453053418E+02  0.15504298958E+03  0.21932680065E+03  0.00000000000E+00 0. -1.
</event>
<event>
 7    1  0.4915160E-006  0.5964152E+02  0.7818608E-02  0.1551153E+00
          2   -1    0    0  502    0  0.00000000000E+00  0.00000000000E+00  0.35284221932E+04  0.35284221932E+04  0.00000000000E+00 0. -1.
          1   -1    0    0  501    0 -0.00000000000E+00 -0.00000000000E+00 -0.12613369385E+04  0.12613369385E+04  0.00000000000E+00 0. -1.
         25    2    1    2    0    0  0.78305715734E+01  0.50277634870E+02  0.66585059083E+03  0.67938916247E+03  0.12499386525E+03 0.  0.
          2    1    1    2  501    0 -0.18082949800E+02  0.90147322729E+01 -0.12541693091E+04  0.12543320590E+04  0.00000000000E+00 0. -1.
          1    1    1    2  502    0  0.10252378227E+02 -0.59292367143E+02  0.28554039729E+04  0.28560379102E+04  0.00000000000E+00 0. -1.
         22    1    3    3    0    0  0.55859906744E+02  0.63885993499E+02  0.40250425526E+03  0.41135316317E+03  0.00000000000E+00 0. -1.
         22    1    3    3    0    0 -0.48029335170E+02 -0.13608358629E+02  0.26334633557E+03  0.26803599930E+03  0.00000000000E+00 0. -1.
</event>
<event>
 7    1  0.4915160E-006  0.1792425E+03  0.7818608E-02  0.1244455E+00
          2   -1    0    0  502    0  0.00000000000E+00  0.00000000000E+00  0.94351019915E+03  0.94351019915E+03  0.00000000000E+00 0. -1.
          1   -1    0    0  501    0 -0.00000000000E+00 -0.00000000000E+00 -0.11018971599E+04  0.11018971599E+04  0.00000000000E+00 0. -1.
         25    2    1    2    0    0 -0.10774808361E+03 -0.18898657794E+03  0.18256703457E+03  0.31028557798E+03  0.12498336539E+03 0.  0.
          2    1    1    2  501    0  0.13637296385E+03  0.11509218424E+03 -0.10280745338E+04  0.10434467131E+04  0.00000000000E+00 0. -1.
          1    1    1    2  502    0 -0.28624880234E+02  0.73894393699E+02  0.68712053847E+03  0.69167506792E+03  0.00000000000E+00 0. -1.
         22    1    3    3    0    0 -0.51464824094E+02 -0.10983122101E+03  0.17492192219E+03  0.21285958773E+03  0.00000000000E+00 0. -1.
         22    1    3    3    0    0 -0.56283259517E+02 -0.79155356928E+02  0.76451123868E+01  0.97425990247E+02  0.00000000000E+00 0. -1.
</event>
<event>
 7    1  0.4915160E-006  0.3506871E+03  0.7818608E-02  0.1261896E+00
          2   -1    0    0  502    0  0.00000000000E+00  0.00000000000E+00  0.22951596576E+04  0.22951596576E+04  0.00000000000E+00 0. -1.
          1   -1    0    0  501    0 -0.00000000000E+00 -0.00000000000E+00 -0.97869642668E+03  0.97869642668E+03  0.00000000000E+00 0. -1.
         25    2    1    2    0    0 -0.37867128693E+03  0.55237739078E+02 -0.53881474447E+03  0.67259866521E+03  0.12499793688E+03 0.  0.
          2    1    1    2  501    0  0.31181354917E+02 -0.13698914072E+02 -0.35843650977E+03  0.36005092511E+03  0.00000000000E+00 0. -1.
          1    1    1    2  502    0  0.34748993201E+03 -0.41538825006E+02  0.22137144851E+04  0.22412064939E+04  0.00000000000E+00 0. -1.
         22    1    3    3    0    0 -0.21606861113E+03 -0.25065412933E+02 -0.24803547122E+03  0.32990228041E+03  0.00000000000E+00 0.  1.
         22    1    3    3    0    0 -0.16260267580E+03  0.80303152011E+02 -0.29077927325E+03  0.34269638479E+03  0.00000000000E+00 0.  1.
</event>
<event>
 7    1  0.4915160E-006  0.5049497E+02  0.7818608E-02  0.1511618E+00
          2   -1    0    0  502    0  0.00000000000E+00  0.00000000000E+00  0.18398438203E+04  0.18398438203E+04  0.00000000000E+00 0. -1.
          1   -1    0    0  501    0 -0.00000000000E+00 -0.00000000000E+00 -0.81882048144E+02  0.81882048144E+02  0.00000000000E+00 0. -1.
         25    2    1    2    0    0  0.32449485407E+02  0.45274060004E+02  0.11187590946E+04  0.11270982624E+04  0.12500348678E+03 0.  0.
          2    1    1    2  501    0  0.15161258631E+02 -0.26997103915E+02 -0.73680817784E+02  0.79922276571E+02  0.00000000000E+00 0. -1.
          1    1    1    2  502    0 -0.47610744038E+02 -0.18276956090E+02  0.71288349538E+03  0.71470532953E+03  0.00000000000E+00 0. -1.
         22    1    3    3    0    0  0.55221309294E+02  0.55170204599E+02  0.10652836807E+04  0.10681397215E+04  0.00000000000E+00 0.  1.
         22    1    3    3    0    0 -0.22771823886E+02 -0.98961445945E+01  0.53475413927E+02  0.58958540820E+02  0.00000000000E+00 0.  1.
</event>
<event>
 7    1  0.4915160E-006  0.2180823E+03  0.7818608E-02  0.1338554E+00
          2   -1    0    0  502    0  0.00000000000E+00  0.00000000000E+00  0.24424987969E+04  0.24424987969E+04  0.00000000000E+00 0. -1.
          1   -1    0    0  501    0 -0.00000000000E+00 -0.00000000000E+00 -0.70523292504E+03  0.70523292504E+03  0.00000000000E+00 0. -1.
         25    2    1    2    0    0  0.23532761328E+03  0.44340102021E+02  0.33881467617E+03  0.43331882559E+03  0.12499875843E+03 0.  0.
          2    1    1    2  501    0 -0.26022106076E+02  0.72251030275E+01 -0.65205148848E+03  0.65261052378E+03  0.00000000000E+00 0. -1.
          1    1    1    2  502    0 -0.20930550720E+03 -0.51565205049E+02  0.20505026842E+04  0.20618023726E+04  0.00000000000E+00 0. -1.
         22    1    3    3    0    0  0.45311529331E+02 -0.13962235826E+02  0.15679604061E+03  0.16380804947E+03  0.00000000000E+00 0. -1.
         22    1    3    3    0    0  0.19001608395E+03  0.58302337847E+02  0.18201863556E+03  0.26951077613E+03  0.00000000000E+00 0. -1.
</event>
<event>
 7    1  0.8454792E-006  0.9785297E+02  0.7818608E-02  0.1365497E+00
          2   -1    0    0  502    0  0.00000000000E+00  0.00000000000E+00  0.58650820820E+03  0.58650820820E+03  0.00000000000E+00 0. -1.
          1   -1    0    0  501    0 -0.00000000000E+00 -0.00000000000E+00 -0.26963667413E+04  0.26963667413E+04  0.00000000000E+00 0. -1.
         25    2    1    2    0    0  0.28162210795E+02  0.74567742286E+02 -0.10154622052E+04  0.10262269299E+04  0.12499905277E+03 0.  0.
          2    1    1    2  501    0 -0.42310683019E+02  0.22371903704E+02 -0.16710482769E+04  0.16717335433E+04  0.00000000000E+00 0. -1.
          1    1    1    2  502    0  0.14148472224E+02 -0.96939645990E+02  0.57665194903E+03  0.58491447627E+03  0.00000000000E+00 0. -1.
         22    1    3    3    0    0 -0.41953272952E+02  0.57826434664E+02 -0.37712412118E+03  0.38383144274E+03  0.00000000000E+00 0.  1.
         22    1    3    3    0    0  0.70115483746E+02  0.16741307622E+02 -0.63833808405E+03  0.64239548721E+03  0.00000000000E+00 0.  1.
</event>
<event>
 7    1  0.4915160E-006  0.1038133E+03  0.7818608E-02  0.1363754E+00
          2   -1    0    0  502    0  0.00000000000E+00  0.00000000000E+00  0.45443114888E+03  0.45443114888E+03  0.00000000000E+00 0. -1.
          1   -1    0    0  501    0 -0.00000000000E+00 -0.00000000000E+00 -0.11759591813E+03  0.11759591813E+03  0.00000000000E+00 0. -1.
         25    2    1    2    0    0 -0.62153800818E+02  0.16249147325E+02  0.22924323950E+03  0.26890061377E+03  0.12501178940E+03 0.  0.
          2    1    1    2  501    0  0.10109727501E+03 -0.40305123104E+02 -0.63507762384E+02  0.12600951490E+03  0.00000000000E+00 0. -1.
          1    1    1    2  502    0 -0.38943474192E+02  0.24055975779E+02  0.17109975363E+03  0.17711693834E+03  0.00000000000E+00 0. -1.
         22    1    3    3    0    0 -0.40298342913E+02 -0.51672141569E+02  0.79485917925E+02  0.10301445435E+03  0.00000000000E+00 0. -1.
         22    1    3    3    0    0 -0.21855457905E+02  0.67921288895E+02  0.14975732157E+03  0.16588615943E+03  0.00000000000E+00 0. -1.
</event>
<event>
 7    1  0.4915160E-006  0.4320394E+03  0.7818608E-02  0.1190760E+00
          2   -1    0    0  502    0  0.00000000000E+00  0.00000000000E+00  0.24278636186E+04  0.24278636186E+04  0.00000000000E+00 0. -1.
          1   -1    0    0  501    0 -0.00000000000E+00 -0.00000000000E+00 -0.11452549321E+03  0.11452549321E+03  0.00000000000E+00 0. -1.
         25    2    1    2    0    0  0.44667564403E+03 -0.14914162177E+03  0.15097437586E+04  0.15864153107E+04  0.12499986833E+03 0.  0.
          2    1    1    2  501    0 -0.38880455048E+03  0.15147570000E+03  0.52096827673E+03  0.66747420289E+03  0.00000000000E+00 0. -1.
          1    1    1    2  502    0 -0.57871093554E+02 -0.23340782283E+01  0.28262609004E+03  0.28849959820E+03  0.00000000000E+00 0. -1.
         22    1    3    3    0    0  0.19341955864E+03 -0.69045262509E+02  0.46317141592E+03  0.50666175548E+03  0.00000000000E+00 0.  1.
         22    1    3    3    0    0  0.25325608539E+03 -0.80096359264E+02  0.10465723427E+04  0.10797535552E+04  0.00000000000E+00 0.  1.
</event>
<event>
 7    1  0.4915160E-006  0.4775716E+02  0.7818608E-02  0.1547628E+00
          2   -1    0    0  502    0  0.00000000000E+00  0.00000000000E+00  0.98856159808E+01  0.98856159808E+01  0.00000000000E+00 0. -1.
          1   -1    0    0  501    0 -0.00000000000E+00 -0.00000000000E+00 -0.19409930251E+04  0.19409930251E+04  0.00000000000E+00 0. -1.
         25    2    1    2    0    0 -0.31148987487E+02 -0.45797872128E+02 -0.94798658439E+03  0.95779639399E+03  0.12501065413E+03 0.  0.
          2    1    1    2  501    0  0.25773620830E+02 -0.14024095891E+01 -0.87010857338E+03  0.87049134157E+03  0.00000000000E+00 0. -1.
          1    1    1    2  502    0  0.53753666576E+01  0.47200281717E+02 -0.11301225137E+03  0.12259090554E+03  0.00000000000E+00 0. -1.
         22    1    3    3    0    0 -0.21881994597E+02 -0.68374467907E+02 -0.90880458961E+03  0.91163571214E+03  0.00000000000E+00 0.  1.
         22    1    3    3    0    0 -0.92669928900E+01  0.22576595779E+02 -0.39181994778E+02  0.46160681851E+02  0.00000000000E+00 0.  1.
</event>
<event>
 7    1  0.4915160E-006  0.6436490E+02  0.7818608E-02  0.1524025E+00
          2   -1    0    0  502    0  0.00000000000E+00  0.00000000000E+00  0.72742450922E+03  0.72742450922E+03  0.00000000000E+00 0. -1.
          1   -1    0    0  501    0 -0.00000000000E+00 -0.00000000000E+00 -0.72285384121E+03  0.72285384121E+03  0.00000000000E+00 0. -1.
         25    2    1    2    0    0  0.41585691814E+02 -0.10109681965E+02  0.18476876581E+02  0.13341868146E+03  0.12501029622E+03 0.  0.
          2    1    1    2  501    0  0.20652971401E+02 -0.85467154471E+01 -0.66357424921E+03  0.66395058234E+03  0.00000000000E+00 0. -1.
          1    1    1    2  502    0 -0.62238663215E+02  0.18656397412E+02  0.64966804065E+03  0.65290908663E+03  0.00000000000E+00 0. -1.
         22    1    3    3    0    0  0.14732915089E+02 -0.66291436891E+02 -0.17954387723E+01  0.67932591534E+02  0.00000000000E+00 0.  1.
         22    1    3    3    0    0  0.26852776725E+02  0.56181754926E+02  0.20272315353E+02  0.65486089929E+02  0.00000000000E+00 0.  1.
</event>
<event>
 7    1  0.4915160E-006  0.6073617E+02  0.7818608E-02  0.1435423E+00
          2   -1    0    0  502    0  0.00000000000E+00  0.00000000000E+00  0.91784047003E+02  0.91784047003E+02  0.00000000000E+00 0. -1.
          1   -1    0    0  501    0 -0.00000000000E+00 -0.00000000000E+00 -0.53186464063E+03  0.53186464063E+03  0.00000000000E+00 0. -1.
         25    2    1    2    0    0 -0.41026812592E+01 -0.81138379389E+02 -0.27269665600E+03  0.31079228456E+03  0.12501243676E+03 0.  0.
          2    1    1    2  501    0 -0.30791138005E+02  0.31886480941E+02 -0.22505229485E+03  0.22937606079E+03  0.00000000000E+00 0. -1.
          1    1    1    2  502    0  0.34893819264E+02  0.49251898448E+02  0.57668357221E+02  0.83480342286E+02  0.00000000000E+00 0. -1.
         22    1    3    3    0    0  0.28413441463E+02 -0.32141031802E+02 -0.13448045979E+02  0.44957975062E+02  0.00000000000E+00 0.  1.
         22    1    3    3    0    0 -0.32516122722E+02 -0.48997347587E+02 -0.25924861002E+03  0.26583430949E+03  0.00000000000E+00 0.  1.
</event>
<event>
 7    1  0.4915160E-006  0.2206134E+03  0.7818608E-02  0.1214609E+00
          2   -1    0    0  502    0  0.00000000000E+00  0.00000000000E+00  0.25143453221E+03  0.25143453221E+03  0.00000000000E+00 0. -1.
          1   -1    0    0  501    0 -0.00000000000E+00 -0.00000000000E+00 -0.31271207206E+04  0.31271207206E+04  0.00000000000E+00 0. -1.
         25    2    1    2    0    0 -0.14631046426E+03 -0.22385104953E+03 -0.12583240871E+04  0.12924861203E+04  0.12499927521E+03 0.  0.
          2    1    1    2  501    0  0.86687702084E+02  0.12921713065E+02 -0.17991606442E+04  0.18012941881E+04  0.00000000000E+00 0. -1.
          1    1    1    2  502    0  0.59622762175E+02  0.21092933646E+03  0.18179854290E+03  0.28477494439E+03  0.00000000000E+00 0. -1.
         22    1    3    3    0    0 -0.37430429087E+02 -0.19089148774E+02 -0.43800715581E+03  0.44001784187E+03  0.00000000000E+00 0.  1.
         22    1    3    3    0    0 -0.10888003517E+03 -0.20476190076E+03 -0.82031693128E+03  0.85246827847E+03  0.00000000000E+00 0.  1.
</event>
<event>
 7    1  0.4915160E-006  0.2436176E+03  0.7818608E-02  0.1340396E+00
          2   -1    0    0  502    0  0.00000000000E+00  0.00000000000E+00  0.78437068083E+03  0.78437068083E+03  0.00000000000E+00 0. -1.
          1   -1    0    0  501    0 -0.00000000000E+00 -0.00000000000E+00 -0.49775844971E+03  0.49775844971E+03  0.00000000000E+00 0. -1.
         25    2    1    2    0    0 -0.12406536308E+03 -0.21154880284E+03  0.10684358967E+03  0.29527257117E+03  0.12500091332E+03 0.  0.
          2    1    1    2  501    0 -0.18861595375E+02  0.14502864378E+02 -0.37775738827E+03  0.37850592763E+03  0.00000000000E+00 0. -1.
          1    1    1    2  502    0  0.14292695845E+03  0.19704593847E+03  0.55752602973E+03  0.60835063174E+03  0.00000000000E+00 0. -1.
         22    1    3    3    0    0 -0.40466866001E+02 -0.68912585667E+02  0.10238711830E+03  0.12988315403E+03  0.00000000000E+00 0. -1.
         22    1    3    3    0    0 -0.83598497074E+02 -0.14263621718E+03  0.44564713669E+01  0.16538941714E+03  0.00000000000E+00 0. -1.
</event>
<event>
 7    1  0.4915160E-006  0.1055103E+03  0.7818608E-02  0.1372104E+00
          2   -1    0    0  502    0  0.00000000000E+00  0.00000000000E+00  0.20661564746E+03  0.20661564746E+03  0.00000000000E+00 0. -1.
          1   -1    0    0  501    0 -0.00000000000E+00 -0.00000000000E+00 -0.12728443904E+04  0.12728443904E+04  0.00000000000E+00 0. -1.
         25    2    1    2    0    0  0.33968346738E+02  0.11922934181E+03 -0.62185972992E+02  0.18670894214E+03  0.12499459713E+03 0.  0.
          2    1    1    2  501    0 -0.38948378883E+02 -0.15772789671E+02 -0.11293763644E+04  0.11301578339E+04  0.00000000000E+00 0. -1.
          1    1    1    2  502    0  0.49800321457E+01 -0.10345655214E+03  0.12533359441E+03  0.16259326182E+03  0.00000000000E+00 0. -1.
         22    1    3    3    0    0  0.80926238665E+02  0.87753987945E+02 -0.38641939011E+02  0.12547118376E+03  0.00000000000E+00 0.  1.
         22    1    3    3    0    0 -0.46957891927E+02  0.31475353868E+02 -0.23544033980E+02  0.61237758380E+02  0.00000000000E+00 0.  1.
</event>
<event>
 7    1  0.4915160E-006  0.4427655E+02  0.7818608E-02  0.1487090E+00
          2   -1    0    0  502    0  0.00000000000E+00  0.00000000000E+00  0.27832462767E+02  0.27832462767E+02  0.00000000000E+00 0. -1.
          1   -1    0    0  501    0 -0.00000000000E+00 -0.00000000000E+00 -0.91549119968E+03  0.91549119968E+03  0.00000000000E+00 0. -1.
         25    2    1    2    0    0  0.93344986381E+01 -0.58117584031E+02 -0.49988167481E+03  0.51862493622E+03  0.12500139689E+03 0.  0.
          2    1    1    2  501    0 -0.35969915010E+02  0.25902038821E+02 -0.37950841843E+03  0.38208819670E+03  0.00000000000E+00 0. -1.
          1    1    1    2  502    0  0.26635416371E+02  0.32215545210E+02 -0.82686436852E+01  0.42610529530E+02  0.00000000000E+00 0. -1.
         22    1    3    3    0    0 -0.34151423464E+01  0.25864261963E+02 -0.30400999976E+03  0.30512735571E+03  0.00000000000E+00 0.  1.
         22    1    3    3    0    0  0.12749640984E+02 -0.83981845994E+02 -0.19587167504E+03  0.21349758051E+03  0.00000000000E+00 0.  1.
</event>
<event>
 7    1  0.4915160E-006  0.7891326E+02  0.7818608E-02  0.1359343E+00
          2   -1    0    0  502    0  0.00000000000E+00  0.00000000000E+00  0.80108984495E+03  0.80108984495E+03  0.00000000000E+00 0. -1.
          1   -1    0    0  501    0 -0.00000000000E+00 -0.00000000000E+00 -0.50350883629E+03  0.50350883629E+03  0.00000000000E+00 0. -1.
         25    2    1    2    0    0  0.76204220621E+01 -0.11787549500E+03  0.41557068926E+03  0.44975332250E+03  0.12500540057E+03 0.  0.
          2    1    1    2  501    0  0.29203293321E+02  0.55242456769E+02 -0.48079395524E+03  0.48483748696E+03  0.00000000000E+00 0. -1.
          1    1    1    2  502    0 -0.36823715384E+02  0.62633038233E+02  0.36280427463E+03  0.37000787179E+03  0.00000000000E+00 0. -1.
         22    1    3    3    0    0  0.45470688303E+02 -0.10708688213E+03  0.20656714322E+03  0.23707629252E+03  0.00000000000E+00 0. -1.
         22    1    3    3    0    0 -0.37850266241E+02 -0.10788612876E+02  0.20900354604E+03  0.21267702997E+03  0.00000000000E+00 0. -1.
</event>
<event>
 7    1  0.4915160E-006  0.6221732E+02  0.7818608E-02  0.1423359E+00
          2   -1    0    0  502    0  0.00000000000E+00  0.00000000000E+00  0.13783778224E+04  0.13783778224E+04  0.00000000000E+00 0. -1.
          1   -1    0    0  501    0 -0.00000000000E+00 -0.00000000000E+00 -0.41073201747E+03  0.41073201747E+03  0.00000000000E+00 0. -1.
         25    2    1    2    0    0 -0.14394754188E+02  0.78830781801E+02  0.11613984357E+03  0.18850639963E+03  0.12499879331E+03 0.  0.
          2    1    1    2  501    0 -0.30744710781E+02 -0.36101448253E+02 -0.37225600010E+03  0.37526401562E+03  0.00000000000E+00 0. -1.
          1    1    1    2  502    0  0.45139464969E+02 -0.42729333548E+02  0.12237619614E+04  0.12253394246E+04  0.00000000000E+00 0. -1.
         22    1    3    3    0    0  0.12609793374E+02  0.38300508481E+02  0.13141685790E+03  0.13746390937E+03  0.00000000000E+00 0. -1.
         22    1    3    3    0    0 -0.27004547562E+02  0.40530273320E+02 -0.15277014335E+02  0.51042490255E+02  0.00000000000E+00 0. -1.
</event>
<event>
 7    1  0.4915160E-006  0.1489197E+03  0.7818608E-02  0.1215376E+00
          2   -1    0    0  502    0  0.00000000000E+00  0.00000000000E+00  0.10440222263E+04  0.10440222263E+04  0.00000000000E+00 0. -1.
          1   -1    0    0  501    0 -0.00000000000E+00 -0.00000000000E+00 -0.28433890061E+03  0.28433890061E+03  0.00000000000E+00 0. -1.
         25    2    1    2    0    0  0.33861475901E+02 -0.58461107537E+02  0.19476882632E+03  0.24109050714E+03  0.12500174511E+03 0.  0.
          2    1    1    2  501    0  0.55440587121E+02  0.15126088759E+03 -0.23065429479E+03  0.28134483915E+03  0.00000000000E+00 0. -1.
          1    1    1    2  502    0 -0.89302063021E+02 -0.92799780052E+02  0.79556879413E+03  0.80592578060E+03  0.00000000000E+00 0. -1.
         22    1    3    3    0    0  0.44530220746E+02 -0.74587904958E+02  0.20243748128E+03  0.22028896920E+03  0.00000000000E+00 0. -1.
         22    1    3    3    0    0 -0.10668744845E+02  0.16126797421E+02 -0.76686549572E+01  0.20801537936E+02  0.00000000000E+00 0. -1.
</event>
<event>
 7    1  0.4915160E-006  0.7064667E+02  0.7818608E-02  0.1450304E+00
          2   -1    0    0  502    0  0.00000000000E+00  0.00000000000E+00  0.13507160895E+03  0.13507160895E+03  0.00000000000E+00 0. -1.
          1   -1    0    0  501    0 -0.00000000000E+00 -0.00000000000E+00 -0.14913228639E+04  0.14913228639E+04  0.00000000000E+00 0. -1.
         25    2    1    2    0    0 -0.42075083175E+02  0.82523359002E+02 -0.24065300269E+03  0.28656500966E+03  0.12500087860E+03 0.  0.
          2    1    1    2  501    0 -0.75474031523E+01 -0.33267703040E+02 -0.12165508660E+04  0.12170290518E+04  0.00000000000E+00 0. -1.
          1    1    1    2  502    0  0.49622486327E+02 -0.49255655962E+02  0.10095261380E+03  0.12280041134E+03  0.00000000000E+00 0. -1.
         22    1    3    3    0    0  0.40638081990E+02  0.54772768970E+02 -0.99681430284E+02  0.12078036874E+03  0.00000000000E+00 0.  1.
         22    1    3    3    0    0 -0.82713165165E+02  0.27750590032E+02 -0.14097157241E+03  0.16578464092E+03  0.00000000000E+00 0.  1.
</event>
<event>
 7    1  0.4915160E-006  0.4038201E+02  0.7818608E-02  0.1537137E+00
          2   -1    0    0  502    0  0.00000000000E+00  0.00000000000E+00  0.32178766227E+03  0.32178766227E+03  0.00000000000E+00 0. -1.
          1   -1    0    0  501    0 -0.00000000000E+00 -0.00000000000E+00 -0.70831701258E+03  0.70831701258E+03  0.00000000000E+00 0. -1.
         25    2    1    2    0    0  0.55622223678E+02  0.82452226481E+01 -0.22909579706E+03  0.26696819093E+03  0.12500126111E+03 0.  0.
          2    1    1    2  501    0 -0.26265876585E+02  0.19438068383E+02 -0.45835677449E+03  0.45952004036E+03  0.00000000000E+00 0. -1.
          1    1    1    2  502    0 -0.29356347093E+02 -0.27683291031E+02  0.30092322124E+03  0.30361644356E+03  0.00000000000E+00 0. -1.
         22    1    3    3    0    0 -0.10181521393E+02  0.83259866857E+01 -0.18994221140E+03  0.19039703019E+03  0.00000000000E+00 0.  1.
         22    1    3    3    0    0  0.65803745071E+02 -0.80764037593E-01 -0.39153585653E+02  0.76571160745E+02  0.00000000000E+00 0.  1.
</event>
<event>
 7    1  0.4915160E-006  0.9309473E+02  0.7818608E-02  0.1335162E+00
          2   -1    0    0  502    0  0.00000000000E+00  0.00000000000E+00  0.35825311114E+03  0.35825311114E+03  0.00000000000E+00 0. -1.
          1   -1    0    0  501    0 -0.00000000000E+00 -0.00000000000E+00 -0.16902596066E+04  0.16902596066E+04  0.00000000000E+00 0. -1.
         25    2    1    2    0    0 -0.97008428034E+02  0.99691299038E+02  0.17719133875E+03  0.25765146784E+03  0.12505406087E+03 0.  0.
          2    1    1    2  501    0  0.58526062440E+02 -0.28646843860E+02 -0.16377394317E+04  0.16390352003E+04  0.00000000000E+00 0. -1.
          1    1    1    2  502    0  0.38482365594E+02 -0.71044455178E+02  0.12854159746E+03  0.15182604964E+03  0.00000000000E+00 0. -1.
         22    1    3    3    0    0 -0.92842217354E+02  0.25614861384E+02  0.15074584128E+03  0.17888573758E+03  0.00000000000E+00 0.  1.
         22    1    3    3    0    0 -0.41662106807E+01  0.74076437654E+02  0.26445497468E+02  0.78765730259E+02  0.00000000000E+00 0.  1.
</event>
<event>
 7    1  0.4915160E-006  0.9685708E+02  0.7818608E-02  0.1359235E+00
          2   -1    0    0  502    0  0.00000000000E+00  0.00000000000E+00  0.13978212483E+03  0.13978212483E+03  0.00000000000E+00 0. -1.
          1   -1    0    0  501    0 -0.00000000000E+00 -0.00000000000E+00 -0.69328057303E+03  0.69328057303E+03  0.00000000000E+00 0. -1.
         25    2    1    2    0    0  0.83874950910E+02 -0.10738602961E+03 -0.67725180184E+02  0.19692160625E+03  0.12499860892E+03 0.  0.
          2    1    1    2  501    0 -0.42223030234E+02  0.28526764358E+02 -0.53285978305E+03  0.53529067708E+03  0.00000000000E+00 0. -1.
          1    1    1    2  502    0 -0.41651920677E+02  0.78859265256E+02  0.47086515034E+02  0.10085041453E+03  0.00000000000E+00 0. -1.
         22    1    3    3    0    0  0.95574944942E+02 -0.12528284206E+03 -0.74760730843E+02  0.17441194768E+03  0.00000000000E+00 0. -1.
         22    1    3    3    0    0 -0.11699994032E+02  0.17896812449E+02  0.70355506597E+01  0.22509658577E+02  0.00000000000E+00 0. -1.
</event>
<event>
 7    1  0.4915160E-006  0.9491019E+02  0.7818608E-02  0.1337069E+00
          2   -1    0    0  502    0  0.00000000000E+00  0.00000000000E+00  0.17107358742E+03  0.17107358742E+03  0.00000000000E+00 0. -1.
          1   -1    0    0  501    0 -0.00000000000E+00 -0.00000000000E+00 -0.57052144014E+03  0.57052144014E+03  0.00000000000E+00 0. -1.
         25    2    1    2    0    0  0.36801985985E+02 -0.63552832892E+02 -0.10856381534E+03  0.18111987829E+03  0.12499983828E+03 0.  0.
          2    1    1    2  501    0 -0.52296785706E+02 -0.34878761232E+02 -0.40449955383E+03  0.40935482265E+03  0.00000000000E+00 0. -1.
          1    1    1    2  502    0  0.15494799721E+02  0.98431594124E+02  0.11361551645E+03  0.15112032662E+03  0.00000000000E+00 0. -1.
         22    1    3    3    0    0  0.20035210937E+02  0.37437611334E+02 -0.28216213480E+02  0.50981752842E+02  0.00000000000E+00 0.  1.
         22    1    3    3    0    0  0.16766775048E+02 -0.10099044423E+03 -0.80347601860E+02  0.13013812545E+03  0.00000000000E+00 0.  1.
</event>
<event>
 7    1  0.4915160E-006  0.7130690E+02  0.7818608E-02  0.1420894E+00
          2   -1    0    0  502    0  0.00000000000E+00  0.00000000000E+00  0.83272248320E+03  0.83272248320E+03  0.00000000000E+00 0. -1.
          1   -1    0    0  501    0 -0.00000000000E+00 -0.00000000000E+00 -0.21430372669E+03  0.21430372669E+03  0.00000000000E+00 0. -1.
         25    2    1    2    0    0  0.59260825861E+02  0.94465894346E+02  0.41852266930E+03  0.45080103571E+03  0.12499879362E+03 0.  0.
          2    1    1    2  501    0 -0.44519362224E+02 -0.54963022140E+02 -0.19068201563E+03  0.20337782205E+03  0.00000000000E+00 0. -1.
          1    1    1    2  502    0 -0.14741463637E+02 -0.39502872206E+02  0.39057810284E+03  0.39284735214E+03  0.00000000000E+00 0. -1.
         22    1    3    3    0    0  0.20099937015E+02 -0.27667143278E+02  0.14078726497E+03  0.14488109699E+03  0.00000000000E+00 0. -1.
         22    1    3    3    0    0  0.39160888846E+02  0.12213303762E+03  0.27773540432E+03  0.30591993872E+03  0.00000000000E+00 0. -1.
</event>
<event>
 7    1  0.4915160E-006  0.1301259E+03  0.7818608E-02  0.1245367E+00
          2   -1    0    0  502    0  0.00000000000E+00  0.00000000000E+00  0.21873637927E+04  0.21873637927E+04  0.00000000000E+00 0. -1.
          1   -1    0    0  501    0 -0.00000000000E+00 -0.00000000000E+00 -0.63210228957E+03  0.63210228957E+03  0.00000000000E+00 0. -1.
         25    2    1    2    0    0  0.11055450591E+03 -0.13141817810E+03  0.32926188450E+03  0.39183087832E+03  0.12500004924E+03 0.  0.
          2    1    1    2  501    0 -0.10814301843E+03  0.17873797349E+01 -0.59362484361E+03  0.60339751583E+03  0.00000000000E+00 0. -1.
          1    1    1    2  502    0 -0.24114874759E+01  0.12963079837E+03  0.18196244622E+04  0.18242376881E+04  0.00000000000E+00 0. -1.
         22    1    3    3    0    0  0.11335650096E+03 -0.91000327381E+02  0.15328809655E+03  0.21125339391E+03  0.00000000000E+00 0.  1.
         22    1    3    3    0    0 -0.28019950503E+01 -0.40417850723E+02  0.17597378794E+03  0.18057748441E+03  0.00000000000E+00 0.  1.
</event>
<event>
 7    1  0.4915160E-006  0.1496420E+03  0.7818608E-02  0.1329699E+00
          2   -1    0    0  502    0  0.00000000000E+00  0.00000000000E+00  0.19133141504E+03  0.19133141504E+03  0.00000000000E+00 0. -1.
          1   -1    0    0  501    0 -0.00000000000E+00 -0.00000000000E+00 -0.40953987706E+03  0.40953987706E+03  0.00000000000E+00 0. -1.
         25    2    1    2    0    0 -0.13634621806E+03  0.10728081857E+03 -0.92404653013E+01  0.21403209173E+03  0.12499953950E+03 0.  0.
          2    1    1    2  501    0  0.42137290941E+02 -0.57333031248E+01 -0.24095261671E+03  0.24467649162E+03  0.00000000000E+00 0. -1.
          1    1    1    2  502    0  0.94208927121E+02 -0.10154751545E+03  0.31984619994E+02  0.14216270875E+03  0.00000000000E+00 0. -1.
         22    1    3    3    0    0 -0.65908407288E+02  0.13796412263E+02 -0.56402073588E+02  0.87837651651E+02  0.00000000000E+00 0. -1.
         22    1    3    3    0    0 -0.70437810775E+02  0.93484406311E+02  0.47161608286E+02  0.12619444008E+03  0.00000000000E+00 0. -1.
</event>
<event>
 7    1  0.4915160E-006  0.6893267E+02  0.7818608E-02  0.1396391E+00
          2   -1    0    0  502    0  0.00000000000E+00  0.00000000000E+00  0.19032191374E+04  0.19032191374E+04  0.00000000000E+00 0. -1.
          1   -1    0    0  501    0 -0.00000000000E+00 -0.00000000000E+00 -0.42487890654E+03  0.42487890654E+03  0.00000000000E+00 0. -1.
         25    2    1    2    0    0 -0.67604539973E+02  0.94526831585E+02  0.67840720787E+03  0.69954745847E+03  0.12499844500E+03 0.  0.
          2    1    1    2  501    0  0.38321597877E+02 -0.36360658762E+02 -0.41174695404E+03  0.41512190562E+03  0.00000000000E+00 0. -1.
          1    1    1    2  502    0  0.29282942096E+02 -0.58166172823E+02  0.12116799771E+04  0.12134286799E+04  0.00000000000E+00 0. -1.
         22    1    3    3    0    0 -0.97523864689E+02  0.93521402705E+02  0.61147059292E+03  0.62622156060E+03  0.00000000000E+00 0. -1.
         22    1    3    3    0    0  0.29919324716E+02  0.10054288799E+01  0.66936614951E+02  0.73325897880E+02  0.00000000000E+00 0. -1.
</event>
<event>
 7    1  0.4915160E-006  0.9366595E+02  0.7818608E-02  0.1355529E+00
          2   -1    0    0  502    0  0.00000000000E+00  0.00000000000E+00  0.29893750467E+03  0.29893750467E+03  0.00000000000E+00 0. -1.
          1   -1    0    0  501    0 -0.00000000000E+00 -0.00000000000E+00 -0.13455690132E+04  0.13455690132E+04  0.00000000000E+00 0. -1.
         25    2    1    2    0    0 -0.14167562747E+03  0.22984791353E+00  0.91390350244E+01  0.18915370117E+03  0.12499425769E+03 0.  0.
          2    1    1    2  501    0  0.90885909352E+02  0.19162427673E+02 -0.12501081104E+04  0.12535540415E+04  0.00000000000E+00 0. -1.
          1    1    1    2  502    0  0.50789718121E+02 -0.19392275586E+02  0.19433756683E+03  0.20179877527E+03  0.00000000000E+00 0. -1.
         22    1    3    3    0    0 -0.73753712094E+02  0.26558905702E+02 -0.51984625114E+02  0.94060548414E+02  0.00000000000E+00 0. -1.
         22    1    3    3    0    0 -0.67921915379E+02 -0.26329057789E+02  0.61123660138E+02  0.95093152758E+02  0.00000000000E+00 0. -1.
</event>
<event>
 7    1  0.4915160E-006  0.7214965E+02  0.7818608E-02  0.1376055E+00
          2   -1    0    0  502    0  0.00000000000E+00  0.00000000000E+00  0.22520069540E+03  0.22520069540E+03  0.00000000000E+00 0. -1.
          1   -1    0    0  501    0 -0.00000000000E+00 -0.00000000000E+00 -0.68413649543E+03  0.68413649543E+03  0.00000000000E+00 0. -1.
         25    2    1    2    0    0 -0.11300449539E+02  0.41376793160E+02 -0.23393611831E+03  0.26868377901E+03  0.12500050592E+03 0.  0.
          2    1    1    2  501    0  0.70765097324E+02 -0.39803609541E+02 -0.42464363561E+03  0.43233579958E+03  0.00000000000E+00 0. -1.
          1    1    1    2  502    0 -0.59464647785E+02 -0.15731836190E+01  0.19964395389E+03  0.20831761224E+03  0.00000000000E+00 0. -1.
         22    1    3    3    0    0 -0.60669600613E+02  0.78598758722E+01 -0.17255222964E+03  0.18307607719E+03  0.00000000000E+00 0. -1.
         22    1    3    3    0    0  0.49369151073E+02  0.33516917288E+02 -0.61383888678E+02  0.85607701823E+02  0.00000000000E+00 0. -1.
</event>
<event>
 7    1  0.4915160E-006  0.7107793E+02  0.7818608E-02  0.1369793E+00
          2   -1    0    0  502    0  0.00000000000E+00  0.00000000000E+00  0.42104241292E+03  0.42104241292E+03  0.00000000000E+00 0. -1.
          1   -1    0    0  501    0 -0.00000000000E+00 -0.00000000000E+00 -0.18998679186E+03  0.18998679186E+03  0.00000000000E+00 0. -1.
         25    2    1    2    0    0  0.78998877324E+02 -0.81158923840E+02  0.96245893883E+02  0.19420436296E+03  0.12499787585E+03 0.  0.
          2    1    1    2  501    0 -0.66789112678E+02  0.18761712830E+02 -0.12845497316E+03  0.14599132703E+03  0.00000000000E+00 0. -1.
          1    1    1    2  502    0 -0.12209764646E+02  0.62397211009E+02  0.26326470032E+03  0.27083351479E+03  0.00000000000E+00 0. -1.
         22    1    3    3    0    0  0.15584565322E+02 -0.55439800162E+02  0.11022262355E+03  0.12436027043E+03  0.00000000000E+00 0. -1.
         22    1    3    3    0    0  0.63414312002E+02 -0.25719123678E+02 -0.13976729668E+02  0.69844092532E+02  0.00000000000E+00 0. -1.
</event>
<event>
 7    1  0.4915160E-006  0.7196917E+02  0.7818608E-02  0.1455968E+00
          2   -1    0    0  502    0  0.00000000000E+00  0.00000000000E+00  0.70652299065E+03  0.70652299065E+03  0.00000000000E+00 0. -1.
          1   -1    0    0  501    0 -0.00000000000E+00 -0.00000000000E+00 -0.57677376118E+03  0.57677376118E+03  0.00000000000E+00 0. -1.
         25    2    1    2    0    0  0.49988211020E+02 -0.69275093061E+02  0.40866651810E+02  0.15682559120E+03  0.12500529216E+03 0.  0.
          2    1    1    2  501    0 -0.17865347758E+02  0.69515818270E+02 -0.51588346924E+03  0.52085254485E+03  0.00000000000E+00 0. -1.
          1    1    1    2  502    0 -0.32122863262E+02 -0.24072520939E+00  0.60476604690E+03  0.60561861577E+03  0.00000000000E+00 0. -1.
         22    1    3    3    0    0  0.54712687742E+02 -0.10131409344E+03  0.16549092719E+02  0.11632667880E+03  0.00000000000E+00 0.  1.
         22    1    3    3    0    0 -0.47244767219E+01  0.32039000384E+02  0.24317559091E+02  0.40498912406E+02  0.00000000000E+00 0.  1.
</event>
<event>
 7    1  0.4915160E-006  0.9847482E+02  0.7818608E-02  0.1302884E+00
          2   -1    0    0  502    0  0.00000000000E+00  0.00000000000E+00  0.78487521094E+03  0.78487521094E+03  0.00000000000E+00 0. -1.
          1   -1    0    0  501    0 -0.00000000000E+00 -0.00000000000E+00 -0.47670234094E+02  0.47670234094E+02  0.00000000000E+00 0. -1.
         25    2    1    2    0    0 -0.69754760082E+02  0.13843044738E+02  0.39837142700E+03  0.42353567313E+03  0.12500126449E+03 0.  0.
          2    1    1    2  501    0  0.29364716785E+02  0.93994694993E+02  0.84260656992E+02  0.12960381011E+03  0.00000000000E+00 0. -1.
          1    1    1    2  502    0  0.40390043297E+02 -0.10783773973E+03  0.25457289286E+03  0.27940596179E+03  0.00000000000E+00 0. -1.
         22    1    3    3    0    0 -0.13511687000E+02 -0.49703423419E+02  0.89957393937E+02  0.10365967735E+03  0.00000000000E+00 0.  1.
         22    1    3    3    0    0 -0.56243073082E+02  0.63546468157E+02  0.30841403306E+03  0.31987599578E+03  0.00000000000E+00 0.  1.
</event>
<event>
 7    1  0.4915160E-006  0.6394682E+02  0.7818608E-02  0.1463208E+00
          2   -1    0    0  502    0  0.00000000000E+00  0.00000000000E+00  0.12819473247E+04  0.12819473247E+04  0.00000000000E+00 0. -1.
          1   -1    0    0  501    0 -0.00000000000E+00 -0.00000000000E+00 -0.70441125667E+03  0.70441125667E+03  0.00000000000E+00 0. -1.
         25    2    1    2    0    0 -0.42175180637E+02 -0.85842811215E+02  0.27212934031E+03  0.31436600407E+03  0.12499549017E+03 0.  0.
          2    1    1    2  501    0  0.37054696864E+02  0.51926837213E+02 -0.68150542641E+03  0.68448454563E+03  0.00000000000E+00 0. -1.
          1    1    1    2  502    0  0.51204837727E+01  0.33915974002E+02  0.98691215413E+03  0.98750803167E+03  0.00000000000E+00 0. -1.
         22    1    3    3    0    0 -0.59973258982E+02 -0.71413297485E+02  0.27581962497E+03  0.29115823253E+03  0.00000000000E+00 0. -1.
         22    1    3    3    0    0  0.17798078345E+02 -0.14429513730E+02 -0.36902846619E+01  0.23207771546E+02  0.00000000000E+00 0. -1.
</event>
<event>
 7    1  0.4915160E-006  0.5773423E+02  0.7818608E-02  0.1441261E+00
          2   -1    0    0  502    0  0.00000000000E+00  0.00000000000E+00  0.13821582148E+04  0.13821582148E+04  0.00000000000E+00 0. -1.
          1   -1    0    0  501    0 -0.00000000000E+00 -0.00000000000E+00 -0.22864813460E+04  0.22864813460E+04  0.00000000000E+00 0. -1.
         25    2    1    2    0    0 -0.27857986306E+02  0.52252393671E+02  0.30513098859E+03  0.33501651230E+03  0.12499905309E+03 0.  0.
          2    1    1    2  501    0 -0.16674470557E+02 -0.55292742407E+02 -0.22707022889E+04  0.22714365961E+04  0.00000000000E+00 0. -1.
          1    1    1    2  502    0  0.44532456862E+02  0.30403487357E+01  0.10612481690E+04  0.10621864524E+04  0.00000000000E+00 0. -1.
         22    1    3    3    0    0  0.34012770026E+02 -0.22873077820E+02  0.91546919773E+02  0.10030396171E+03  0.00000000000E+00 0. -1.
         22    1    3    3    0    0 -0.61870756331E+02  0.75125471491E+02  0.21358406881E+03  0.23471255060E+03  0.00000000000E+00 0. -1.
</event>
<event>
 7    1  0.4915160E-006  0.3565652E+02  0.7818608E-02  0.1614953E+00
          2   -1    0    0  502    0  0.00000000000E+00  0.00000000000E+00  0.22785405318E+03  0.22785405318E+03  0.00000000000E+00 0. -1.
          1   -1    0    0  501    0 -0.00000000000E+00 -0.00000000000E+00 -0.12041297316E+03  0.12041297316E+03  0.00000000000E+00 0. -1.
         25    2    1    2    0    0  0.44546784558E+01  0.45909065993E+02  0.15204799868E+03  0.20216673234E+03  0.12500122905E+03 0.  0.
          2    1    1    2  501    0  0.14117459856E+02 -0.32640987691E+02 -0.89187517063E+02  0.96016404589E+02  0.00000000000E+00 0. -1.
          1    1    1    2  502    0 -0.18572138311E+02 -0.13268078302E+02  0.44580598411E+02  0.50083889406E+02  0.00000000000E+00 0. -1.
         22    1    3    3    0    0 -0.24970367754E+02  0.70015151226E+02  0.41232643083E+02  0.85004538247E+02  0.00000000000E+00 0.  1.
         22    1    3    3    0    0  0.29425046210E+02 -0.24106085233E+02  0.11081535560E+03  0.11716219410E+03  0.00000000000E+00 0.  1.
</event>
<event>
 7    1  0.4915160E-006  0.1252230E+03  0.7818608E-02  0.1344695E+00
          2   -1    0    0  502    0  0.00000000000E+00  0.00000000000E+00  0.61601450898E+03  0.61601450898E+03  0.00000000000E+00 0. -1.
          1   -1    0    0  501    0 -0.00000000000E+00 -0.00000000000E+00 -0.99736032895E+02  0.99736032895E+02  0.00000000000E+00 0. -1.
         25    2    1    2    0    0  0.13935573871E+03  0.74623092708E+02  0.12490445919E+03  0.23709677323E+03  0.12500051230E+03 0.  0.
          2    1    1    2  501    0 -0.44601803461E+02 -0.21394656148E+00 -0.20813611188E+02  0.49219640955E+02  0.00000000000E+00 0. -1.
          1    1    1    2  502    0 -0.94753935252E+02 -0.74409146147E+02  0.41218762809E+03  0.42943412769E+03  0.00000000000E+00 0. -1.
         22    1    3    3    0    0 -0.30439419782E+01 -0.18088433033E+02 -0.93038414943E+01  0.20567412548E+02  0.00000000000E+00 0.  1.
         22    1    3    3    0    0  0.14239968069E+03  0.92711525742E+02  0.13420830068E+03  0.21652936068E+03  0.00000000000E+00 0.  1.
</event>
<event>
 7    1  0.4915160E-006  0.1023562E+03  0.7818608E-02  0.1315036E+00
          2   -1    0    0  502    0  0.00000000000E+00  0.00000000000E+00  0.17557235837E+04  0.17557235837E+04  0.00000000000E+00 0. -1.
          1   -1    0    0  501    0 -0.00000000000E+00 -0.00000000000E+00 -0.47886525081E+03  0.47886525081E+03  0.00000000000E+00 0. -1.
         25    2    1    2    0    0 -0.91415115114E+02 -0.11915902565E+03  0.37728946450E+03  0.42488563211E+03  0.12499945475E+03 0.  0.
          2    1    1    2  501    0  0.23470061183E+02  0.99118107109E+02 -0.44842562131E+03  0.45984864986E+03  0.00000000000E+00 0. -1.
          1    1    1    2  502    0  0.67945053931E+02  0.20040918539E+02  0.13479944897E+04  0.13498545526E+04  0.00000000000E+00 0. -1.
         22    1    3    3    0    0 -0.80563366581E+02 -0.10809071984E+03  0.16975756903E+03  0.21677567205E+03  0.00000000000E+00 0.  1.
         22    1    3    3    0    0 -0.10851748532E+02 -0.11068305811E+02  0.20753189546E+03  0.20810996006E+03  0.00000000000E+00 0.  1.
</event>
<event>
 7    1  0.4915160E-006  0.2602676E+03  0.7818608E-02  0.1265641E+00
          2   -1    0    0  502    0  0.00000000000E+00  0.00000000000E+00  0.16963845294E+04  0.16963845294E+04  0.00000000000E+00 0. -1.
          1   -1    0    0  501    0 -0.00000000000E+00 -0.00000000000E+00 -0.57648401648E+03  0.57648401648E+03  0.00000000000E+00 0. -1.
         25    2    1    2    0    0 -0.24831174519E+03  0.16655561853E+03  0.16142055694E+03  0.36205189622E+03  0.12500192994E+03 0.  0.
          2    1    1    2  501    0  0.20863066423E+03 -0.14699232035E+03 -0.44159714675E+03  0.51004072025E+03  0.00000000000E+00 0. -1.
          1    1    1    2  502    0  0.39681080964E+02 -0.19563298180E+02  0.14000771027E+04  0.14007759294E+04  0.00000000000E+00 0. -1.
         22    1    3    3    0    0 -0.14514796255E+03  0.14487708396E+03  0.55149553230E+02  0.21236471861E+03  0.00000000000E+00 0.  1.
         22    1    3    3    0    0 -0.10316378264E+03  0.21678534566E+02  0.10627100371E+03  0.14968717761E+03  0.00000000000E+00 0.  1.
</event>
<event>
 7    1  0.4915160E-006  0.1101802E+03  0.7818608E-02  0.1272120E+00
          2   -1    0    0  502    0  0.00000000000E+00  0.00000000000E+00  0.60240830117E+03  0.60240830117E+03  0.00000000000E+00 0. -1.
          1   -1    0    0  501    0 -0.00000000000E+00 -0.00000000000E+00 -0.55623618995E+03  0.55623618995E+03  0.00000000000E+00 0. -1.
         25    2    1    2    0    0 -0.65781506068E+02 -0.17826967493E+03 -0.60906119567E+02  0.23546039839E+03  0.12499904107E+03 0.  0.
          2    1    1    2  501    0  0.68079131173E+02  0.70701481995E+02 -0.39638333263E+03  0.40835427517E+03  0.00000000000E+00 0. -1.
          1    1    1    2  502    0 -0.22976251047E+01  0.10756819294E+03  0.50346156341E+03  0.51482981756E+03  0.00000000000E+00 0. -1.
         22    1    3    3    0    0 -0.72451617477E+02 -0.86446108173E+02 -0.83890150197E+02  0.14056928467E+03  0.00000000000E+00 0. -1.
         22    1    3    3    0    0  0.66701114089E+01 -0.91823566762E+02  0.22984030630E+02  0.94891113720E+02  0.00000000000E+00 0. -1.
</event>
<event>
 7    1  0.4915160E-006  0.4358399E+02  0.7818608E-02  0.1518130E+00
          2   -1    0    0  502    0  0.00000000000E+00  0.00000000000E+00  0.89276015388E+03  0.89276015388E+03  0.00000000000E+00 0. -1.
          1   -1    0    0  501    0 -0.00000000000E+00 -0.00000000000E+00 -0.61825747789E+03  0.61825747789E+03  0.00000000000E+00 0. -1.
         25    2    1    2    0    0 -0.42287546410E+02 -0.41907425671E+02  0.23175269659E+03  0.26996086087E+03  0.12500034049E+03 0.  0.
          2    1    1    2  501    0  0.42902646908E+02  0.75790853510E+01 -0.59790112751E+03  0.59948631171E+03  0.00000000000E+00 0. -1.
          1    1    1    2  502    0 -0.61510049848E+00  0.34328340320E+02  0.64065110692E+03  0.64157045918E+03  0.00000000000E+00 0. -1.
         22    1    3    3    0    0 -0.43694329986E+02 -0.79010461012E+02  0.20558270003E+03  0.22453528448E+03  0.00000000000E+00 0.  1.
         22    1    3    3    0    0  0.14067835762E+01  0.37103035341E+02  0.26169996554E+02  0.45425576399E+02  0.00000000000E+00 0.  1.
</event>
<event>
 7    1  0.4915160E-006  0.1081037E+03  0.7818608E-02  0.1381523E+00
          2   -1    0    0  502    0  0.00000000000E+00  0.00000000000E+00  0.14509734526E+04  0.14509734526E+04  0.00000000000E+00 0. -1.
          1   -1    0    0  501    0 -0.00000000000E+00 -0.00000000000E+00 -0.19349848506E+03  0.19349848506E+03  0.00000000000E+00 0. -1.
         25    2    1    2    0    0 -0.73739331420E+02 -0.87805774170E+02  0.28495965341E+03  0.33162570333E+03  0.12500504017E+03 0.  0.
          2    1    1    2  501    0  0.92989916217E+02  0.55081272964E+02 -0.15265157521E+03  0.18703896536E+03  0.00000000000E+00 0. -1.
          1    1    1    2  502    0 -0.19250584797E+02  0.32724501206E+02  0.11251668893E+04  0.11258072689E+04  0.00000000000E+00 0. -1.
         22    1    3    3    0    0 -0.77191699416E+02 -0.80233702956E+02  0.29688983258E+03  0.31707976636E+03  0.00000000000E+00 0.  1.
         22    1    3    3    0    0  0.34523679957E+01 -0.75720712138E+01 -0.11930179173E+02  0.14545936970E+02  0.00000000000E+00 0.  1.
</event>
<event>
 7    1  0.4915160E-006  0.6926392E+02  0.7818608E-02  0.1442320E+00
          2   -1    0    0  502    0  0.00000000000E+00  0.00000000000E+00  0.20223838248E+02  0.20223838248E+02  0.00000000000E+00 0. -1.
          1   -1    0    0  501    0 -0.00000000000E+00 -0.00000000000E+00 -0.10010732459E+04  0.10010732459E+04  0.00000000000E+00 0. -1.
         25    2    1    2    0    0  0.19957182768E+02  0.33096369443E+02 -0.33991748789E+03  0.36422895722E+03  0.12500070355E+03 0.  0.
          2    1    1    2  501    0 -0.43471555778E+02 -0.61551208834E+02 -0.58637202407E+03  0.59119411202E+03  0.00000000000E+00 0. -1.
          1    1    1    2  502    0  0.23514373010E+02  0.28454839390E+02 -0.54559895676E+02  0.65874014899E+02  0.00000000000E+00 0. -1.
         22    1    3    3    0    0 -0.37368512749E+02  0.43995911135E+02 -0.85200071168E+02  0.10291306073E+03  0.00000000000E+00 0.  1.
         22    1    3    3    0    0  0.57325695517E+02 -0.10899541692E+02 -0.25471741672E+03  0.26131589649E+03  0.00000000000E+00 0.  1.
</event>
<event>
 7    1  0.4915160E-006  0.3775323E+03  0.7818608E-02  0.1104468E+00
          2   -1    0    0  502    0  0.00000000000E+00  0.00000000000E+00  0.15643833982E+04  0.15643833982E+04  0.00000000000E+00 0. -1.
          1   -1    0    0  501    0 -0.00000000000E+00 -0.00000000000E+00 -0.64943581313E+03  0.64943581313E+03  0.00000000000E+00 0. -1.
         25    2    1    2    0    0  0.48240745887E+03  0.23321803770E+03  0.24910658415E+03  0.60397564162E+03  0.12499950365E+03 0.  0.
          2    1    1    2  501    0 -0.30667854335E+03 -0.17439432330E+03 -0.39692023124E+03  0.53104687074E+03  0.00000000000E+00 0. -1.
          1    1    1    2  502    0 -0.17572891552E+03 -0.58823714405E+02  0.10627612321E+04  0.10787966989E+04  0.00000000000E+00 0. -1.
         22    1    3    3    0    0  0.46379640788E+03  0.22787246020E+03  0.26330184519E+03  0.57996622984E+03  0.00000000000E+00 0. -1.
         22    1    3    3    0    0  0.18611050993E+02  0.53455775022E+01 -0.14195261035E+02  0.24009411774E+02  0.00000000000E+00 0. -1.
</event>
<event>
 7    1  0.4915160E-006  0.5938512E+02  0.7818608E-02  0.1492146E+00
          2   -1    0    0  502    0  0.00000000000E+00  0.00000000000E+00  0.44484032542E+02  0.44484032542E+02  0.00000000000E+00 0. -1.
          1   -1    0    0  501    0 -0.00000000000E+00 -0.00000000000E+00 -0.12128022484E+04  0.12128022484E+04  0.00000000000E+00 0. -1.
         25    2    1    2    0    0 -0.46294978783E+02 -0.14435602431E+02 -0.25426219181E+03  0.28744590054E+03  0.12499708746E+03 0.  0.
          2    1    1    2  501    0  0.59002487457E+02 -0.12835661366E+02 -0.93256406593E+03  0.93451687240E+03  0.00000000000E+00 0. -1.
          1    1    1    2  502    0 -0.12707508674E+02  0.27271263798E+02  0.18508041862E+02  0.35323508028E+02  0.00000000000E+00 0. -1.
         22    1    3    3    0    0 -0.20368379281E+02  0.54248219296E+02 -0.14133965728E+03  0.15275679655E+03  0.00000000000E+00 0.  1.
         22    1    3    3    0    0 -0.25926599502E+02 -0.68683821727E+02 -0.11292253452E+03  0.13468910398E+03  0.00000000000E+00 0.  1.
</event>
<event>
 7    1  0.4915160E-006  0.9775383E+02  0.7818608E-02  0.1334512E+00
          2   -1    0    0  502    0  0.00000000000E+00  0.00000000000E+00  0.14646646154E+03  0.14646646154E+03  0.00000000000E+00 0. -1.
          1   -1    0    0  501    0 -0.00000000000E+00 -0.00000000000E+00 -0.10554009313E+04  0.10554009313E+04  0.00000000000E+00 0. -1.
         25    2    1    2    0    0  0.75460447380E+02 -0.45269467585E+02 -0.17694603210E+03  0.23383459721E+03  0.12500046704E+03 0.  0.
          2    1    1    2  501    0 -0.99857209891E+02 -0.12172657664E+02 -0.83853856433E+03  0.84455109960E+03  0.00000000000E+00 0. -1.
          1    1    1    2  502    0  0.24396762510E+02  0.57442125249E+02  0.10655012664E+03  0.12348169606E+03  0.00000000000E+00 0. -1.
         22    1    3    3    0    0  0.90649954327E+02 -0.21969943414E+02 -0.53992011108E+02  0.10777397597E+03  0.00000000000E+00 0.  1.
         22    1    3    3    0    0 -0.15189506946E+02 -0.23299524172E+02 -0.12295402099E+03  0.12606062124E+03  0.00000000000E+00 0.  1.
</event>
<event>
 7    1  0.4915160E-006  0.2139163E+03  0.7818608E-02  0.1189235E+00
          2   -1    0    0  502    0  0.00000000000E+00  0.00000000000E+00  0.18326840541E+04  0.18326840541E+04  0.00000000000E+00 0. -1.
          1   -1    0    0  501    0 -0.00000000000E+00 -0.00000000000E+00 -0.16164998353E+04  0.16164998353E+04  0.00000000000E+00 0. -1.
         25    2    1    2    0    0 -0.15319440473E+03 -0.28073285767E+03  0.39554142027E+03  0.52379105827E+03  0.12499837821E+03 0.  0.
          2    1    1    2  501    0  0.46760785994E+02  0.10938728934E+03 -0.15426641870E+04  0.15472443066E+04  0.00000000000E+00 0. -1.
          1    1    1    2  502    0  0.10643361874E+03  0.17134556833E+03  0.13633069856E+04  0.13781485246E+04  0.00000000000E+00 0. -1.
         22    1    3    3    0    0 -0.61312729338E+02 -0.20078327299E+03  0.31216216442E+03  0.37618930127E+03  0.00000000000E+00 0. -1.
         22    1    3    3    0    0 -0.91881675393E+02 -0.79949584685E+02  0.83379255843E+02  0.14760175700E+03  0.00000000000E+00 0. -1.
</event>
<event>
 7    1  0.4915160E-006  0.8016720E+02  0.7818608E-02  0.1375780E+00
          2   -1    0    0  502    0  0.00000000000E+00  0.00000000000E+00  0.57727037058E+03  0.57727037058E+03  0.00000000000E+00 0. -1.
          1   -1    0    0  501    0 -0.00000000000E+00 -0.00000000000E+00 -0.96673664520E+03  0.96673664520E+03  0.00000000000E+00 0. -1.
         25    2    1    2    0    0 -0.97320577185E+02 -0.12759264336E+02 -0.23834939244E+01  0.15894975648E+03  0.12500100189E+03 0.  0.
          2    1    1    2  501    0  0.36514313629E+02 -0.39316544010E+02 -0.88203833648E+03  0.88366889316E+03  0.00000000000E+00 0. -1.
          1    1    1    2  502    0  0.60806263556E+02  0.52075808346E+02  0.49495555578E+03  0.50138836614E+03  0.00000000000E+00 0. -1.
         22    1    3    3    0    0 -0.67555681967E+02  0.41833005338E+02 -0.37145677208E+02  0.87713008367E+02  0.00000000000E+00 0.  1.
         22    1    3    3    0    0 -0.29764895218E+02 -0.54592269673E+02  0.34762183284E+02  0.71236748115E+02  0.00000000000E+00 0.  1.
</event>
<event>
 7    1  0.4915160E-006  0.6360399E+02  0.7818608E-02  0.1447308E+00
          2   -1    0    0  502    0  0.00000000000E+00  0.00000000000E+00  0.26380382009E+03  0.26380382009E+03  0.00000000000E+00 0. -1.
          1   -1    0    0  501    0 -0.00000000000E+00 -0.00000000000E+00 -0.25270757408E+04  0.25270757408E+04  0.00000000000E+00 0. -1.
         25    2    1    2    0    0 -0.86686226214E+01 -0.27021720143E+02 -0.61014373008E+02  0.14196466553E+03  0.12500357662E+03 0.  0.
          2    1    1    2  501    0  0.39740728281E+02  0.50154226401E+02 -0.24234809080E+04  0.24243255729E+04  0.00000000000E+00 0. -1.
          1    1    1    2  502    0 -0.31072105660E+02 -0.23132506258E+02  0.22122336033E+03  0.22458932243E+03  0.00000000000E+00 0. -1.
         22    1    3    3    0    0 -0.38285636481E+02 -0.11629472063E+02 -0.89529931243E+02  0.98064484751E+02  0.00000000000E+00 0.  1.
         22    1    3    3    0    0  0.29617013860E+02 -0.15392248081E+02  0.28515558235E+02  0.43900180779E+02  0.00000000000E+00 0.  1.
</event>
<event>
 7    1  0.4915160E-006  0.6806888E+02  0.7818608E-02  0.1521508E+00
          2   -1    0    0  502    0  0.00000000000E+00  0.00000000000E+00  0.75353329703E+03  0.75353329703E+03  0.00000000000E+00 0. -1.
          1   -1    0    0  501    0 -0.00000000000E+00 -0.00000000000E+00 -0.60725640748E+02  0.60725640748E+02  0.00000000000E+00 0. -1.
         25    2    1    2    0    0 -0.36620526034E+02 -0.75317679299E+02  0.16018198117E+03  0.21976571782E+03  0.12499955157E+03 0.  0.
          2    1    1    2  501    0 -0.31291262099E+01  0.21263618274E+02 -0.24929591906E+02  0.32915307162E+02  0.00000000000E+00 0. -1.
          1    1    1    2  502    0  0.39749652244E+02  0.54054061025E+02  0.55755526702E+03  0.56157791280E+03  0.00000000000E+00 0. -1.
         22    1    3    3    0    0  0.20658243692E+02  0.11811562206E+02  0.92365080152E+02  0.95381256365E+02  0.00000000000E+00 0.  1.
         22    1    3    3    0    0 -0.57278769726E+02 -0.87129241505E+02  0.67816901020E+02  0.12438446145E+03  0.00000000000E+00 0.  1.
</event>
<event>
 7    1  0.4915160E-006  0.9162727E+02  0.7818608E-02  0.1383121E+00
          2   -1    0    0  502    0  0.00000000000E+00  0.00000000000E+00  0.32330547892E+03  0.32330547892E+03  0.00000000000E+00 0. -1.
          1   -1    0    0  501    0 -0.00000000000E+00 -0.00000000000E+00 -0.77749502585E+03  0.77749502585E+03  0.00000000000E+00 0. -1.
         25    2    1    2    0    0 -0.11735485487E+03  0.55437811774E+01  0.93608800731E+02  0.19542524778E+03  0.12500209768E+03 0.  0.
          2    1    1    2  501    0  0.87219340030E+02  0.26812043085E+02 -0.72093257047E+03  0.72668416117E+03  0.00000000000E+00 0. -1.
          1    1    1    2  502    0  0.30135514835E+02 -0.32355824263E+02  0.17313422281E+03  0.17869109583E+03  0.00000000000E+00 0. -1.
         22    1    3    3    0    0  0.20469635294E+02 -0.18834976887E+02  0.32287634164E+02  0.42617527419E+02  0.00000000000E+00 0. -1.
         22    1    3    3    0    0 -0.13782449016E+03  0.24378758064E+02  0.61321166568E+02  0.15280772036E+03  0.00000000000E+00 0. -1.
</event>
<event>
 7    1  0.4915160E-006  0.1950197E+03  0.7818608E-02  0.1382410E+00
          2   -1    0    0  502    0  0.00000000000E+00  0.00000000000E+00  0.33922497086E+03  0.33922497086E+03  0.00000000000E+00 0. -1.
          1   -1    0    0  501    0 -0.00000000000E+00 -0.00000000000E+00 -0.16973558739E+04  0.16973558739E+04  0.00000000000E+00 0. -1.
         25    2    1    2    0    0 -0.18200423916E+03 -0.89448691577E+02 -0.69685116795E+03  0.73644609526E+03  0.12499875779E+03 0.  0.
          2    1    1    2  501    0  0.17882012822E+03  0.68798227876E+02 -0.97099387627E+03  0.98971659689E+03  0.00000000000E+00 0. -1.
          1    1    1    2  502    0  0.31841109457E+01  0.20650463701E+02  0.30971414119E+03  0.31041815260E+03  0.00000000000E+00 0. -1.
         22    1    3    3    0    0 -0.13331677009E+03 -0.49061655137E+02 -0.62398927755E+03  0.63995548727E+03  0.00000000000E+00 0. -1.
         22    1    3    3    0    0 -0.48687469069E+02 -0.40387036440E+02 -0.72861890404E+02  0.96490607988E+02  0.00000000000E+00 0. -1.
</event>
<event>
 7    1  0.4915160E-006  0.6604705E+02  0.7818608E-02  0.1415660E+00
          2   -1    0    0  502    0  0.00000000000E+00  0.00000000000E+00  0.30783080677E+03  0.30783080677E+03  0.00000000000E+00 0. -1.
          1   -1    0    0  501    0 -0.00000000000E+00 -0.00000000000E+00 -0.25399643490E+04  0.25399643490E+04  0.00000000000E+00 0. -1.
         25    2    1    2    0    0 -0.10138434397E+03 -0.42329044121E+02 -0.20437310603E+03  0.26356381101E+03  0.12500793105E+03 0.  0.
          2    1    1    2  501    0  0.37364965617E+02  0.29158985787E+02 -0.23019101644E+04  0.23023980524E+04  0.00000000000E+00 0. -1.
          1    1    1    2  502    0  0.64019378351E+02  0.13170058333E+02  0.27414972813E+03  0.28183329235E+03  0.00000000000E+00 0. -1.
         22    1    3    3    0    0 -0.12425854241E+03 -0.56853103322E+02 -0.18610831239E+03  0.23088690881E+03  0.00000000000E+00 0. -1.
         22    1    3    3    0    0  0.22874198446E+02  0.14524059201E+02 -0.18264793639E+02  0.32676902193E+02  0.00000000000E+00 0. -1.
</event>
<event>
 7    1  0.4915160E-006  0.2652178E+03  0.7818608E-02  0.1201658E+00
          2   -1    0    0  502    0  0.00000000000E+00  0.00000000000E+00  0.59854102298E+03  0.59854102298E+03  0.00000000000E+00 0. -1.
          1   -1    0    0  501    0 -0.00000000000E+00 -0.00000000000E+00 -0.61734326829E+03  0.61734326829E+03  0.00000000000E+00 0. -1.
         25    2    1    2    0    0 -0.16484666172E+03  0.21750383466E+03 -0.19698732716E+03  0.35904214131E+03  0.12499964879E+03 0.  0.
          2    1    1    2  501    0  0.76882690848E+02  0.33221395883E+02 -0.29908667153E+03  0.31059209002E+03  0.00000000000E+00 0. -1.
          1    1    1    2  502    0  0.87963970876E+02 -0.25072523054E+03  0.47727175339E+03  0.54625005994E+03  0.00000000000E+00 0. -1.
         22    1    3    3    0    0 -0.33801315384E+02 -0.96688590997E+00  0.46617207583E+01  0.34134959067E+02  0.00000000000E+00 0.  1.
         22    1    3    3    0    0 -0.13104534634E+03  0.21847072057E+03 -0.20164904792E+03  0.32490718224E+03  0.00000000000E+00 0.  1.
</event>
<event>
 7    1  0.4915160E-006  0.3873852E+02  0.7818608E-02  0.1585976E+00
          2   -1    0    0  502    0  0.00000000000E+00  0.00000000000E+00  0.22628685213E+03  0.22628685213E+03  0.00000000000E+00 0. -1.
          1   -1    0    0  501    0 -0.00000000000E+00 -0.00000000000E+00 -0.42646618721E+03  0.42646618721E+03  0.00000000000E+00 0. -1.
         25    2    1    2    0    0  0.79996052921E+01  0.53834425652E+02 -0.10582140356E+03  0.17258457800E+03  0.12500051216E+03 0.  0.
          2    1    1    2  501    0  0.10381042558E+02 -0.36877325958E+02 -0.28516633414E+03  0.28772824217E+03  0.00000000000E+00 0. -1.
          1    1    1    2  502    0 -0.18380647850E+02 -0.16957099694E+02  0.19080840262E+03  0.19244021918E+03  0.00000000000E+00 0. -1.
         22    1    3    3    0    0 -0.58689091124E+01  0.82068988536E+02 -0.11351775478E+03  0.14020001292E+03  0.00000000000E+00 0.  1.
         22    1    3    3    0    0  0.13868514404E+02 -0.28234562884E+02  0.76963512187E+01  0.32384565076E+02  0.00000000000E+00 0.  1.
</event>
<event>
 7    1  0.4915160E-006  0.1562400E+03  0.7818608E-02  0.1251891E+00
          2   -1    0    0  502    0  0.00000000000E+00  0.00000000000E+00  0.25935964919E+04  0.25935964919E+04  0.00000000000E+00 0. -1.
          1   -1    0    0  501    0 -0.00000000000E+00 -0.00000000000E+00 -0.28073083755E+03  0.28073083755E+03  0.00000000000E+00 0. -1.
         25    2    1    2    0    0  0.86695290713E+02 -0.97202529215E+02  0.20459143018E+04  0.20538633497E+04  0.12499969524E+03 0.  0.
          2    1    1    2  501    0 -0.15089380899E+03  0.42436439170E+02 -0.25086923906E+03  0.29581272466E+03  0.00000000000E+00 0. -1.
          1    1    1    2  502    0  0.64198518276E+02  0.54766090044E+02  0.51782059158E+03  0.52465125506E+03  0.00000000000E+00 0. -1.
         22    1    3    3    0    0  0.84309111924E+02 -0.83677747690E+02  0.20270600553E+04  0.20305374805E+04  0.00000000000E+00 0. -1.
         22    1    3    3    0    0  0.23861787886E+01 -0.13524781525E+02  0.18854246548E+02  0.23325869274E+02  0.00000000000E+00 0. -1.
</event>
<event>
 7    1  0.4915160E-006  0.9478076E+02  0.7818608E-02  0.1427329E+00
          2   -1    0    0  502    0  0.00000000000E+00  0.00000000000E+00  0.20556384670E+04  0.20556384670E+04  0.00000000000E+00 0. -1.
          1   -1    0    0  501    0 -0.00000000000E+00 -0.00000000000E+00 -0.53280937147E+03  0.53280937147E+03  0.00000000000E+00 0. -1.
         25    2    1    2    0    0  0.87963162668E+02 -0.35769062804E+02  0.37732024372E+03  0.40866738433E+03  0.12498608263E+03 0.  0.
          2    1    1    2  501    0 -0.72175397335E+02  0.61511907271E+02 -0.51264965705E+03  0.52134698003E+03  0.00000000000E+00 0. -1.
          1    1    1    2  502    0 -0.15787765333E+02 -0.25742844467E+02  0.16581585088E+04  0.16584334741E+04  0.00000000000E+00 0. -1.
         22    1    3    3    0    0  0.41786656630E+02 -0.24731227669E+02  0.35107840535E+03  0.35442037892E+03  0.00000000000E+00 0. -1.
         22    1    3    3    0    0  0.46176506038E+02 -0.11037835136E+02  0.26241838376E+02  0.54247005408E+02  0.00000000000E+00 0. -1.
</event>
<event>
 7    1  0.4915160E-006  0.8086194E+02  0.7818608E-02  0.1352985E+00
          2   -1    0    0  502    0  0.00000000000E+00  0.00000000000E+00  0.66557739330E+02  0.66557739330E+02  0.00000000000E+00 0. -1.
          1   -1    0    0  501    0 -0.00000000000E+00 -0.00000000000E+00 -0.90431898023E+03  0.90431898023E+03  0.00000000000E+00 0. -1.
         25    2    1    2    0    0  0.11144421906E+03  0.67105012098E+02 -0.40817613885E+03  0.44626711995E+03  0.12499474154E+03 0.  0.
          2    1    1    2  501    0 -0.34910305296E+02 -0.54053740511E+02 -0.44141003213E+03  0.44607550117E+03  0.00000000000E+00 0. -1.
          1    1    1    2  502    0 -0.76533913768E+02 -0.13051271587E+02  0.11824930076E+02  0.78534098441E+02  0.00000000000E+00 0. -1.
         22    1    3    3    0    0  0.49622827033E+02  0.97099928532E+02 -0.28616943236E+03  0.30624135106E+03  0.00000000000E+00 0. -1.
         22    1    3    3    0    0  0.61821392031E+02 -0.29994916434E+02 -0.12200670649E+03  0.14002576889E+03  0.00000000000E+00 0. -1.
</event>
<event>
 7    1  0.4915160E-006  0.2215089E+03  0.7818608E-02  0.1185792E+00
          2   -1    0    0  502    0  0.00000000000E+00  0.00000000000E+00  0.56720617338E+03  0.56720617338E+03  0.00000000000E+00 0. -1.
          1   -1    0    0  501    0 -0.00000000000E+00 -0.00000000000E+00 -0.13783394127E+04  0.13783394127E+04  0.00000000000E+00 0. -1.
         25    2    1    2    0    0  0.25458987929E+03 -0.10147500294E+03 -0.18902669623E+02  0.30181998656E+03  0.12499924203E+03 0.  0.
          2    1    1    2  501    0 -0.10582912258E+03 -0.55194021655E+02 -0.11873845202E+04  0.11933684184E+04  0.00000000000E+00 0. -1.
          1    1    1    2  502    0 -0.14876075671E+03  0.15666902459E+03  0.39515395049E+03  0.45035718113E+03  0.00000000000E+00 0. -1.
         22    1    3    3    0    0  0.48967577319E+02 -0.59171445246E+02 -0.46960697584E+02  0.90024389354E+02  0.00000000000E+00 0.  1.
         22    1    3    3    0    0  0.20562230197E+03 -0.42303557690E+02  0.28058027962E+02  0.21179559721E+03  0.00000000000E+00 0.  1.
</event>
<event>
 7    1  0.4915160E-006  0.2474182E+03  0.7818608E-02  0.1210971E+00
          2   -1    0    0  502    0  0.00000000000E+00  0.00000000000E+00  0.82118701189E+03  0.82118701189E+03  0.00000000000E+00 0. -1.
          1   -1    0    0  501    0 -0.00000000000E+00 -0.00000000000E+00 -0.21483329235E+04  0.21483329235E+04  0.00000000000E+00 0. -1.
         25    2    1    2    0    0  0.61160724590E+02  0.16908388862E+03 -0.90446719874E+03  0.93059950804E+03  0.12499814056E+03 0.  0.
          2    1    1    2  501    0 -0.25219929209E+02  0.77216135982E+02 -0.12102392093E+04  0.12129622089E+04  0.00000000000E+00 0. -1.
          1    1    1    2  502    0 -0.35940795382E+02 -0.24630002461E+03  0.78756049649E+03  0.82595821839E+03  0.00000000000E+00 0. -1.
         22    1    3    3    0    0  0.95845397468E+01  0.13458208034E+03 -0.39587438332E+03  0.41823525332E+03  0.00000000000E+00 0.  1.
         22    1    3    3    0    0  0.51576184844E+02  0.34501808283E+02 -0.50859281542E+03  0.51236425472E+03  0.00000000000E+00 0.  1.
</event>
<event>
 7    1  0.4915160E-006  0.7609198E+02  0.7818608E-02  0.1355912E+00
          2   -1    0    0  502    0  0.00000000000E+00  0.00000000000E+00  0.77246397619E+03  0.77246397619E+03  0.00000000000E+00 0. -1.
          1   -1    0    0  501    0 -0.00000000000E+00 -0.00000000000E+00 -0.38492055834E+03  0.38492055834E+03  0.00000000000E+00 0. -1.
         25    2    1    2    0    0  0.10482820045E+03  0.55826397952E+02  0.37428043091E+03  0.41208700316E+03  0.12499727555E+03 0.  0.
          2    1    1    2  501    0 -0.75716835851E+02  0.41914819155E+01 -0.35909350145E+03  0.36701328387E+03  0.00000000000E+00 0. -1.
          1    1    1    2  502    0 -0.29111364601E+02 -0.60017879867E+02  0.37235648840E+03  0.37828424750E+03  0.00000000000E+00 0. -1.
         22    1    3    3    0    0  0.80701538986E+02  0.64438933594E+02  0.12794621530E+03  0.16442429433E+03  0.00000000000E+00 0.  1.
         22    1    3    3    0    0  0.24126661465E+02 -0.86125356420E+01  0.24633421561E+03  0.24766270883E+03  0.00000000000E+00 0.  1.
</event>
<event>
 7    1  0.4915160E-006  0.1313866E+03  0.7818608E-02  0.1299590E+00
          2   -1    0    0  502    0  0.00000000000E+00  0.00000000000E+00  0.86435030854E+02  0.86435030854E+02  0.00000000000E+00 0. -1.
          1   -1    0    0  501    0 -0.00000000000E+00 -0.00000000000E+00 -0.66591383537E+03  0.66591383537E+03  0.00000000000E+00 0. -1.
         25    2    1    2    0    0 -0.90041608417E+02  0.45002372320E+02 -0.23747239345E+03  0.28661677068E+03  0.12499332311E+03 0.  0.
          2    1    1    2  501    0 -0.44573319717E+01  0.63371782590E+02 -0.31257160182E+03  0.31896215591E+03  0.00000000000E+00 0. -1.
          1    1    1    2  502    0  0.94498940389E+02 -0.10837415491E+03 -0.29434809249E+02  0.14676993964E+03  0.00000000000E+00 0. -1.
         22    1    3    3    0    0 -0.10674902325E+02  0.50695083961E+02 -0.20854395778E+02  0.55846673139E+02  0.00000000000E+00 0.  1.
         22    1    3    3    0    0 -0.79366706093E+02 -0.56927116414E+01 -0.21661799767E+03  0.23077009754E+03  0.00000000000E+00 0.  1.
</event>
<event>
 7    1  0.4915160E-006  0.5982519E+02  0.7818608E-02  0.1403562E+00
          2   -1    0    0  502    0  0.00000000000E+00  0.00000000000E+00  0.36315292026E+03  0.36315292026E+03  0.00000000000E+00 0. -1.
          1   -1    0    0  501    0 -0.00000000000E+00 -0.00000000000E+00 -0.38472065191E+03  0.38472065191E+03  0.00000000000E+00 0. -1.
         25    2    1    2    0    0  0.42156265030E+02  0.10860483315E+03 -0.14748753609E+03  0.22572150337E+03  0.12500185326E+03 0.  0.
          2    1    1    2  501    0 -0.20178226955E+02 -0.53852371631E+02 -0.19116356537E+03  0.19962652003E+03  0.00000000000E+00 0. -1.
          1    1    1    2  502    0 -0.21978038076E+02 -0.54752461516E+02  0.31708336981E+03  0.32252554877E+03  0.00000000000E+00 0. -1.
         22    1    3    3    0    0 -0.18768874929E-01 -0.65574563704E+01 -0.90062601164E+02  0.90301011704E+02  0.00000000000E+00 0.  1.
         22    1    3    3    0    0  0.42175033905E+02  0.11516228952E+03 -0.57424934928E+02  0.13542049167E+03  0.00000000000E+00 0.  1.
</event>
<event>
 7    1  0.4915160E-006  0.3952564E+02  0.7818608E-02  0.1557315E+00
          2   -1    0    0  502    0  0.00000000000E+00  0.00000000000E+00  0.12028165761E+03  0.12028165761E+03  0.00000000000E+00 0. -1.
          1   -1    0    0  501    0 -0.00000000000E+00 -0.00000000000E+00 -0.67163800494E+03  0.67163800494E+03  0.00000000000E+00 0. -1.
         25    2    1    2    0    0 -0.61685688265E+02 -0.28509506274E+02 -0.16947906784E+03  0.22128251434E+03  0.12499952253E+03 0.  0.
          2    1    1    2  501    0  0.35405647863E+02  0.15527058539E+02 -0.47317379631E+03  0.47475055657E+03  0.00000000000E+00 0. -1.
          1    1    1    2  502    0  0.26280040402E+02  0.12982447735E+02  0.91296516825E+02  0.95886591644E+02  0.00000000000E+00 0. -1.
         22    1    3    3    0    0 -0.34337785054E+02  0.24435884409E+02 -0.54750049358E+00  0.42148495656E+02  0.00000000000E+00 0. -1.
         22    1    3    3    0    0 -0.27347903210E+02 -0.52945390683E+02 -0.16893156734E+03  0.17913401868E+03  0.00000000000E+00 0. -1.
</event>
<event>
 7    1  0.4915160E-006  0.8033838E+02  0.7818608E-02  0.1346852E+00
          2   -1    0    0  502    0  0.00000000000E+00  0.00000000000E+00  0.17718521179E+03  0.17718521179E+03  0.00000000000E+00 0. -1.
          1   -1    0    0  501    0 -0.00000000000E+00 -0.00000000000E+00 -0.69255525013E+03  0.69255525013E+03  0.00000000000E+00 0. -1.
         25    2    1    2    0    0 -0.55417124285E+02  0.85978835159E+01 -0.44912037640E+03  0.46954024644E+03  0.12495578925E+03 0.  0.
          2    1    1    2  501    0  0.11963469742E+03  0.14502071033E+02 -0.20940735837E+03  0.24160755913E+03  0.00000000000E+00 0. -1.
          1    1    1    2  502    0 -0.64217573130E+02 -0.23099954549E+02  0.14315769643E+03  0.15859265634E+03  0.00000000000E+00 0. -1.
         22    1    3    3    0    0 -0.71519491391E+02  0.49877691223E+02 -0.22974410934E+03  0.24573395677E+03  0.00000000000E+00 0. -1.
         22    1    3    3    0    0  0.16102367106E+02 -0.41279807707E+02 -0.21937626706E+03  0.22380628968E+03  0.00000000000E+00 0. -1.
</event>
<event>
 7    1  0.4915160E-006  0.3562730E+02  0.7818608E-02  0.1625595E+00
          2   -1    0    0  502    0  0.00000000000E+00  0.00000000000E+00  0.25953608353E+03  0.25953608353E+03  0.00000000000E+00 0. -1.
          1   -1    0    0  501    0 -0.00000000000E+00 -0.00000000000E+00 -0.13201539088E+03  0.13201539088E+03  0.00000000000E+00 0. -1.
         25    2    1    2    0    0  0.33478404661E+02 -0.21553174328E+02  0.12477336925E+03  0.18105042660E+03  0.12500208157E+03 0.  0.
          2    1    1    2  501    0  0.22988621439E+01  0.21338451600E+02 -0.99701128555E+02  0.10198494653E+03  0.00000000000E+00 0. -1.
          1    1    1    2  502    0 -0.35777266805E+02  0.21472272803E+00  0.10244845197E+03  0.10851610128E+03  0.00000000000E+00 0. -1.
         22    1    3    3    0    0  0.79789327956E+02 -0.14831156634E+01  0.65838925011E+02  0.10345675683E+03  0.00000000000E+00 0.  1.
         22    1    3    3    0    0 -0.46310923295E+02 -0.20070058664E+02  0.58934444234E+02  0.77593669770E+02  0.00000000000E+00 0.  1.
</event>
<event>
 7    1  0.4915160E-006  0.6733928E+02  0.7818608E-02  0.1387562E+00
          2   -1    0    0  502    0  0.00000000000E+00  0.00000000000E+00  0.82746793482E+03  0.82746793482E+03  0.00000000000E+00 0. -1.
          1   -1    0    0  501    0 -0.00000000000E+00 -0.00000000000E+00 -0.79399712278E+02  0.79399712278E+02  0.00000000000E+00 0. -1.
         25    2    1    2    0    0 -0.74352825181E+01  0.48863863253E+02  0.41949405836E+02  0.14080947995E+03  0.12499838574E+03 0.  0.
          2    1    1    2  501    0 -0.45271322849E+02 -0.73168636786E+02  0.35736156361E+02  0.93167671180E+02  0.00000000000E+00 0. -1.
          1    1    1    2  502    0  0.52706605367E+02  0.24304773533E+02  0.67038266034E+03  0.67289049596E+03  0.00000000000E+00 0. -1.
         22    1    3    3    0    0  0.15528756329E+01  0.80377073873E+02  0.62761114246E+02  0.10198942538E+03  0.00000000000E+00 0. -1.
         22    1    3    3    0    0 -0.89881581511E+01 -0.31513210621E+02 -0.20811708410E+02  0.38820054579E+02  0.00000000000E+00 0. -1.
</event>
<event>
 7    1  0.4915160E-006  0.1025817E+03  0.7818608E-02  0.1462575E+00
          2   -1    0    0  502    0  0.00000000000E+00  0.00000000000E+00  0.18417248753E+04  0.18417248753E+04  0.00000000000E+00 0. -1.
          1   -1    0    0  501    0 -0.00000000000E+00 -0.00000000000E+00 -0.32581274916E+03  0.32581274916E+03  0.00000000000E+00 0. -1.
         25    2    1    2    0    0 -0.11270796462E+03 -0.50608744135E+02  0.56719427926E+02  0.18467019686E+03  0.12498663062E+03 0.  0.
          2    1    1    2  501    0  0.19899271275E+02  0.80880673228E+01 -0.25988003305E+03  0.26076623518E+03  0.00000000000E+00 0. -1.
          1    1    1    2  502    0  0.92808693345E+02  0.42520676812E+02  0.17190727312E+04  0.17221011924E+04  0.00000000000E+00 0. -1.
         22    1    3    3    0    0 -0.14007492465E+03 -0.43380083713E+02  0.40861012009E+02  0.15222496011E+03  0.00000000000E+00 0. -1.
         22    1    3    3    0    0  0.27366960028E+02 -0.72286604224E+01  0.15858415917E+02  0.32445236754E+02  0.00000000000E+00 0. -1.
</event>
<event>
 7    1  0.4915160E-006  0.6382570E+02  0.7818608E-02  0.1413897E+00
          2   -1    0    0  502    0  0.00000000000E+00  0.00000000000E+00  0.29926052037E+03  0.29926052037E+03  0.00000000000E+00 0. -1.
          1   -1    0    0  501    0 -0.00000000000E+00 -0.00000000000E+00 -0.14741410705E+03  0.14741410705E+03  0.00000000000E+00 0. -1.
         25    2    1    2    0    0 -0.52000829030E+02  0.21226520308E+02 -0.54522692877E+02  0.14748660825E+03  0.12499969676E+03 0.  0.
          2    1    1    2  501    0  0.29794670872E+02  0.39804372209E+02 -0.27257992457E+02  0.56701927764E+02  0.00000000000E+00 0. -1.
          1    1    1    2  502    0  0.22206158157E+02 -0.61030892517E+02  0.23362709866E+03  0.24248609141E+03  0.00000000000E+00 0. -1.
         22    1    3    3    0    0 -0.53701094726E+02  0.11130068815E+02 -0.92838155755E+02  0.10782675536E+03  0.00000000000E+00 0. -1.
         22    1    3    3    0    0  0.17002656959E+01  0.10096451493E+02  0.38315462878E+02  0.39659852896E+02  0.00000000000E+00 0. -1.
</event>
<event>
 7    1  0.4915160E-006  0.4747969E+02  0.7818608E-02  0.1569692E+00
          2   -1    0    0  502    0  0.00000000000E+00  0.00000000000E+00  0.50797448723E+03  0.50797448723E+03  0.00000000000E+00 0. -1.
          1   -1    0    0  501    0 -0.00000000000E+00 -0.00000000000E+00 -0.83071602530E+03  0.83071602530E+03  0.00000000000E+00 0. -1.
         25    2    1    2    0    0  0.32667732457E+02  0.62723738103E+01 -0.69110548645E+02  0.14665872312E+03  0.12500395880E+03 0.  0.
          2    1    1    2  501    0 -0.46394067175E+02  0.11641965627E+02 -0.72176793459E+03  0.72335115693E+03  0.00000000000E+00 0. -1.
          1    1    1    2  502    0  0.13726334719E+02 -0.17914339437E+02  0.46813694517E+03  0.46868063247E+03  0.00000000000E+00 0. -1.
         22    1    3    3    0    0 -0.17887153829E+02  0.13639932269E+02 -0.89027069518E+02  0.91824926525E+02  0.00000000000E+00 0.  1.
         22    1    3    3    0    0  0.50554886285E+02 -0.73675584589E+01  0.19916520873E+02  0.54833796591E+02  0.00000000000E+00 0.  1.
</event>
<event>
 7    1  0.4915160E-006  0.2120275E+03  0.7818608E-02  0.1286367E+00
          2   -1    0    0  502    0  0.00000000000E+00  0.00000000000E+00  0.44759496119E+04  0.44759496119E+04  0.00000000000E+00 0. -1.
          1   -1    0    0  501    0 -0.00000000000E+00 -0.00000000000E+00 -0.57713346299E+03  0.57713346299E+03  0.00000000000E+00 0. -1.
         25    2    1    2    0    0 -0.14882971519E+03  0.19632530637E+03  0.33848650902E+03  0.43691209613E+03  0.12500061167E+03 0.  0.
          2    1    1    2  501    0  0.41783761885E+02 -0.15395506742E+02 -0.52427366917E+03  0.52616136742E+03  0.00000000000E+00 0. -1.
          1    1    1    2  502    0  0.10704595330E+03 -0.18092979962E+03  0.40846033091E+04  0.40900096113E+04  0.00000000000E+00 0. -1.
         22    1    3    3    0    0  0.25560802588E+01  0.26006980765E+02  0.11429287103E+03  0.11724230023E+03  0.00000000000E+00 0.  1.
         22    1    3    3    0    0 -0.15138579545E+03  0.17031832560E+03  0.22419363799E+03  0.31966979590E+03  0.00000000000E+00 0.  1.
</event>
<event>
 7    1  0.4915160E-006  0.5133387E+02  0.7818608E-02  0.1446820E+00
          2   -1    0    0  502    0  0.00000000000E+00  0.00000000000E+00  0.83581755643E+03  0.83581755643E+03  0.00000000000E+00 0. -1.
          1   -1    0    0  501    0 -0.00000000000E+00 -0.00000000000E+00 -0.12038567282E+03  0.12038567282E+03  0.00000000000E+00 0. -1.
         25    2    1    2    0    0 -0.85644646206E+02  0.14440949474E+02  0.21699000558E+03  0.26504994357E+03  0.12499305429E+03 0.  0.
          2    1    1    2  501    0  0.37882414313E+02 -0.29753940881E+02 -0.89199553286E+02  0.10137521698E+03  0.00000000000E+00 0. -1.
          1    1    1    2  502    0  0.47762231893E+02  0.15312991407E+02  0.58764143132E+03  0.58977806869E+03  0.00000000000E+00 0. -1.
         22    1    3    3    0    0  0.11441159460E+02  0.30221823321E+02  0.68551372705E+01  0.33034098166E+02  0.00000000000E+00 0. -1.
         22    1    3    3    0    0 -0.97085805666E+02 -0.15780873846E+02  0.21013486831E+03  0.23201584541E+03  0.00000000000E+00 0. -1.
</event>
<event>
 7    1  0.4915160E-006  0.1765911E+03  0.7818608E-02  0.1260591E+00
          2   -1    0    0  502    0  0.00000000000E+00  0.00000000000E+00  0.27534590549E+03  0.27534590549E+03  0.00000000000E+00 0. -1.
          1   -1    0    0  501    0 -0.00000000000E+00 -0.00000000000E+00 -0.13967670923E+04  0.13967670923E+04  0.00000000000E+00 0. -1.
         25    2    1    2    0    0 -0.79796360501E+02 -0.13079104974E+03 -0.22767816797E+03  0.30155624849E+03  0.12500025997E+03 0.  0.
          2    1    1    2  501    0 -0.64838366608E+02  0.22113707225E+02 -0.10966049117E+04  0.10987426278E+04  0.00000000000E+00 0. -1.
          1    1    1    2  502    0  0.14463472711E+03  0.10867734252E+03  0.20286189285E+03  0.27181412148E+03  0.00000000000E+00 0. -1.
         22    1    3    3    0    0 -0.56511321196E+02 -0.21356813534E+02 -0.15944790077E+03  0.17050887358E+03  0.00000000000E+00 0. -1.
         22    1    3    3    0    0 -0.23285039305E+02 -0.10943423621E+03 -0.68230267200E+02  0.13104737492E+03  0.00000000000E+00 0. -1.
</event>
<event>
 7    1  0.4915160E-006  0.1188761E+03  0.7818608E-02  0.1321618E+00
          2   -1    0    0  502    0  0.00000000000E+00  0.00000000000E+00  0.48070944818E+03  0.48070944818E+03  0.00000000000E+00 0. -1.
          1   -1    0    0  501    0 -0.00000000000E+00 -0.00000000000E+00 -0.91753895797E+03  0.91753895797E+03  0.00000000000E+00 0. -1.
         25    2    1    2    0    0  0.19443367928E+02 -0.84379683577E+02  0.28305667761E+02  0.15467477504E+03  0.12500039860E+03 0.  0.
          2    1    1    2  501    0  0.27477960088E+02  0.11762049858E+03 -0.84792699472E+03  0.85648689911E+03  0.00000000000E+00 0. -1.
          1    1    1    2  502    0 -0.46921328017E+02 -0.33240814999E+02  0.38279181717E+03  0.38708673200E+03  0.00000000000E+00 0. -1.
         22    1    3    3    0    0 -0.41877461293E+02 -0.14211669855E+02 -0.21324015945E+02  0.49095895760E+02  0.00000000000E+00 0. -1.
         22    1    3    3    0    0  0.61320829222E+02 -0.70168013722E+02  0.49629683706E+02  0.10557887928E+03  0.00000000000E+00 0. -1.
</event>
<event>
 7    1  0.4915160E-006  0.4773957E+02  0.7818608E-02  0.1470089E+00
          2   -1    0    0  502    0  0.00000000000E+00  0.00000000000E+00  0.56943140574E+03  0.56943140574E+03  0.00000000000E+00 0. -1.
          1   -1    0    0  501    0 -0.00000000000E+00 -0.00000000000E+00 -0.24829544590E+03  0.24829544590E+03  0.00000000000E+00 0. -1.
         25    2    1    2    0    0 -0.52265223555E+01  0.71172550339E+02 -0.14029648032E+03  0.20100214759E+03  0.12500364990E+03 0.  0.
          2    1    1    2  501    0 -0.23492162475E+02 -0.38200512980E+02 -0.70197428820E+02  0.83299699295E+02  0.00000000000E+00 0. -1.
          1    1    1    2  502    0  0.28718684830E+02 -0.32972037359E+02  0.53162986898E+03  0.53342500476E+03  0.00000000000E+00 0. -1.
         22    1    3    3    0    0  0.48762272806E+02  0.55815371881E+02 -0.12052764764E+03  0.14149215113E+03  0.00000000000E+00 0.  1.
         22    1    3    3    0    0 -0.53988795162E+02  0.15357178458E+02 -0.19768832685E+02  0.59509996462E+02  0.00000000000E+00 0.  1.
</event>
<event>
 7    1  0.4915160E-006  0.1183582E+03  0.7818608E-02  0.1247060E+00
          2   -1    0    0  502    0  0.00000000000E+00  0.00000000000E+00  0.21962201696E+04  0.21962201696E+04  0.00000000000E+00 0. -1.
          1   -1    0    0  501    0 -0.00000000000E+00 -0.00000000000E+00 -0.12643517619E+04  0.12643517619E+04  0.00000000000E+00 0. -1.
         25    2    1    2    0    0  0.90001347144E+02 -0.79842398725E+02  0.18420001760E+03  0.25304453845E+03  0.12500736311E+03 0.  0.
          2    1    1    2  501    0 -0.11394999895E+03 -0.34583124569E+02 -0.12253128213E+04  0.12310857422E+04  0.00000000000E+00 0. -1.
          1    1    1    2  502    0  0.23948651804E+02  0.11442552329E+03  0.19729812114E+04  0.19764416508E+04  0.00000000000E+00 0. -1.
         22    1    3    3    0    0  0.22125880794E+02  0.30680965315E+02  0.17094362737E+02  0.41510161057E+02  0.00000000000E+00 0. -1.
         22    1    3    3    0    0  0.67875466350E+02 -0.11052336404E+03  0.16710565486E+03  0.21153437739E+03  0.00000000000E+00 0. -1.
</event>
<event>
 7    1  0.4915160E-006  0.3109888E+03  0.7818608E-02  0.1235683E+00
          2   -1    0    0  502    0  0.00000000000E+00  0.00000000000E+00  0.19224034116E+04  0.19224034116E+04  0.00000000000E+00 0. -1.
          1   -1    0    0  501    0 -0.00000000000E+00 -0.00000000000E+00 -0.54824056015E+03  0.54824056015E+03  0.00000000000E+00 0. -1.
         25    2    1    2    0    0 -0.22399226842E+03 -0.19420848543E+03  0.40175808238E+03  0.51470488275E+03  0.12498834924E+03 0.  0.
          2    1    1    2  501    0 -0.43155200865E+02  0.25108835808E+02 -0.47337086635E+03  0.47599664085E+03  0.00000000000E+00 0. -1.
          1    1    1    2  502    0  0.26714746928E+03  0.16909964962E+03  0.14457756354E+04  0.14799424481E+04  0.00000000000E+00 0. -1.
         22    1    3    3    0    0 -0.22893286045E+03 -0.20552096826E+03  0.37366457531E+03  0.48401894367E+03  0.00000000000E+00 0.  1.
         22    1    3    3    0    0  0.49405920319E+01  0.11312482839E+02  0.28093507073E+02  0.30685939081E+02  0.00000000000E+00 0.  1.
</event>
<event>
 7    1  0.4915160E-006  0.1724949E+03  0.7818608E-02  0.1268276E+00
          2   -1    0    0  502    0  0.00000000000E+00  0.00000000000E+00  0.81412021712E+03  0.81412021712E+03  0.00000000000E+00 0. -1.
          1   -1    0    0  501    0 -0.00000000000E+00 -0.00000000000E+00 -0.29075084768E+04  0.29075084768E+04  0.00000000000E+00 0. -1.
         25    2    1    2    0    0  0.11940747441E+03  0.12458269033E+03 -0.74025227726E+02  0.22557560407E+03  0.12500250853E+03 0.  0.
          2    1    1    2  501    0 -0.64982455645E+02 -0.16024096958E+03 -0.27535573126E+04  0.27589812905E+04  0.00000000000E+00 0. -1.
          1    1    1    2  502    0 -0.54425018765E+02  0.35658279251E+02  0.73419428065E+03  0.73707179928E+03  0.00000000000E+00 0. -1.
         22    1    3    3    0    0  0.43661145189E+02  0.77665994954E+02  0.24830441587E+02  0.92492449426E+02  0.00000000000E+00 0.  1.
         22    1    3    3    0    0  0.75746329222E+02  0.46916695372E+02 -0.98855669313E+02  0.13308315465E+03  0.00000000000E+00 0.  1.
</event>
<event>
 7    1  0.4915160E-006  0.2990413E+02  0.7818608E-02  0.1637907E+00
          2   -1    0    0  502    0  0.00000000000E+00  0.00000000000E+00  0.12695845807E+03  0.12695845807E+03  0.00000000000E+00 0. -1.
          1   -1    0    0  501    0 -0.00000000000E+00 -0.00000000000E+00 -0.12925036259E+03  0.12925036259E+03  0.00000000000E+00 0. -1.
         25    2    1    2    0    0  0.11319607469E+02 -0.34268115458E+02 -0.20545031066E+02  0.13171931512E+03  0.12500176968E+03 0.  0.
          2    1    1    2  501    0  0.14459635843E+02  0.18921110872E+02 -0.46989552555E+02  0.52679289618E+02  0.00000000000E+00 0. -1.
          1    1    1    2  502    0 -0.25779243312E+02  0.15347004586E+02  0.65242679099E+02  0.71810215927E+02  0.00000000000E+00 0. -1.
         22    1    3    3    0    0 -0.86268005180E+00  0.59971149658E+01 -0.68019077444E+02  0.68288392141E+02  0.00000000000E+00 0.  1.
         22    1    3    3    0    0  0.12182287520E+02 -0.40265230424E+02  0.47474046378E+02  0.63430922978E+02  0.00000000000E+00 0.  1.
</event>
<event>
 7    1  0.4915160E-006  0.2211611E+03  0.7818608E-02  0.1206217E+00
          2   -1    0    0  502    0  0.00000000000E+00  0.00000000000E+00  0.10629557778E+04  0.10629557778E+04  0.00000000000E+00 0. -1.
          1   -1    0    0  501    0 -0.00000000000E+00 -0.00000000000E+00 -0.10174383022E+03  0.10174383022E+03  0.00000000000E+00 0. -1.
         25    2    1    2    0    0 -0.18989431255E+03 -0.73245595055E+02  0.56387042940E+03  0.61237248494E+03  0.12500172808E+03 0.  0.
          2    1    1    2  501    0 -0.69258161142E+02  0.65923960106E+02  0.25377020633E+02  0.98927521838E+02  0.00000000000E+00 0. -1.
          1    1    1    2  502    0  0.25915247370E+03  0.73216349487E+01  0.37196449752E+03  0.45339960121E+03  0.00000000000E+00 0. -1.
         22    1    3    3    0    0 -0.18054867018E+03 -0.27329700244E+02  0.36592971336E+03  0.40896123281E+03  0.00000000000E+00 0.  1.
         22    1    3    3    0    0 -0.93456423745E+01 -0.45915894810E+02  0.19794071604E+03  0.20341125214E+03  0.00000000000E+00 0.  1.
</event>
<event>
 7    1  0.4915160E-006  0.5663097E+02  0.7818608E-02  0.1483762E+00
          2   -1    0    0  502    0  0.00000000000E+00  0.00000000000E+00  0.28238637452E+03  0.28238637452E+03  0.00000000000E+00 0. -1.
          1   -1    0    0  501    0 -0.00000000000E+00 -0.00000000000E+00 -0.15521688489E+03  0.15521688489E+03  0.00000000000E+00 0. -1.
         25    2    1    2    0    0 -0.34377462009E+02 -0.49380495236E+02  0.71891142192E+02  0.15624587164E+03  0.12499677146E+03 0.  0.
          2    1    1    2  501    0  0.17949152989E+01  0.56962184232E+02 -0.10400675690E+03  0.11859729185E+03  0.00000000000E+00 0. -1.
          1    1    1    2  502    0  0.32582546710E+02 -0.75816889961E+01  0.15928510434E+03  0.16276009591E+03  0.00000000000E+00 0. -1.
         22    1    3    3    0    0  0.44028619788E+01 -0.72196142625E+02  0.82805095007E+02  0.10994704163E+03  0.00000000000E+00 0. -1.
         22    1    3    3    0    0 -0.38780323988E+02  0.22815647390E+02 -0.10913952815E+02  0.46298830012E+02  0.00000000000E+00 0. -1.
</event>
<event>
 7    1  0.4915160E-006  0.1073620E+03  0.7818608E-02  0.1337151E+00
          2   -1    0    0  502    0  0.00000000000E+00  0.00000000000E+00  0.15753238823E+04  0.15753238823E+04  0.00000000000E+00 0. -1.
          1   -1    0    0  501    0 -0.00000000000E+00 -0.00000000000E+00 -0.18199947580E+04  0.18199947580E+04  0.00000000000E+00 0. -1.
         25    2    1    2    0    0  0.25509932899E+01 -0.15495793209E+03 -0.15576098469E+04  0.15702815272E+04  0.12496868087E+03 0.  0.
          2    1    1    2  501    0  0.22727059207E+02  0.50667237241E+02 -0.25117804091E+03  0.25724326305E+03  0.00000000000E+00 0. -1.
          1    1    1    2  502    0 -0.25278052497E+02  0.10429069485E+03  0.15641170121E+04  0.15677938501E+04  0.00000000000E+00 0. -1.
         22    1    3    3    0    0 -0.33880395255E+02 -0.15827740746E+03 -0.12183535005E+04  0.12290585304E+04  0.00000000000E+00 0. -1.
         22    1    3    3    0    0  0.36431388545E+02  0.33194753679E+01 -0.33925634632E+03  0.34122299674E+03  0.00000000000E+00 0. -1.
</event>
<event>
 7    1  0.4915160E-006  0.4565612E+02  0.7818608E-02  0.1470377E+00
          2   -1    0    0  502    0  0.00000000000E+00  0.00000000000E+00  0.16389389180E+04  0.16389389180E+04  0.00000000000E+00 0. -1.
          1   -1    0    0  501    0 -0.00000000000E+00 -0.00000000000E+00 -0.32572313659E+03  0.32572313659E+03  0.00000000000E+00 0. -1.
         25    2    1    2    0    0  0.98667591414E+01 -0.26858753892E+02 -0.89276909174E+02  0.15625503062E+03  0.12500608979E+03 0.  0.
          2    1    1    2  501    0  0.35330542872E+02  0.33315142063E+02 -0.19972258780E+03  0.20554137790E+03  0.00000000000E+00 0. -1.
          1    1    1    2  502    0 -0.45197302013E+02 -0.64563881708E+01  0.16022152784E+04  0.16028656461E+04  0.00000000000E+00 0. -1.
         22    1    3    3    0    0  0.72969292951E+00 -0.17494114931E+02 -0.12083252571E+03  0.12209453623E+03  0.00000000000E+00 0. -1.
         22    1    3    3    0    0  0.91370662119E+01 -0.93646389611E+01  0.31555616534E+02  0.34160494386E+02  0.00000000000E+00 0. -1.
</event>
<event>
 7    1  0.4915160E-006  0.1563519E+03  0.7818608E-02  0.1258363E+00
          2   -1    0    0  502    0  0.00000000000E+00  0.00000000000E+00  0.15600271260E+04  0.15600271260E+04  0.00000000000E+00 0. -1.
          1   -1    0    0  501    0 -0.00000000000E+00 -0.00000000000E+00 -0.79499761117E+02  0.79499761117E+02  0.00000000000E+00 0. -1.
         25    2    1    2    0    0  0.12527226062E+03  0.14613107420E+03  0.66289757139E+03  0.70150292112E+03  0.12500291222E+03 0.  0.
          2    1    1    2  501    0 -0.46184849664E+02 -0.14580633194E+03  0.42323212794E+02  0.15869398575E+03  0.00000000000E+00 0. -1.
          1    1    1    2  502    0 -0.79087410958E+02 -0.32474225591E+00  0.77530658066E+03  0.77932998020E+03  0.00000000000E+00 0. -1.
         22    1    3    3    0    0  0.12567695788E+03  0.16655845090E+03  0.61492997699E+03  0.64936529928E+03  0.00000000000E+00 0. -1.
         22    1    3    3    0    0 -0.40469725533E+00 -0.20427376706E+02  0.47967594397E+02  0.52137621840E+02  0.00000000000E+00 0. -1.
</event>
<event>
 7    1  0.4915160E-006  0.7933989E+02  0.7818608E-02  0.1422120E+00
          2   -1    0    0  502    0  0.00000000000E+00  0.00000000000E+00  0.47051007355E+03  0.47051007355E+03  0.00000000000E+00 0. -1.
          1   -1    0    0  501    0 -0.00000000000E+00 -0.00000000000E+00 -0.73857420055E+02  0.73857420055E+02  0.00000000000E+00 0. -1.
         25    2    1    2    0    0 -0.73581231432E+02 -0.81851632905E+02  0.21518990690E+03  0.27211117370E+03  0.12499562949E+03 0.  0.
          2    1    1    2  501    0  0.58586823304E+02  0.47436231768E+02 -0.10986856732E+02  0.76179544302E+02  0.00000000000E+00 0. -1.
          1    1    1    2  502    0  0.14994408128E+02  0.34415401138E+02  0.19244960332E+03  0.19607677560E+03  0.00000000000E+00 0. -1.
         22    1    3    3    0    0 -0.65406703244E+02 -0.72480255865E+02  0.23170762217E+03  0.25143557126E+03  0.00000000000E+00 0. -1.
         22    1    3    3    0    0 -0.81745281878E+01 -0.93713770401E+01 -0.16517715271E+02  0.20675602446E+02  0.00000000000E+00 0. -1.
</event>
<event>
 7    1  0.4915160E-006  0.1407382E+03  0.7818608E-02  0.1216164E+00
          2   -1    0    0  502    0  0.00000000000E+00  0.00000000000E+00  0.96950055650E+02  0.96950055650E+02  0.00000000000E+00 0. -1.
          1   -1    0    0  501    0 -0.00000000000E+00 -0.00000000000E+00 -0.23196991788E+04  0.23196991788E+04  0.00000000000E+00 0. -1.
         25    2    1    2    0    0 -0.50510057503E+02  0.18828016329E+02 -0.27143481703E+03  0.30365698824E+03  0.12499978601E+03 0.  0.
          2    1    1    2  501    0  0.11417518702E+03  0.10668693899E+03 -0.19653531886E+04  0.19715555362E+04  0.00000000000E+00 0. -1.
          1    1    1    2  502    0 -0.63665129514E+02 -0.12551495532E+03  0.14038882479E+02  0.14143671004E+03  0.00000000000E+00 0. -1.
         22    1    3    3    0    0 -0.59729778453E+02 -0.42026779392E+02 -0.16976403633E+03  0.18480726352E+03  0.00000000000E+00 0.  1.
         22    1    3    3    0    0  0.92197209493E+01  0.60854795720E+02 -0.10167078070E+03  0.11884972472E+03  0.00000000000E+00 0.  1.
</event>
<event>
 7    1  0.4915160E-006  0.3248484E+02  0.7818608E-02  0.1628206E+00
          2   -1    0    0  502    0  0.00000000000E+00  0.00000000000E+00  0.30581381027E+02  0.30581381027E+02  0.00000000000E+00 0. -1.
          1   -1    0    0  501    0 -0.00000000000E+00 -0.00000000000E+00 -0.17010870676E+04  0.17010870676E+04  0.00000000000E+00 0. -1.
         25    2    1    2    0    0 -0.15515369911E+02  0.34042156682E+02 -0.23982590323E+03  0.27302193371E+03  0.12499966918E+03 0.  0.
          2    1    1    2  501    0  0.28820683472E+02 -0.15056923061E+02 -0.14347415502E+04  0.14351099813E+04  0.00000000000E+00 0. -1.
          1    1    1    2  502    0 -0.13305313561E+02 -0.18985233621E+02  0.40617668025E+01  0.23536533606E+02  0.00000000000E+00 0. -1.
         22    1    3    3    0    0 -0.24521216557E+02  0.69894020256E+02 -0.80200731040E+02  0.10917243878E+03  0.00000000000E+00 0.  1.
         22    1    3    3    0    0  0.90058466462E+01 -0.35851863573E+02 -0.15962517219E+03  0.16384949494E+03  0.00000000000E+00 0.  1.
</event>
<event>
 7    1  0.4915160E-006  0.7204295E+02  0.7818608E-02  0.1375885E+00
          2   -1    0    0  502    0  0.00000000000E+00  0.00000000000E+00  0.20274415087E+03  0.20274415087E+03  0.00000000000E+00 0. -1.
          1   -1    0    0  501    0 -0.00000000000E+00 -0.00000000000E+00 -0.46155133972E+03  0.46155133972E+03  0.00000000000E+00 0. -1.
         25    2    1    2    0    0 -0.70181980113E+02  0.56317705149E+02 -0.28884967171E+02  0.15670039982E+03  0.12499391877E+03 0.  0.
          2    1    1    2  501    0  0.72147682151E+02  0.33066505324E+01 -0.35857896609E+03  0.36578012097E+03  0.00000000000E+00 0. -1.
          1    1    1    2  502    0 -0.19657020385E+01 -0.59624355681E+02  0.12865674441E+03  0.14181496980E+03  0.00000000000E+00 0. -1.
         22    1    3    3    0    0 -0.38551020504E+02 -0.11846491953E+02 -0.62496959862E+02  0.74380041311E+02  0.00000000000E+00 0. -1.
         22    1    3    3    0    0 -0.31630959609E+02  0.68164197102E+02  0.33611992691E+02  0.82320358509E+02  0.00000000000E+00 0. -1.
</event>
<event>
 7    1  0.4915160E-006  0.9233403E+02  0.7818608E-02  0.1339169E+00
          2   -1    0    0  502    0  0.00000000000E+00  0.00000000000E+00  0.18386674353E+03  0.18386674353E+03  0.00000000000E+00 0. -1.
          1   -1    0    0  501    0 -0.00000000000E+00 -0.00000000000E+00 -0.27982418099E+04  0.27982418099E+04  0.00000000000E+00 0. -1.
         25    2    1    2    0    0  0.31994715680E+02 -0.13543517511E+03 -0.70350662749E+03  0.72795117376E+03  0.12499995187E+03 0.  0.
          2    1    1    2  501    0  0.20294159989E+02  0.60113545964E+02 -0.20697465364E+04  0.20707187680E+04  0.00000000000E+00 0. -1.
          1    1    1    2  502    0 -0.52288875670E+02  0.75321629146E+02  0.15887809757E+03  0.18343861159E+03  0.00000000000E+00 0. -1.
         22    1    3    3    0    0 -0.37411488868E+02 -0.52252908796E+02 -0.41165706114E+03  0.41664315902E+03  0.00000000000E+00 0.  1.
         22    1    3    3    0    0  0.69406204549E+02 -0.83182266313E+02 -0.29184956635E+03  0.31130801474E+03  0.00000000000E+00 0.  1.
</event>
<event>
 7    1  0.4915160E-006  0.6119132E+02  0.7818608E-02  0.1411311E+00
          2   -1    0    0  502    0  0.00000000000E+00  0.00000000000E+00  0.50085979594E+03  0.50085979594E+03  0.00000000000E+00 0. -1.
          1   -1    0    0  501    0 -0.00000000000E+00 -0.00000000000E+00 -0.14547033821E+03  0.14547033821E+03  0.00000000000E+00 0. -1.
         25    2    1    2    0    0 -0.86527394285E+02  0.45838087224E+02  0.10295308444E+03  0.18924112653E+03  0.12499898468E+03 0.  0.
          2    1    1    2  501    0  0.59583877800E+02 -0.29774398914E+00 -0.91453755760E+02  0.10915180524E+03  0.00000000000E+00 0. -1.
          1    1    1    2  502    0  0.26943516485E+02 -0.45540343235E+02  0.34389012905E+03  0.34793720238E+03  0.00000000000E+00 0. -1.
         22    1    3    3    0    0  0.58961202515E+01  0.61977346257E+02  0.24369966413E+02  0.66856943889E+02  0.00000000000E+00 0.  1.
         22    1    3    3    0    0 -0.92423514536E+02 -0.16139259033E+02  0.78583118025E+02  0.12238418264E+03  0.00000000000E+00 0.  1.
</event>
<event>
 7    1  0.4915160E-006  0.5547676E+02  0.7818608E-02  0.1462023E+00
          2   -1    0    0  502    0  0.00000000000E+00  0.00000000000E+00  0.10343059760E+04  0.10343059760E+04  0.00000000000E+00 0. -1.
          1   -1    0    0  501    0 -0.00000000000E+00 -0.00000000000E+00 -0.11153448353E+03  0.11153448353E+03  0.00000000000E+00 0. -1.
         25    2    1    2    0    0  0.67972793278E+01 -0.25230009225E+02  0.26160571352E+03  0.29110947929E+03  0.12499769285E+03 0.  0.
          2    1    1    2  501    0 -0.45914331766E+02  0.32982666355E+02 -0.87951212119E+02  0.10455332541E+03  0.00000000000E+00 0. -1.
          1    1    1    2  502    0  0.39117052438E+02 -0.77526571301E+01  0.74911699104E+03  0.75017765479E+03  0.00000000000E+00 0. -1.
         22    1    3    3    0    0 -0.50113527918E+02 -0.43023052503E+02  0.11149550979E+03  0.12959011316E+03  0.00000000000E+00 0. -1.
         22    1    3    3    0    0  0.56910807246E+02  0.17793043278E+02  0.15011020373E+03  0.16151936613E+03  0.00000000000E+00 0. -1.
</event>
<event>
 7    1  0.4915160E-006  0.1385451E+03  0.7818608E-02  0.1344850E+00
          2   -1    0    0  502    0  0.00000000000E+00  0.00000000000E+00  0.60737051053E+03  0.60737051053E+03  0.00000000000E+00 0. -1.
          1   -1    0    0  501    0 -0.00000000000E+00 -0.00000000000E+00 -0.32704649302E+03  0.32704649302E+03  0.00000000000E+00 0. -1.
         25    2    1    2    0    0  0.10344765462E+03  0.10256874973E+02 -0.42561792548E+02  0.16805260399E+03  0.12499420304E+03 0.  0.
          2    1    1    2  501    0  0.34910109397E+02  0.20053664707E+02 -0.21059111678E+03  0.21440495254E+03  0.00000000000E+00 0. -1.
          1    1    1    2  502    0 -0.13835776401E+03 -0.30310539680E+02  0.53347692684E+03  0.55195944701E+03  0.00000000000E+00 0. -1.
         22    1    3    3    0    0  0.10090773400E+03  0.42305794648E+02 -0.66436633082E+02  0.12800772343E+03  0.00000000000E+00 0.  1.
         22    1    3    3    0    0  0.25399206201E+01 -0.32048919675E+02  0.23874840534E+02  0.40044880567E+02  0.00000000000E+00 0.  1.
</event>
<event>
 7    1  0.4915160E-006  0.1393920E+03  0.7818608E-02  0.1426697E+00
          2   -1    0    0  502    0  0.00000000000E+00  0.00000000000E+00  0.11925634515E+03  0.11925634515E+03  0.00000000000E+00 0. -1.
          1   -1    0    0  501    0 -0.00000000000E+00 -0.00000000000E+00 -0.38500432294E+03  0.38500432294E+03  0.00000000000E+00 0. -1.
         25    2    1    2    0    0  0.12310104837E+03  0.91795118150E+02 -0.16254491186E+03  0.25617411531E+03  0.12499646857E+03 0.  0.
          2    1    1    2  501    0 -0.20204393741E+02 -0.41829353853E+01 -0.11082455887E+03  0.11272886642E+03  0.00000000000E+00 0. -1.
          1    1    1    2  502    0 -0.10289665463E+03 -0.87612182765E+02  0.76214929473E+01  0.13535768636E+03  0.00000000000E+00 0. -1.
         22    1    3    3    0    0  0.83523662927E+02 -0.15889005370E+01 -0.11993779493E+03  0.14616361218E+03  0.00000000000E+00 0. -1.
         22    1    3    3    0    0  0.39577385446E+02  0.93384018687E+02 -0.42607116929E+02  0.11001050313E+03  0.00000000000E+00 0. -1.
</event>
<event>
 7    1  0.4915160E-006  0.3409382E+02  0.7818608E-02  0.1565677E+00
          2   -1    0    0  502    0  0.00000000000E+00  0.00000000000E+00  0.18818776962E+04  0.18818776962E+04  0.00000000000E+00 0. -1.
          1   -1    0    0  501    0 -0.00000000000E+00 -0.00000000000E+00 -0.63750815908E+01  0.63750815908E+01  0.00000000000E+00 0. -1.
         25    2    1    2    0    0  0.24894646146E+02  0.17978413542E+02  0.11192699313E+04  0.11266468224E+04  0.12499966665E+03 0.  0.
          2    1    1    2  501    0  0.90603584362E+01 -0.30931382996E+02  0.11750542219E+03  0.12184565972E+03  0.00000000000E+00 0. -1.
          1    1    1    2  502    0 -0.33955004582E+02  0.12952969454E+02  0.63872726114E+03  0.63976029564E+03  0.00000000000E+00 0. -1.
         22    1    3    3    0    0 -0.29335437495E+02 -0.25172871662E+02  0.74580415104E+03  0.74680524440E+03  0.00000000000E+00 0. -1.
         22    1    3    3    0    0  0.54230083641E+02  0.43151285204E+02  0.37346578022E+03  0.37984157800E+03  0.00000000000E+00 0. -1.
</event>
<event>
 7    1  0.4915160E-006  0.1246871E+03  0.7818608E-02  0.1275151E+00
          2   -1    0    0  502    0  0.00000000000E+00  0.00000000000E+00  0.18794576138E+04  0.18794576138E+04  0.00000000000E+00 0. -1.
          1   -1    0    0  501    0 -0.00000000000E+00 -0.00000000000E+00 -0.20014389120E+04  0.20014389120E+04  0.00000000000E+00 0. -1.
         25    2    1    2    0    0  0.45532032917E+02  0.12337134989E+03  0.15180224594E+03  0.23656487013E+03  0.12500143964E+03 0.  0.
          2    1    1    2  501    0 -0.84160653135E+02 -0.36613573023E+01 -0.19558024655E+04  0.19576158217E+04  0.00000000000E+00 0. -1.
          1    1    1    2  502    0  0.38628620218E+02 -0.11970999259E+03  0.16820189214E+04  0.16867158340E+04  0.00000000000E+00 0. -1.
         22    1    3    3    0    0  0.54381250865E+02  0.12110868384E+03  0.17030159646E+03  0.21593347935E+03  0.00000000000E+00 0.  1.
         22    1    3    3    0    0 -0.88492179477E+01  0.22626660578E+01 -0.18499350520E+02  0.20631390783E+02  0.00000000000E+00 0.  1.
</event>
<event>
 7    1  0.4915160E-006  0.1603921E+03  0.7818608E-02  0.1341704E+00
          2   -1    0    0  502    0  0.00000000000E+00  0.00000000000E+00  0.23200670190E+04  0.23200670190E+04  0.00000000000E+00 0. -1.
          1   -1    0    0  501    0 -0.00000000000E+00 -0.00000000000E+00 -0.27511775238E+03  0.27511775238E+03  0.00000000000E+00 0. -1.
         25    2    1    2    0    0 -0.11234408954E+03  0.13018377862E+03  0.47480311866E+03  0.52022246605E+03  0.12499760809E+03 0.  0.
          2    1    1    2  501    0  0.77908345722E+02 -0.13972082909E+03 -0.22686515735E+03  0.27759578533E+03  0.00000000000E+00 0. -1.
          1    1    1    2  502    0  0.34435743819E+02  0.95370504672E+01  0.17970113053E+04  0.17973665200E+04  0.00000000000E+00 0. -1.
         22    1    3    3    0    0 -0.39493741070E+02 -0.20241211801E+02  0.79709634845E+02  0.91230960348E+02  0.00000000000E+00 0. -1.
         22    1    3    3    0    0 -0.72850348471E+02  0.15042499043E+03  0.39509348381E+03  0.42899150570E+03  0.00000000000E+00 0. -1.
</event>
<event>
 7    1  0.4915160E-006  0.5512392E+02  0.7818608E-02  0.1523690E+00
          2   -1    0    0  502    0  0.00000000000E+00  0.00000000000E+00  0.93504607000E+02  0.93504607000E+02  0.00000000000E+00 0. -1.
          1   -1    0    0  501    0 -0.00000000000E+00 -0.00000000000E+00 -0.15611244452E+03  0.15611244452E+03  0.00000000000E+00 0. -1.
         25    2    1    2    0    0  0.38596023125E+02 -0.34234829822E+01 -0.50324015273E+01  0.13096681207E+03  0.12500243023E+03 0.  0.
          2    1    1    2  501    0  0.25824385484E+02  0.41559003622E+01 -0.46398365186E+02  0.53263295855E+02  0.00000000000E+00 0. -1.
          1    1    1    2  502    0 -0.64420408609E+02 -0.73241738005E+00 -0.11177070807E+02  0.65386943592E+02  0.00000000000E+00 0. -1.
         22    1    3    3    0    0  0.12761935209E+02  0.40342854067E+02 -0.48305887550E+02  0.64217377995E+02  0.00000000000E+00 0. -1.
         22    1    3    3    0    0  0.25834087916E+02 -0.43766337049E+02  0.43273486023E+02  0.66749434078E+02  0.00000000000E+00 0. -1.
</event>
<event>
 7    1  0.4915160E-006  0.1383922E+03  0.7818608E-02  0.1381896E+00
          2   -1    0    0  502    0  0.00000000000E+00  0.00000000000E+00  0.69060457409E+03  0.69060457409E+03  0.00000000000E+00 0. -1.
          1   -1    0    0  501    0 -0.00000000000E+00 -0.00000000000E+00 -0.92869141944E+03  0.92869141944E+03  0.00000000000E+00 0. -1.
         25    2    1    2    0    0  0.57630732038E+02  0.10403503832E+03  0.10667167101E+03  0.20284918963E+03  0.12499743143E+03 0.  0.
          2    1    1    2  501    0  0.27877609257E+02  0.98525901121E+01 -0.87088466667E+03  0.87138644542E+03  0.00000000000E+00 0. -1.
          1    1    1    2  502    0 -0.85508341295E+02 -0.11388762843E+03  0.52612615031E+03  0.54506035848E+03  0.00000000000E+00 0. -1.
         22    1    3    3    0    0 -0.25332471581E+02  0.55681962197E+02  0.84462617198E+02  0.10428877569E+03  0.00000000000E+00 0. -1.
         22    1    3    3    0    0  0.82963203619E+02  0.48353076121E+02  0.22209053808E+02  0.98560413941E+02  0.00000000000E+00 0. -1.
</event>
<event>
 7    1  0.4915160E-006  0.5624752E+02  0.7818608E-02  0.1513477E+00
          2   -1    0    0  502    0  0.00000000000E+00  0.00000000000E+00  0.43488178508E+03  0.43488178508E+03  0.00000000000E+00 0. -1.
          1   -1    0    0  501    0 -0.00000000000E+00 -0.00000000000E+00 -0.93972028400E+03  0.93972028400E+03  0.00000000000E+00 0. -1.
         25    2    1    2    0    0 -0.17894871556E+02  0.26659834446E+02 -0.25680794331E+03  0.28741300661E+03  0.12499977369E+03 0.  0.
          2    1    1    2  501    0  0.41049099659E+02 -0.41402735007E+02 -0.66588573334E+03  0.66843326137E+03  0.00000000000E+00 0. -1.
          1    1    1    2  502    0 -0.23154228103E+02  0.14742900562E+02  0.41785517772E+03  0.41875580109E+03  0.00000000000E+00 0. -1.
         22    1    3    3    0    0  0.53718023345E+02  0.61055241081E+01 -0.12049276286E+03  0.13206592807E+03  0.00000000000E+00 0.  1.
         22    1    3    3    0    0 -0.71612894902E+02  0.20554310337E+02 -0.13631518045E+03  0.15534707854E+03  0.00000000000E+00 0.  1.
</event>
<event>
 7    1  0.4915160E-006  0.1043310E+03  0.7818608E-02  0.1357492E+00
          2   -1    0    0  502    0  0.00000000000E+00  0.00000000000E+00  0.24078666142E+04  0.24078666142E+04  0.00000000000E+00 0. -1.
          1   -1    0    0  501    0 -0.00000000000E+00 -0.00000000000E+00 -0.25262820697E+04  0.25262820697E+04  0.00000000000E+00 0. -1.
         25    2    1    2    0    0 -0.18804937825E+02  0.53826055959E+02 -0.45938825843E+02  0.14486425955E+03  0.12499763193E+03 0.  0.
          2    1    1    2  501    0 -0.19954343815E+02  0.43661817300E+02 -0.24294765936E+04  0.24299508326E+04  0.00000000000E+00 0. -1.
          1    1    1    2  502    0  0.38759281641E+02 -0.97487873259E+02  0.23569999639E+04  0.23593335918E+04  0.00000000000E+00 0. -1.
         22    1    3    3    0    0  0.14451571965E+02  0.85795686249E+02 -0.46662856406E+02  0.98727756377E+02  0.00000000000E+00 0.  1.
         22    1    3    3    0    0 -0.33256509791E+02 -0.31969630290E+02  0.72403056325E+00  0.46136503169E+02  0.00000000000E+00 0.  1.
</event>
<event>
 7    1  0.4915160E-006  0.1244747E+03  0.7818608E-02  0.1355143E+00
          2   -1    0    0  502    0  0.00000000000E+00  0.00000000000E+00  0.35675302821E+04  0.35675302821E+04  0.00000000000E+00 0. -1.
          1   -1    0    0  501    0 -0.00000000000E+00 -0.00000000000E+00 -0.13310506738E+03  0.13310506738E+03  0.00000000000E+00 0. -1.
         25    2    1    2    0    0  0.10933856856E+02  0.14083142608E+03  0.11266488789E+04  0.11423289912E+04  0.12499915193E+03 0.  0.
          2    1    1    2  501    0  0.25304610377E+02 -0.12156096765E+03 -0.94277023432E+02  0.15590237109E+03  0.00000000000E+00 0. -1.
          1    1    1    2  502    0 -0.36238467233E+02 -0.19270458423E+02  0.24020533593E+04  0.24024039872E+04  0.00000000000E+00 0. -1.
         22    1    3    3    0    0  0.59771040757E+02  0.28706845041E+02  0.40293922930E+03  0.40835852235E+03  0.00000000000E+00 0.  1.
         22    1    3    3    0    0 -0.48837183901E+02  0.11212458103E+03  0.72370964957E+03  0.73397046881E+03  0.00000000000E+00 0.  1.
</event>
<event>
 7    1  0.4915160E-006  0.4966900E+02  0.7818608E-02  0.1462744E+00
          2   -1    0    0  502    0  0.00000000000E+00  0.00000000000E+00  0.18214359862E+03  0.18214359862E+03  0.00000000000E+00 0. -1.
          1   -1    0    0  501    0 -0.00000000000E+00 -0.00000000000E+00 -0.25633929413E+03  0.25633929413E+03  0.00000000000E+00 0. -1.
         25    2    1    2    0    0 -0.32156023029E+02 -0.22122063300E-01 -0.71499710659E+02  0.14755088556E+03  0.12500017960E+03 0.  0.
          2    1    1    2  501    0  0.30462271888E+02 -0.44254437080E+02 -0.13824886513E+03  0.14832111758E+03  0.00000000000E+00 0. -1.
          1    1    1    2  502    0  0.16937511415E+01  0.44276559144E+02  0.13555288028E+03  0.14261088961E+03  0.00000000000E+00 0. -1.
         22    1    3    3    0    0  0.29640285664E+01  0.19956391261E+02 -0.97459042599E+02  0.99525413849E+02  0.00000000000E+00 0. -1.
         22    1    3    3    0    0 -0.35120051596E+02 -0.19978513324E+02  0.25959331940E+02  0.48025471715E+02  0.00000000000E+00 0. -1.
</event>
<event>
 7    1  0.4915160E-006  0.7943709E+02  0.7818608E-02  0.1396435E+00
          2   -1    0    0  502    0  0.00000000000E+00  0.00000000000E+00  0.23928078033E+04  0.23928078033E+04  0.00000000000E+00 0. -1.
          1   -1    0    0  501    0 -0.00000000000E+00 -0.00000000000E+00 -0.77563827163E+03  0.77563827163E+03  0.00000000000E+00 0. -1.
         25    2    1    2    0    0  0.44750058301E+02  0.11538608405E+03  0.12879644419E+03  0.21801743554E+03  0.12500624805E+03 0.  0.
          2    1    1    2  501    0 -0.21446326288E+02 -0.75928772452E+02 -0.72866142080E+03  0.73292058885E+03  0.00000000000E+00 0. -1.
          1    1    1    2  502    0 -0.23303732012E+02 -0.39457311598E+02  0.22170345083E+04  0.22175080506E+04  0.00000000000E+00 0. -1.
         22    1    3    3    0    0 -0.10145999547E+02  0.11980095257E+03  0.96548845393E+02  0.15419756513E+03  0.00000000000E+00 0. -1.
         22    1    3    3    0    0  0.54896057848E+02 -0.44148685221E+01  0.32247598801E+02  0.63819870415E+02  0.00000000000E+00 0. -1.
</event>
<event>
 7    1  0.4915160E-006  0.1469387E+03  0.7818608E-02  0.1305417E+00
          2   -1    0    0  502    0  0.00000000000E+00  0.00000000000E+00  0.27653161316E+04  0.27653161316E+04  0.00000000000E+00 0. -1.
          1   -1    0    0  501    0 -0.00000000000E+00 -0.00000000000E+00 -0.48882337638E+03  0.48882337638E+03  0.00000000000E+00 0. -1.
         25    2    1    2    0    0  0.32229490421E+02  0.10410178899E+03 -0.54671221603E+02  0.17460019201E+03  0.12498144684E+03 0.  0.
          2    1    1    2  501    0 -0.31615337266E+02  0.43586006859E+02 -0.37022303648E+03  0.37411811810E+03  0.00000000000E+00 0. -1.
          1    1    1    2  502    0 -0.61415315568E+00 -0.14768779585E+03  0.27013870133E+04  0.27054211979E+04  0.00000000000E+00 0. -1.
         22    1    3    3    0    0  0.29601709001E+02  0.13174696007E+03 -0.32050355198E+02  0.13878309671E+03  0.00000000000E+00 0. -1.
         22    1    3    3    0    0  0.26277814202E+01 -0.27645171077E+02 -0.22620866404E+02  0.35817095303E+02  0.00000000000E+00 0. -1.
</event>
<event>
 7    1  0.4915160E-006  0.7645671E+02  0.7818608E-02  0.1434962E+00
          2   -1    0    0  502    0  0.00000000000E+00  0.00000000000E+00  0.75114787417E+03  0.75114787417E+03  0.00000000000E+00 0. -1.
          1   -1    0    0  501    0 -0.00000000000E+00 -0.00000000000E+00 -0.79469595961E+03  0.79469595961E+03  0.00000000000E+00 0. -1.
         25    2    1    2    0    0 -0.39485312479E+02  0.23925361231E+02 -0.16809388259E+03  0.21450428364E+03  0.12500008609E+03 0.  0.
          2    1    1    2  501    0  0.60487490898E+02 -0.52341061536E+02 -0.60031366446E+03  0.60561936810E+03  0.00000000000E+00 0. -1.
          1    1    1    2  502    0 -0.21002178418E+02  0.28415700306E+02  0.72485946161E+03  0.72572018204E+03  0.00000000000E+00 0. -1.
         22    1    3    3    0    0 -0.25736820946E+02  0.61677983905E+02 -0.16016761128E+03  0.17355178292E+03  0.00000000000E+00 0.  1.
         22    1    3    3    0    0 -0.13748491533E+02 -0.37752622674E+02 -0.79262713125E+01  0.40952500719E+02  0.00000000000E+00 0.  1.
</event>
<event>
 7    1  0.4915160E-006  0.8472221E+02  0.7818608E-02  0.1346960E+00
          2   -1    0    0  502    0  0.00000000000E+00  0.00000000000E+00  0.64006223603E+03  0.64006223603E+03  0.00000000000E+00 0. -1.
          1   -1    0    0  501    0 -0.00000000000E+00 -0.00000000000E+00 -0.22108432101E+03  0.22108432101E+03  0.00000000000E+00 0. -1.
         25    2    1    2    0    0  0.20560183092E+02 -0.18492949384E+02  0.49485898188E+02  0.13726361583E+03  0.12501094274E+03 0.  0.
          2    1    1    2  501    0 -0.62520604429E+02  0.67681687100E+02 -0.16312913962E+03  0.18735194939E+03  0.00000000000E+00 0. -1.
          1    1    1    2  502    0  0.41960421337E+02 -0.49188737716E+02  0.53262115646E+03  0.53653099182E+03  0.00000000000E+00 0. -1.
         22    1    3    3    0    0  0.51057060726E+02 -0.49419495453E+02 -0.47987771750E+00  0.71058709976E+02  0.00000000000E+00 0.  1.
         22    1    3    3    0    0 -0.30496877635E+02  0.30926546069E+02  0.49965775905E+02  0.66204905854E+02  0.00000000000E+00 0.  1.
</event>
<event>
 7    1  0.4915160E-006  0.9380203E+02  0.7818608E-02  0.1402097E+00
          2   -1    0    0  502    0  0.00000000000E+00  0.00000000000E+00  0.16158059195E+04  0.16158059195E+04  0.00000000000E+00 0. -1.
          1   -1    0    0  501    0 -0.00000000000E+00 -0.00000000000E+00 -0.28803352277E+03  0.28803352277E+03  0.00000000000E+00 0. -1.
         25    2    1    2    0    0 -0.24091307775E+02 -0.61250503948E+02 -0.62419716292E+01  0.14135925860E+03  0.12494583801E+03 0.  0.
          2    1    1    2  501    0  0.54715872383E+02  0.82199268866E+02 -0.20261860939E+03  0.22539930649E+03  0.00000000000E+00 0. -1.
          1    1    1    2  502    0 -0.30624564609E+02 -0.20948764918E+02  0.15366329777E+04  0.15370808772E+04  0.00000000000E+00 0. -1.
         22    1    3    3    0    0 -0.54675441543E+02 -0.18829121512E+02  0.40997723363E+02  0.70885492491E+02  0.00000000000E+00 0. -1.
         22    1    3    3    0    0  0.30584133768E+02 -0.42421382436E+02 -0.47239694992E+02  0.70473766106E+02  0.00000000000E+00 0. -1.
</event>
<event>
 7    1  0.4915160E-006  0.2915061E+03  0.7818608E-02  0.1122633E+00
          2   -1    0    0  502    0  0.00000000000E+00  0.00000000000E+00  0.20948394984E+04  0.20948394984E+04  0.00000000000E+00 0. -1.
          1   -1    0    0  501    0 -0.00000000000E+00 -0.00000000000E+00 -0.69432031521E+03  0.69432031521E+03  0.00000000000E+00 0. -1.
         25    2    1    2    0    0 -0.38702714540E+02  0.36727496682E+03  0.26180575418E+02  0.39076715253E+03  0.12499897439E+03 0.  0.
          2    1    1    2  501    0  0.16955555198E+03 -0.22853253195E+03 -0.46718140846E+03  0.54702346547E+03  0.00000000000E+00 0. -1.
          1    1    1    2  502    0 -0.13085283744E+03 -0.13874243488E+03  0.18415200162E+04  0.18513691956E+04  0.00000000000E+00 0. -1.
         22    1    3    3    0    0 -0.73841461947E+02  0.31967750271E+03  0.56510065098E+01  0.32814356784E+03  0.00000000000E+00 0.  1.
         22    1    3    3    0    0  0.35138747407E+02  0.47597464113E+02  0.20529568908E+02  0.62623584686E+02  0.00000000000E+00 0.  1.
</event>
<event>
 7    1  0.4915160E-006  0.7246665E+02  0.7818608E-02  0.1360852E+00
          2   -1    0    0  502    0  0.00000000000E+00  0.00000000000E+00  0.12848870732E+03  0.12848870732E+03  0.00000000000E+00 0. -1.
          1   -1    0    0  501    0 -0.00000000000E+00 -0.00000000000E+00 -0.27343493962E+04  0.27343493962E+04  0.00000000000E+00 0. -1.
         25    2    1    2    0    0  0.49494794274E+02 -0.13351326371E+02 -0.58011615784E+03  0.59564085717E+03  0.12500112628E+03 0.  0.
          2    1    1    2  501    0 -0.20122917875E+02  0.73779015095E+02 -0.21363854394E+04  0.21377537324E+04  0.00000000000E+00 0. -1.
          1    1    1    2  502    0 -0.29371876400E+02 -0.60427688724E+02  0.11064090836E+03  0.12944351390E+03  0.00000000000E+00 0. -1.
         22    1    3    3    0    0 -0.54234839889E+01 -0.60357997704E+02 -0.31888216749E+03  0.32458949276E+03  0.00000000000E+00 0.  1.
         22    1    3    3    0    0  0.54918278263E+02  0.47006671333E+02 -0.26123399034E+03  0.27105136441E+03  0.00000000000E+00 0.  1.
</event>
<event>
 7    1  0.4915160E-006  0.5709540E+02  0.7818608E-02  0.1414029E+00
          2   -1    0    0  502    0  0.00000000000E+00  0.00000000000E+00  0.13437194722E+04  0.13437194722E+04  0.00000000000E+00 0. -1.
          1   -1    0    0  501    0 -0.00000000000E+00 -0.00000000000E+00 -0.51116243536E+03  0.51116243536E+03  0.00000000000E+00 0. -1.
         25    2    1    2    0    0  0.38844881625E+01 -0.10931280182E+03 -0.21756905615E+02  0.16752170981E+03  0.12500312965E+03 0.  0.
          2    1    1    2  501    0  0.83972554791E+01  0.55163726005E+02 -0.41404424717E+03  0.41778725349E+03  0.00000000000E+00 0. -1.
          1    1    1    2  502    0 -0.12281743642E+02  0.54149075820E+02  0.12683581896E+04  0.12695729443E+04  0.00000000000E+00 0. -1.
         22    1    3    3    0    0 -0.45179937936E+02 -0.77444724904E+02  0.24490743161E+02  0.92944654004E+02  0.00000000000E+00 0.  1.
         22    1    3    3    0    0  0.49064426098E+02 -0.31868076921E+02 -0.46247648775E+02  0.74577055803E+02  0.00000000000E+00 0.  1.
</event>
<event>
 7    1  0.4915160E-006  0.7336049E+02  0.7818608E-02  0.1501346E+00
          2   -1    0    0  502    0  0.00000000000E+00  0.00000000000E+00  0.10699688693E+04  0.10699688693E+04  0.00000000000E+00 0. -1.
          1   -1    0    0  501    0 -0.00000000000E+00 -0.00000000000E+00 -0.28555904637E+02  0.28555904637E+02  0.00000000000E+00 0. -1.
         25    2    1    2    0    0 -0.77086295848E+02 -0.50400592220E+02  0.53147198599E+03  0.55368797268E+03  0.12500152997E+03 0.  0.
          2    1    1    2  501    0  0.20455583269E+02  0.10197838322E+02 -0.64873997341E+01  0.23759485446E+02  0.00000000000E+00 0. -1.
          1    1    1    2  502    0  0.56630712579E+02  0.40202753897E+02  0.51642837837E+03  0.52107731578E+03  0.00000000000E+00 0. -1.
         22    1    3    3    0    0 -0.31186338920E+02  0.19282819629E+02  0.37110012958E+03  0.37290712120E+03  0.00000000000E+00 0. -1.
         22    1    3    3    0    0 -0.45899956928E+02 -0.69683411849E+02  0.16037185641E+03  0.18078085148E+03  0.00000000000E+00 0. -1.
</event>
<event>
 7    1  0.4915160E-006  0.1842202E+03  0.7818608E-02  0.1307513E+00
          2   -1    0    0  502    0  0.00000000000E+00  0.00000000000E+00  0.27640219579E+04  0.27640219579E+04  0.00000000000E+00 0. -1.
          1   -1    0    0  501    0 -0.00000000000E+00 -0.00000000000E+00 -0.23301250722E+03  0.23301250722E+03  0.00000000000E+00 0. -1.
         25    2    1    2    0    0 -0.20663067785E+02 -0.17890370119E+03  0.22475274789E+03  0.31396242056E+03  0.12500042869E+03 0.  0.
          2    1    1    2  501    0 -0.41846851534E+02  0.49154803631E+01 -0.18257977079E+03  0.18737847697E+03  0.00000000000E+00 0. -1.
          1    1    1    2  502    0  0.62509919319E+02  0.17398822083E+03  0.24888364736E+04  0.24956935676E+04  0.00000000000E+00 0. -1.
         22    1    3    3    0    0  0.44179655420E+02 -0.12533571304E+03  0.15886053703E+03  0.20711724492E+03  0.00000000000E+00 0. -1.
         22    1    3    3    0    0 -0.64842723205E+02 -0.53567988150E+02  0.65892210859E+02  0.10684517565E+03  0.00000000000E+00 0. -1.
</event>
<event>
 7    1  0.4915160E-006  0.6633500E+02  0.7818608E-02  0.1413983E+00
          2   -1    0    0  502    0  0.00000000000E+00  0.00000000000E+00  0.68389923705E+03  0.68389923705E+03  0.00000000000E+00 0. -1.
          1   -1    0    0  501    0 -0.00000000000E+00 -0.00000000000E+00 -0.30563879215E+03  0.30563879215E+03  0.00000000000E+00 0. -1.
         25    2    1    2    0    0 -0.60244588150E+02 -0.81217550563E+02 -0.16240607936E+03  0.22853283689E+03  0.12500328798E+03 0.  0.
          2    1    1    2  501    0  0.32726808458E+01  0.47695606650E+02 -0.10320979061E+03  0.11374463597E+03  0.00000000000E+00 0. -1.
          1    1    1    2  502    0  0.56971907304E+02  0.33521943913E+02  0.64387631487E+03  0.64726055634E+03  0.00000000000E+00 0. -1.
         22    1    3    3    0    0 -0.61836953847E+00  0.23836059030E+02  0.26562704919E+01  0.23991579020E+02  0.00000000000E+00 0. -1.
         22    1    3    3    0    0 -0.59626218612E+02 -0.10505360959E+03 -0.16506234985E+03  0.20454125787E+03  0.00000000000E+00 0. -1.
</event>
<event>
 7    1  0.4915160E-006  0.9732018E+02  0.7818608E-02  0.1315462E+00
          2   -1    0    0  502    0  0.00000000000E+00  0.00000000000E+00  0.37457604970E+03  0.37457604970E+03  0.00000000000E+00 0. -1.
          1   -1    0    0  501    0 -0.00000000000E+00 -0.00000000000E+00 -0.53888019511E+03  0.53888019511E+03  0.00000000000E+00 0. -1.
         25    2    1    2    0    0 -0.10312307801E+02 -0.57768253597E+02 -0.11614354029E+03  0.18043842480E+03  0.12500075351E+03 0.  0.
          2    1    1    2  501    0 -0.53580332935E+02  0.95534303732E+02 -0.37871331002E+03  0.39423524253E+03  0.00000000000E+00 0. -1.
          1    1    1    2  502    0  0.63892640736E+02 -0.37766050135E+02  0.33055270490E+03  0.33878257747E+03  0.00000000000E+00 0. -1.
         22    1    3    3    0    0 -0.63432252539E+02 -0.56384939236E+02 -0.74425577444E+02  0.11288081596E+03  0.00000000000E+00 0. -1.
         22    1    3    3    0    0  0.53119944738E+02 -0.13833143615E+01 -0.41717962847E+02  0.67557608836E+02  0.00000000000E+00 0. -1.
</event>
<event>
 7    1  0.4915160E-006  0.7091712E+02  0.7818608E-02  0.1368739E+00
          2   -1    0    0  502    0  0.00000000000E+00  0.00000000000E+00  0.25620219057E+04  0.25620219057E+04  0.00000000000E+00 0. -1.
          1   -1    0    0  501    0 -0.00000000000E+00 -0.00000000000E+00 -0.12581621002E+03  0.12581621002E+03  0.00000000000E+00 0. -1.
         25    2    1    2    0    0 -0.86879080741E+02 -0.10187675493E+03  0.91215151423E+03  0.93036340826E+03  0.12501535361E+03 0.  0.
          2    1    1    2  501    0  0.40583490894E+02  0.57277382692E+02 -0.10546343884E+03  0.12668960191E+03  0.00000000000E+00 0. -1.
          1    1    1    2  502    0  0.46295589846E+02  0.44599372241E+02  0.16295176203E+04  0.16307851055E+04  0.00000000000E+00 0. -1.
         22    1    3    3    0    0 -0.19713348253E+02  0.28934703778E+02  0.13815684801E+03  0.14252420087E+03  0.00000000000E+00 0.  1.
         22    1    3    3    0    0 -0.67165732487E+02 -0.13081145871E+03  0.77399466623E+03  0.78783920739E+03  0.00000000000E+00 0.  1.
</event>
<event>
 7    1  0.4915160E-006  0.6521855E+02  0.7818608E-02  0.1479657E+00
          2   -1    0    0  502    0  0.00000000000E+00  0.00000000000E+00  0.11028894195E+03  0.11028894195E+03  0.00000000000E+00 0. -1.
          1   -1    0    0  501    0 -0.00000000000E+00 -0.00000000000E+00 -0.18100457677E+03  0.18100457677E+03  0.00000000000E+00 0. -1.
         25    2    1    2    0    0 -0.33398450780E+02 -0.81808388154E+02 -0.66865957955E+02  0.16704549820E+03  0.12500029300E+03 0.  0.
          2    1    1    2  501    0 -0.47257336373E+00  0.29896860441E+02 -0.41931144823E+02  0.51500160154E+02  0.00000000000E+00 0. -1.
          1    1    1    2  502    0  0.33871024144E+02  0.51911527714E+02  0.38081467955E+02  0.72747860366E+02  0.00000000000E+00 0. -1.
         22    1    3    3    0    0  0.28068377506E+02  0.19782977192E+02 -0.14865887721E+02  0.37419174498E+02  0.00000000000E+00 0. -1.
         22    1    3    3    0    0 -0.61466828286E+02 -0.10159136535E+03 -0.52000070235E+02  0.12962632370E+03  0.00000000000E+00 0. -1.
</event>
<event>
 7    1  0.4915160E-006  0.3003595E+02  0.7818608E-02  0.1625865E+00
          2   -1    0    0  502    0  0.00000000000E+00  0.00000000000E+00  0.54120495774E+03  0.54120495774E+03  0.00000000000E+00 0. -1.
          1   -1    0    0  501    0 -0.00000000000E+00 -0.00000000000E+00 -0.13398381738E+04  0.13398381738E+04  0.00000000000E+00 0. -1.
         25    2    1    2    0    0  0.85005459736E+01  0.25754955826E+02 -0.23007347517E+03  0.26323843113E+03  0.12500036246E+03 0.  0.
          2    1    1    2  501    0  0.16906163866E+02 -0.25029296101E+02 -0.10926655555E+04  0.10930829338E+04  0.00000000000E+00 0. -1.
          1    1    1    2  502    0 -0.25406709840E+02 -0.72565972521E+00  0.52410581458E+03  0.52472176662E+03  0.00000000000E+00 0. -1.
         22    1    3    3    0    0  0.55145221365E+02 -0.65835464435E+01 -0.51057558132E+02  0.75440127025E+02  0.00000000000E+00 0.  1.
         22    1    3    3    0    0 -0.46644675391E+02  0.32338502270E+02 -0.17901591704E+03  0.18779830411E+03  0.00000000000E+00 0.  1.
</event>
<event>
 7    1  0.4915160E-006  0.6904478E+02  0.7818608E-02  0.1413269E+00
          2   -1    0    0  502    0  0.00000000000E+00  0.00000000000E+00  0.61534535798E+03  0.61534535798E+03  0.00000000000E+00 0. -1.
          1   -1    0    0  501    0 -0.00000000000E+00 -0.00000000000E+00 -0.11277811005E+03  0.11277811005E+03  0.00000000000E+00 0. -1.
         25    2    1    2    0    0 -0.73778866289E+02 -0.83929548810E+02  0.36696327057E+03  0.40345831746E+03  0.12501632578E+03 0.  0.
          2    1    1    2  501    0  0.36017877489E+02  0.57334161130E+02 -0.79633798375E+02  0.10452767755E+03  0.00000000000E+00 0. -1.
          1    1    1    2  502    0  0.37760988800E+02  0.26595387680E+02  0.21523777574E+03  0.22013747301E+03  0.00000000000E+00 0. -1.
         22    1    3    3    0    0 -0.78805601757E+02 -0.10792091222E+03  0.34701179290E+03  0.37185270010E+03  0.00000000000E+00 0. -1.
         22    1    3    3    0    0  0.50267354678E+01  0.23991363408E+02  0.19951477664E+02  0.31605617358E+02  0.00000000000E+00 0. -1.
</event>
<event>
 7    1  0.4915160E-006  0.3661771E+02  0.7818608E-02  0.1542766E+00
          2   -1    0    0  502    0  0.00000000000E+00  0.00000000000E+00  0.10995968019E+04  0.10995968019E+04  0.00000000000E+00 0. -1.
          1   -1    0    0  501    0 -0.00000000000E+00 -0.00000000000E+00 -0.71375231508E+02  0.71375231508E+02  0.00000000000E+00 0. -1.
         25    2    1    2    0    0  0.35276664400E+01  0.38432166827E+01  0.11384052387E+03  0.16915222495E+03  0.12500238233E+03 0.  0.
          2    1    1    2  501    0 -0.19371337169E+01 -0.38545408763E+02 -0.34821900082E+02  0.51981398106E+02  0.00000000000E+00 0. -1.
          1    1    1    2  502    0 -0.15905327231E+01  0.34702192080E+02  0.94920294657E+03  0.94983841031E+03  0.00000000000E+00 0. -1.
         22    1    3    3    0    0  0.52194056947E+02 -0.13720971681E+02  0.10301158618E+03  0.11629218173E+03  0.00000000000E+00 0.  1.
         22    1    3    3    0    0 -0.48666390507E+02  0.17564188364E+02  0.10828937687E+02  0.52860043221E+02  0.00000000000E+00 0.  1.
</event>
<event>
 7    1  0.4915160E-006  0.4783862E+03  0.7818608E-02  0.1258789E+00
          2   -1    0    0  502    0  0.00000000000E+00  0.00000000000E+00  0.91056866324E+03  0.91056866324E+03  0.00000000000E+00 0. -1.
          1   -1    0    0  501    0 -0.00000000000E+00 -0.00000000000E+00 -0.55287322043E+03  0.55287322043E+03  0.00000000000E+00 0. -1.
         25    2    1    2    0    0 -0.47154330363E+03 -0.14528793470E+03  0.23950433880E+03  0.56253808887E+03  0.12500040783E+03 0.  0.
          2    1    1    2  501    0  0.22266497670E+02  0.12913501494E+02 -0.28301766594E+03  0.28418577493E+03  0.00000000000E+00 0. -1.
          1    1    1    2  502    0  0.44927680596E+03  0.13237443320E+03  0.40120876995E+03  0.61671801987E+03  0.00000000000E+00 0. -1.
         22    1    3    3    0    0 -0.37085884469E+03 -0.12073217350E+03  0.12841439824E+03  0.41061271057E+03  0.00000000000E+00 0. -1.
         22    1    3    3    0    0 -0.10068445894E+03 -0.24555761200E+02  0.11108994055E+03  0.15192537830E+03  0.00000000000E+00 0. -1.
</event>
<event>
 7    1  0.4915160E-006  0.5009521E+02  0.7818608E-02  0.1462958E+00
          2   -1    0    0  502    0  0.00000000000E+00  0.00000000000E+00  0.10221859812E+04  0.10221859812E+04  0.00000000000E+00 0. -1.
          1   -1    0    0  501    0 -0.00000000000E+00 -0.00000000000E+00 -0.16754076500E+04  0.16754076500E+04  0.00000000000E+00 0. -1.
         25    2    1    2    0    0  0.37144650015E+02  0.42600258058E+01  0.61212734485E+03  0.62587823554E+03  0.12500322621E+03 0.  0.
          2    1    1    2  501    0  0.44083179487E+01 -0.43641811580E+02 -0.16662098026E+04  0.16667870732E+04  0.00000000000E+00 0. -1.
          1    1    1    2  502    0 -0.41552967964E+02  0.39381785774E+02  0.40086078899E+03  0.40492832248E+03  0.00000000000E+00 0. -1.
         22    1    3    3    0    0  0.69667150568E+02 -0.32135848197E+02  0.45240820499E+03  0.45886752832E+03  0.00000000000E+00 0. -1.
         22    1    3    3    0    0 -0.32522500553E+02  0.36395874003E+02  0.15971913987E+03  0.16701070722E+03  0.00000000000E+00 0. -1.
</event>
<event>
 7    1  0.4915160E-006  0.5550487E+02  0.7818608E-02  0.1556323E+00
          2   -1    0    0  502    0  0.00000000000E+00  0.00000000000E+00  0.77335581782E+03  0.77335581782E+03  0.00000000000E+00 0. -1.
          1   -1    0    0  501    0 -0.00000000000E+00 -0.00000000000E+00 -0.26829218164E+03  0.26829218164E+03  0.00000000000E+00 0. -1.
         25    2    1    2    0    0 -0.33960291967E+02  0.10359078911E+02 -0.29596124442E+02  0.13327916918E+03  0.12500717743E+03 0.  0.
          2    1    1    2  501    0 -0.16963179513E+02  0.12388866278E+02 -0.18518204920E+03  0.18636959197E+03  0.00000000000E+00 0. -1.
          1    1    1    2  502    0  0.50923471481E+02 -0.22747945190E+02  0.71984180981E+03  0.72199923830E+03  0.00000000000E+00 0. -1.
         22    1    3    3    0    0 -0.34682227151E+02  0.53473283623E+02  0.20715205031E+02  0.67017674244E+02  0.00000000000E+00 0.  1.
         22    1    3    3    0    0  0.72193518328E+00 -0.43114204712E+02 -0.50311329473E+02  0.66261494940E+02  0.00000000000E+00 0.  1.
</event>
<event>
 7    1  0.4915160E-006  0.5936721E+02  0.7818608E-02  0.1404225E+00
          2   -1    0    0  502    0  0.00000000000E+00  0.00000000000E+00  0.17181172718E+03  0.17181172718E+03  0.00000000000E+00 0. -1.
          1   -1    0    0  501    0 -0.00000000000E+00 -0.00000000000E+00 -0.13684439902E+03  0.13684439902E+03  0.00000000000E+00 0. -1.
         25    2    1    2    0    0 -0.32158313228E+02 -0.61516265916E+02  0.97722507421E+02  0.17318483920E+03  0.12499956795E+03 0.  0.
          2    1    1    2  501    0 -0.28326861189E+02  0.50211246241E+02 -0.38535081718E+02  0.69343585406E+02  0.00000000000E+00 0. -1.
          1    1    1    2  502    0  0.60485174418E+02  0.11305019675E+02 -0.24220097535E+02  0.66127701599E+02  0.00000000000E+00 0. -1.
         22    1    3    3    0    0 -0.61853667976E+02 -0.64949548449E+02  0.10906931434E+03  0.14121060660E+03  0.00000000000E+00 0. -1.
         22    1    3    3    0    0  0.29695354748E+02  0.34332825329E+01 -0.11346806922E+02  0.31974232593E+02  0.00000000000E+00 0. -1.
</event>
<event>
 7    1  0.4915160E-006  0.1799454E+03  0.7818608E-02  0.1255688E+00
          2   -1    0    0  502    0  0.00000000000E+00  0.00000000000E+00  0.23687734220E+04  0.23687734220E+04  0.00000000000E+00 0. -1.
          1   -1    0    0  501    0 -0.00000000000E+00 -0.00000000000E+00 -0.16398970262E+03  0.16398970262E+03  0.00000000000E+00 0. -1.
         25    2    1    2    0    0 -0.29888721945E+02 -0.11772004661E+03  0.31526536262E+03  0.36023337645E+03  0.12499796626E+03 0.  0.
          2    1    1    2  501    0  0.59661848573E+02  0.18168839539E+03 -0.75973273802E+02  0.20577207664E+03  0.00000000000E+00 0. -1.
          1    1    1    2  502    0 -0.29773126628E+02 -0.63968348781E+02  0.19654916305E+04  0.19667576715E+04  0.00000000000E+00 0. -1.
         22    1    3    3    0    0 -0.71607423292E+02 -0.61035865282E+02  0.23690501251E+03  0.25490583531E+03  0.00000000000E+00 0. -1.
         22    1    3    3    0    0  0.41718701347E+02 -0.56684181323E+02  0.78360350112E+02  0.10532754115E+03  0.00000000000E+00 0. -1.
</event>
<event>
 7    1  0.4915160E-006  0.6244080E+02  0.7818608E-02  0.1434787E+00
          2   -1    0    0  502    0  0.00000000000E+00  0.00000000000E+00  0.25480082890E+04  0.25480082890E+04  0.00000000000E+00 0. -1.
          1   -1    0    0  501    0 -0.00000000000E+00 -0.00000000000E+00 -0.60813381344E+03  0.60813381344E+03  0.00000000000E+00 0. -1.
         25    2    1    2    0    0 -0.75724354204E+02 -0.27731855674E+02  0.10542890224E+04  0.10647309388E+04  0.12499358267E+03 0.  0.
          2    1    1    2  501    0  0.15526778800E+02  0.40445562556E+02 -0.60149765408E+03  0.60305584505E+03  0.00000000000E+00 0. -1.
          1    1    1    2  502    0  0.60197575404E+02 -0.12713706882E+02  0.14870831072E+04  0.14883553185E+04  0.00000000000E+00 0. -1.
         22    1    3    3    0    0 -0.36803347290E+02  0.49804089684E+02  0.42343861508E+03  0.42794298039E+03  0.00000000000E+00 0. -1.
         22    1    3    3    0    0 -0.38921006914E+02 -0.77535945358E+02  0.63085040734E+03  0.63678795846E+03  0.00000000000E+00 0. -1.
</event>
<event>
 7    1  0.4915160E-006  0.1792908E+03  0.7818608E-02  0.1212565E+00
          2   -1    0    0  502    0  0.00000000000E+00  0.00000000000E+00  0.87674510664E+03  0.87674510664E+03  0.00000000000E+00 0. -1.
          1   -1    0    0  501    0 -0.00000000000E+00 -0.00000000000E+00 -0.45758907753E+03  0.45758907753E+03  0.00000000000E+00 0. -1.
         25    2    1    2    0    0  0.18448320872E+03  0.15510069803E+03 -0.11484785056E+03  0.29479771369E+03  0.12500152954E+03 0.  0.
          2    1    1    2  501    0 -0.11005647197E+03  0.58144044764E+01 -0.23010098919E+03  0.25513270968E+03  0.00000000000E+00 0. -1.
          1    1    1    2  502    0 -0.74426736749E+02 -0.16091510251E+03  0.76410486885E+03  0.78440376080E+03  0.00000000000E+00 0. -1.
         22    1    3    3    0    0  0.79610609027E+02  0.10067513183E+03  0.23601757028E+01  0.12837017437E+03  0.00000000000E+00 0.  1.
         22    1    3    3    0    0  0.10487259969E+03  0.54425566197E+02 -0.11720802626E+03  0.16642753931E+03  0.00000000000E+00 0.  1.
</event>
<event>
 7    1  0.4915160E-006  0.2758169E+03  0.7818608E-02  0.1160381E+00
          2   -1    0    0  502    0  0.00000000000E+00  0.00000000000E+00  0.81163488535E+03  0.81163488535E+03  0.00000000000E+00 0. -1.
          1   -1    0    0  501    0 -0.00000000000E+00 -0.00000000000E+00 -0.54223567485E+03  0.54223567485E+03  0.00000000000E+00 0. -1.
         25    2    1    2    0    0 -0.80061870874E+02 -0.31412396176E+03  0.22512329538E+03  0.41399292348E+03  0.12500350416E+03 0.  0.
          2    1    1    2  501    0 -0.39850263838E+02  0.26937725499E+03 -0.39643946855E+03  0.48095363732E+03  0.00000000000E+00 0. -1.
          1    1    1    2  502    0  0.11991213471E+03  0.44746706773E+02  0.44071538366E+03  0.45892399939E+03  0.00000000000E+00 0. -1.
         22    1    3    3    0    0 -0.13707128242E+01 -0.11300355365E+03  0.14455288608E+03  0.18348629067E+03  0.00000000000E+00 0. -1.
         22    1    3    3    0    0 -0.78691158050E+02 -0.20112040812E+03  0.80570409296E+02  0.23050663281E+03  0.00000000000E+00 0. -1.
</event>
<event>
 7    1  0.4915160E-006  0.1022286E+03  0.7818608E-02  0.1312129E+00
          2   -1    0    0  502    0  0.00000000000E+00  0.00000000000E+00  0.27210959607E+03  0.27210959607E+03  0.00000000000E+00 0. -1.
          1   -1    0    0  501    0 -0.00000000000E+00 -0.00000000000E+00 -0.19766761111E+03  0.19766761111E+03  0.00000000000E+00 0. -1.
         25    2    1    2    0    0 -0.81149823856E+02  0.64771083160E+01  0.26897654320E+02  0.15157855483E+03  0.12500131053E+03 0.  0.
          2    1    1    2  501    0  0.91529642088E+02  0.65591926009E+02 -0.10195922192E+03  0.15190674466E+03  0.00000000000E+00 0. -1.
          1    1    1    2  502    0 -0.10379818233E+02 -0.72069034325E+02  0.14950355255E+03  0.16629190768E+03  0.00000000000E+00 0. -1.
         22    1    3    3    0    0 -0.34360964466E+02  0.20094692008E+02  0.73859227971E+02  0.83902670293E+02  0.00000000000E+00 0. -1.
         22    1    3    3    0    0 -0.46788859390E+02 -0.13617583692E+02 -0.46961573650E+02  0.67675884540E+02  0.00000000000E+00 0. -1.
</event>
<event>
 7    1  0.4915160E-006  0.1398670E+03  0.7818608E-02  0.1313396E+00
          2   -1    0    0  502    0  0.00000000000E+00  0.00000000000E+00  0.13535900969E+04  0.13535900969E+04  0.00000000000E+00 0. -1.
          1   -1    0    0  501    0 -0.00000000000E+00 -0.00000000000E+00 -0.97324061357E+03  0.97324061357E+03  0.00000000000E+00 0. -1.
         25    2    1    2    0    0 -0.49870116572E+02  0.13120937377E+03  0.12029407531E+03  0.22315757405E+03  0.12500284000E+03 0.  0.
          2    1    1    2  501    0 -0.19801083840E+01 -0.14013505431E+03 -0.91589031091E+03  0.92655103253E+03  0.00000000000E+00 0. -1.
          1    1    1    2  502    0  0.51850224956E+02  0.89256805372E+01  0.11759457189E+04  0.11771221039E+04  0.00000000000E+00 0. -1.
         22    1    3    3    0    0 -0.82599757127E+02  0.11581741641E+03  0.12133829009E+03  0.18697426150E+03  0.00000000000E+00 0. -1.
         22    1    3    3    0    0  0.32729640555E+02  0.15391957360E+02 -0.10442147852E+01  0.36183312545E+02  0.00000000000E+00 0. -1.
</event>
<event>
 7    1  0.4915160E-006  0.7445487E+02  0.7818608E-02  0.1451047E+00
          2   -1    0    0  502    0  0.00000000000E+00  0.00000000000E+00  0.16306933060E+04  0.16306933060E+04  0.00000000000E+00 0. -1.
          1   -1    0    0  501    0 -0.00000000000E+00 -0.00000000000E+00 -0.41476866017E+03  0.41476866017E+03  0.00000000000E+00 0. -1.
         25    2    1    2    0    0 -0.44083096300E+02  0.45059510943E+02  0.23425002262E+03  0.27288985805E+03  0.12498848997E+03 0.  0.
          2    1    1    2  501    0  0.70025927757E+02 -0.25999420316E+02 -0.39173105966E+03  0.39878919684E+03  0.00000000000E+00 0. -1.
          1    1    1    2  502    0 -0.25942831457E+02 -0.19060090627E+02  0.13734056829E+04  0.13737829113E+04  0.00000000000E+00 0. -1.
         22    1    3    3    0    0  0.42717540929E+02  0.13168039668E+02  0.52387204666E+02  0.68866572329E+02  0.00000000000E+00 0. -1.
         22    1    3    3    0    0 -0.86800637229E+02  0.31891471275E+02  0.18186281795E+03  0.20402328572E+03  0.00000000000E+00 0. -1.
</event>
<event>
 7    1  0.4915160E-006  0.1364956E+03  0.7818608E-02  0.1387110E+00
          2   -1    0    0  502    0  0.00000000000E+00  0.00000000000E+00  0.72324719071E+03  0.72324719071E+03  0.00000000000E+00 0. -1.
          1   -1    0    0  501    0 -0.00000000000E+00 -0.00000000000E+00 -0.32099097420E+03  0.32099097420E+03  0.00000000000E+00 0. -1.
         25    2    1    2    0    0 -0.11194524840E+03 -0.73781892756E+02  0.58591363102E+03  0.61391791221E+03  0.12499965429E+03 0.  0.
          2    1    1    2  501    0 -0.22713956902E+02  0.17605977732E+02 -0.26277584920E+03  0.26434265870E+03  0.00000000000E+00 0. -1.
          1    1    1    2  502    0  0.13465920530E+03  0.56175915024E+02  0.79118434682E+02  0.16597759399E+03  0.00000000000E+00 0. -1.
         22    1    3    3    0    0 -0.91044345535E+02 -0.67416876735E+01  0.17844364146E+03  0.20044115442E+03  0.00000000000E+00 0. -1.
         22    1    3    3    0    0 -0.20900902865E+02 -0.67040205083E+02  0.40746998956E+03  0.41347675779E+03  0.00000000000E+00 0. -1.
</event>
<event>
 7    1  0.4915160E-006  0.6755407E+02  0.7818608E-02  0.1468615E+00
          2   -1    0    0  502    0  0.00000000000E+00  0.00000000000E+00  0.17142433944E+04  0.17142433944E+04  0.00000000000E+00 0. -1.
          1   -1    0    0  501    0 -0.00000000000E+00 -0.00000000000E+00 -0.56942159281E+03  0.56942159281E+03  0.00000000000E+00 0. -1.
         25    2    1    2    0    0 -0.57034575407E+02 -0.57794890379E+02  0.11861912579E+03  0.19050128006E+03  0.12500819395E+03 0.  0.
          2    1    1    2  501    0  0.61832156712E+02  0.26937098745E+02 -0.53119168655E+03  0.53545628276E+03  0.00000000000E+00 0. -1.
          1    1    1    2  502    0 -0.47975813046E+01  0.30857791633E+02  0.15573943624E+04  0.15577074244E+04  0.00000000000E+00 0. -1.
         22    1    3    3    0    0  0.29909072183E+02 -0.24391022767E+02 -0.13545142757E+01  0.38617474016E+02  0.00000000000E+00 0. -1.
         22    1    3    3    0    0 -0.86943647591E+02 -0.33403867612E+02  0.11997364006E+03  0.15188380604E+03  0.00000000000E+00 0. -1.
</event>
<event>
 7    1  0.4915160E-006  0.5777495E+02  0.7818608E-02  0.1428421E+00
          2   -1    0    0  502    0  0.00000000000E+00  0.00000000000E+00  0.65164569137E+03  0.65164569137E+03  0.00000000000E+00 0. -1.
          1   -1    0    0  501    0 -0.00000000000E+00 -0.00000000000E+00 -0.16462110615E+03  0.16462110615E+03  0.00000000000E+00 0. -1.
         25    2    1    2    0    0  0.74207674850E+02 -0.44329600250E+02 -0.24125247538E+02  0.15387846413E+03  0.12499864675E+03 0.  0.
          2    1    1    2  501    0 -0.25278553739E+02  0.48783275424E+02 -0.64452366256E+02  0.84693097453E+02  0.00000000000E+00 0. -1.
          1    1    1    2  502    0 -0.48929121111E+02 -0.44536751742E+01  0.57560219901E+03  0.57769523594E+03  0.00000000000E+00 0. -1.
         22    1    3    3    0    0 -0.28956743901E+02  0.11633073900E+02  0.79613772845E+01  0.32205666489E+02  0.00000000000E+00 0.  1.
         22    1    3    3    0    0  0.10316441875E+03 -0.55962674150E+02 -0.32086624822E+02  0.12167279764E+03  0.00000000000E+00 0.  1.
</event>
<event>
 7    1  0.4915160E-006  0.1407141E+03  0.7818608E-02  0.1359739E+00
          2   -1    0    0  502    0  0.00000000000E+00  0.00000000000E+00  0.68946252082E+03  0.68946252082E+03  0.00000000000E+00 0. -1.
          1   -1    0    0  501    0 -0.00000000000E+00 -0.00000000000E+00 -0.40888691217E+03  0.40888691217E+03  0.00000000000E+00 0. -1.
         25    2    1    2    0    0  0.13350656657E+03  0.10773613421E+03  0.82572557483E+02  0.22775902778E+03  0.12499947820E+03 0.  0.
          2    1    1    2  501    0 -0.29756658594E+02 -0.18285867275E+02 -0.32656675502E+03  0.32842910522E+03  0.00000000000E+00 0. -1.
          1    1    1    2  502    0 -0.10374990798E+03 -0.89450266934E+02  0.52456980618E+03  0.54216129999E+03  0.00000000000E+00 0. -1.
         22    1    3    3    0    0  0.15971271983E+02 -0.14099458156E+02  0.51379236560E+02  0.55621058948E+02  0.00000000000E+00 0. -1.
         22    1    3    3    0    0  0.11753529459E+03  0.12183559237E+03  0.31193320923E+02  0.17213796883E+03  0.00000000000E+00 0. -1.
</event>
<event>
 7    1  0.4915160E-006  0.1054428E+03  0.7818608E-02  0.1388879E+00
          2   -1    0    0  502    0  0.00000000000E+00  0.00000000000E+00  0.99861954359E+03  0.99861954359E+03  0.00000000000E+00 0. -1.
          1   -1    0    0  501    0 -0.00000000000E+00 -0.00000000000E+00 -0.94686651260E+03  0.94686651260E+03  0.00000000000E+00 0. -1.
         25    2    1    2    0    0 -0.10776619266E+03  0.55561692428E+02  0.13734983685E+02  0.17468642775E+03  0.12500417720E+03 0.  0.
          2    1    1    2  501    0  0.75529238172E+02 -0.73050223679E+02 -0.86283037553E+03  0.86920495738E+03  0.00000000000E+00 0. -1.
          1    1    1    2  502    0  0.32236954485E+02  0.17488531252E+02  0.90084842284E+03  0.90159467106E+03  0.00000000000E+00 0. -1.
         22    1    3    3    0    0 -0.28449947625E+02  0.68005291319E+01  0.62920205834E+02  0.69387311654E+02  0.00000000000E+00 0.  1.
         22    1    3    3    0    0 -0.79316245031E+02  0.48761163296E+02 -0.49185222149E+02  0.10529911609E+03  0.00000000000E+00 0.  1.
</event>
<event>
 7    1  0.4915160E-006  0.1080534E+03  0.7818608E-02  0.1348421E+00
          2   -1    0    0  502    0  0.00000000000E+00  0.00000000000E+00  0.11899014874E+03  0.11899014874E+03  0.00000000000E+00 0. -1.
          1   -1    0    0  501    0 -0.00000000000E+00 -0.00000000000E+00 -0.11391473785E+04  0.11391473785E+04  0.00000000000E+00 0. -1.
         25    2    1    2    0    0 -0.95095338536E+02 -0.89561770195E+02 -0.76081392394E+03  0.78200233975E+03  0.12500159369E+03 0.  0.
          2    1    1    2  501    0  0.45202985487E+02  0.85420587102E+02 -0.35513486861E+03  0.36804994430E+03  0.00000000000E+00 0. -1.
          1    1    1    2  502    0  0.49892353049E+02  0.41411830929E+01  0.95791562792E+02  0.10808524318E+03  0.00000000000E+00 0. -1.
         22    1    3    3    0    0 -0.75753883802E+02  0.62496446564E+00 -0.20423815298E+03  0.21783540718E+03  0.00000000000E+00 0.  1.
         22    1    3    3    0    0 -0.19341454734E+02 -0.90186734661E+02 -0.55657577096E+03  0.56416693256E+03  0.00000000000E+00 0.  1.
</event>
<event>
 7    1  0.4915160E-006  0.7290904E+02  0.7818608E-02  0.1500866E+00
          2   -1    0    0  502    0  0.00000000000E+00  0.00000000000E+00  0.39709181225E+02  0.39709181225E+02  0.00000000000E+00 0. -1.
          1   -1    0    0  501    0 -0.00000000000E+00 -0.00000000000E+00 -0.74898696323E+03  0.74898696323E+03  0.00000000000E+00 0. -1.
         25    2    1    2    0    0  0.67859857490E+02 -0.45799794725E+01 -0.47958181423E+03  0.50025074930E+03  0.12500463658E+03 0.  0.
          2    1    1    2  501    0 -0.74778136027E+02 -0.17432515024E+02 -0.24760473640E+03  0.25923689493E+03  0.00000000000E+00 0. -1.
          1    1    1    2  502    0  0.69182785375E+01  0.22012494497E+02  0.17908768620E+02  0.29208500224E+02  0.00000000000E+00 0. -1.
         22    1    3    3    0    0  0.24778012005E+02  0.58906738270E+02 -0.18028504782E+03  0.19127637637E+03  0.00000000000E+00 0. -1.
         22    1    3    3    0    0  0.43081845485E+02 -0.63486717742E+02 -0.29929676641E+03  0.30897437292E+03  0.00000000000E+00 0. -1.
</event>
<event>
 7    1  0.4915160E-006  0.4698893E+02  0.7818608E-02  0.1480436E+00
          2   -1    0    0  502    0  0.00000000000E+00  0.00000000000E+00  0.26649543171E+03  0.26649543171E+03  0.00000000000E+00 0. -1.
          1   -1    0    0  501    0 -0.00000000000E+00 -0.00000000000E+00 -0.65154199633E+03  0.65154199633E+03  0.00000000000E+00 0. -1.
         25    2    1    2    0    0 -0.17368248145E+02  0.21022831014E+02 -0.39774243100E+03  0.41781025849E+03  0.12499102054E+03 0.  0.
          2    1    1    2  501    0  0.34258242934E+02  0.23018109701E+02 -0.23981900036E+03  0.24334463938E+03  0.00000000000E+00 0. -1.
          1    1    1    2  502    0 -0.16889994789E+02 -0.44040940715E+02  0.25251486673E+03  0.25688253017E+03  0.00000000000E+00 0. -1.
         22    1    3    3    0    0  0.16270793008E+02  0.66231379611E+00  0.17584701385E+01  0.16378937142E+02  0.00000000000E+00 0. -1.
         22    1    3    3    0    0 -0.33639041153E+02  0.20360517218E+02 -0.39950090114E+03  0.40143132135E+03  0.00000000000E+00 0. -1.
</event>
<event>
 7    1  0.4915160E-006  0.1270396E+03  0.7818608E-02  0.1285834E+00
          2   -1    0    0  502    0  0.00000000000E+00  0.00000000000E+00  0.69568186607E+03  0.69568186607E+03  0.00000000000E+00 0. -1.
          1   -1    0    0  501    0 -0.00000000000E+00 -0.00000000000E+00 -0.18711908437E+04  0.18711908437E+04  0.00000000000E+00 0. -1.
         25    2    1    2    0    0  0.50670683188E+02  0.44294670342E+02 -0.93813829558E+02  0.17016324220E+03  0.12499983370E+03 0.  0.
          2    1    1    2  501    0 -0.12520808518E+03 -0.39454462009E+02 -0.17345926282E+04  0.17395531912E+04  0.00000000000E+00 0. -1.
          1    1    1    2  502    0  0.74537401995E+02 -0.48402083325E+01  0.65289748018E+03  0.65715627634E+03  0.00000000000E+00 0. -1.
         22    1    3    3    0    0 -0.16355332206E+02  0.36932397736E+02 -0.94457211873E+02  0.10273102632E+03  0.00000000000E+00 0. -1.
         22    1    3    3    0    0  0.67026015394E+02  0.73622726059E+01  0.64338231443E+00  0.67432215879E+02  0.00000000000E+00 0. -1.
</event>
<event>
 7    1  0.4915160E-006  0.8317216E+02  0.7818608E-02  0.1413973E+00
          2   -1    0    0  502    0  0.00000000000E+00  0.00000000000E+00  0.55300770544E+03  0.55300770544E+03  0.00000000000E+00 0. -1.
          1   -1    0    0  501    0 -0.00000000000E+00 -0.00000000000E+00 -0.90256101888E+03  0.90256101888E+03  0.00000000000E+00 0. -1.
         25    2    1    2    0    0  0.44501213510E+02 -0.80695291960E+02 -0.47384047862E+03  0.49864034182E+03  0.12500121267E+03 0.  0.
          2    1    1    2  501    0 -0.38067607128E+02 -0.22225083052E+01 -0.41223684723E+03  0.41399673968E+03  0.00000000000E+00 0. -1.
          1    1    1    2  502    0 -0.64336063821E+01  0.82917800265E+02  0.53652401240E+03  0.54293164282E+03  0.00000000000E+00 0. -1.
         22    1    3    3    0    0  0.61491013495E+02 -0.87315963289E+02 -0.46717482252E+03  0.47922597694E+03  0.00000000000E+00 0.  1.
         22    1    3    3    0    0 -0.16989799985E+02  0.66206713297E+01 -0.66656560997E+01  0.19414364878E+02  0.00000000000E+00 0.  1.
</event>
<event>
 7    1  0.4915160E-006  0.1240701E+03  0.7818608E-02  0.1367413E+00
          2   -1    0    0  502    0  0.00000000000E+00  0.00000000000E+00  0.87244109521E+03  0.87244109521E+03  0.00000000000E+00 0. -1.
          1   -1    0    0  501    0 -0.00000000000E+00 -0.00000000000E+00 -0.64578923385E+03  0.64578923385E+03  0.00000000000E+00 0. -1.
         25    2    1    2    0    0  0.81632003082E+02  0.32230035315E+02 -0.21599738103E+03  0.26454203234E+03  0.12500023663E+03 0.  0.
          2    1    1    2  501    0  0.35816069744E+02  0.98678524037E+01 -0.40006605433E+03  0.40178727355E+03  0.00000000000E+00 0. -1.
          1    1    1    2  502    0 -0.11744807283E+03 -0.42097887718E+02  0.84271529672E+03  0.85190102317E+03  0.00000000000E+00 0. -1.
         22    1    3    3    0    0  0.55211004644E+02 -0.27587765521E+02 -0.17914691300E+03  0.18948075438E+03  0.00000000000E+00 0. -1.
         22    1    3    3    0    0  0.26420998438E+02  0.59817800836E+02 -0.36850468029E+02  0.75061277962E+02  0.00000000000E+00 0. -1.
</event>
<event>
 7    1  0.4990770E-006  0.4176562E+02  0.7818608E-02  0.1583963E+00
          2   -1    0    0  502    0  0.00000000000E+00  0.00000000000E+00  0.91774319774E+03  0.91774319774E+03  0.00000000000E+00 0. -1.
          1   -1    0    0  501    0 -0.00000000000E+00 -0.00000000000E+00 -0.12555394048E+04  0.12555394048E+04  0.00000000000E+00 0. -1.
         25    2    1    2    0    0 -0.43059865547E+02  0.25525189218E+02 -0.70325494130E+03  0.71602950270E+03  0.12500019583E+03 0.  0.
          2    1    1    2  501    0  0.13477894812E+01 -0.23444766218E+02 -0.54516580477E+03  0.54567135557E+03  0.00000000000E+00 0. -1.
          1    1    1    2  502    0  0.41712076066E+02 -0.20804230003E+01  0.91062453901E+03  0.91158174428E+03  0.00000000000E+00 0. -1.
         22    1    3    3    0    0 -0.70090805293E+02  0.76359267658E+01 -0.64907752944E+03  0.65289560236E+03  0.00000000000E+00 0.  1.
         22    1    3    3    0    0  0.27030939746E+02  0.17889262452E+02 -0.54177411866E+02  0.63133900332E+02  0.00000000000E+00 0.  1.
</event>
<event>
 7    1  0.4915160E-006  0.1409582E+03  0.7818608E-02  0.1269712E+00
          2   -1    0    0  502    0  0.00000000000E+00  0.00000000000E+00  0.59309338531E+03  0.59309338531E+03  0.00000000000E+00 0. -1.
          1   -1    0    0  501    0 -0.00000000000E+00 -0.00000000000E+00 -0.59324900837E+03  0.59324900837E+03  0.00000000000E+00 0. -1.
         25    2    1    2    0    0 -0.92525157949E+02 -0.19293319895E+03  0.10977071822E+03  0.27103340532E+03  0.12500148842E+03 0.  0.
          2    1    1    2  501    0  0.46411256116E+02  0.12937619951E+03 -0.49941477486E+03  0.51798390230E+03  0.00000000000E+00 0. -1.
          1    1    1    2  502    0  0.46113901832E+02  0.63556999444E+02  0.38948843358E+03  0.39732508606E+03  0.00000000000E+00 0. -1.
         22    1    3    3    0    0 -0.12185876149E+03 -0.13277595306E+03  0.88714700345E+02  0.20087137556E+03  0.00000000000E+00 0.  1.
         22    1    3    3    0    0  0.29333603544E+02 -0.60157245896E+02  0.21056017875E+02  0.70162029755E+02  0.00000000000E+00 0.  1.
</event>
<event>
 7    1  0.4915160E-006  0.9506199E+02  0.7818608E-02  0.1362097E+00
          2   -1    0    0  502    0  0.00000000000E+00  0.00000000000E+00  0.18042512496E+04  0.18042512496E+04  0.00000000000E+00 0. -1.
          1   -1    0    0  501    0 -0.00000000000E+00 -0.00000000000E+00 -0.52916722375E+03  0.52916722375E+03  0.00000000000E+00 0. -1.
         25    2    1    2    0    0  0.77403983515E+02  0.54505799530E+01  0.21365038624E+03  0.25940791215E+03  0.12499956744E+03 0.  0.
          2    1    1    2  501    0 -0.77403047548E+02 -0.56136529662E+02 -0.50135943638E+03  0.51039575447E+03  0.00000000000E+00 0. -1.
          1    1    1    2  502    0 -0.93596679750E-03  0.50685949709E+02  0.15627930760E+04  0.15636148068E+04  0.00000000000E+00 0. -1.
         22    1    3    3    0    0  0.11458291341E+01 -0.51767711609E+02  0.73922897398E+02  0.90254105997E+02  0.00000000000E+00 0. -1.
         22    1    3    3    0    0  0.76258154380E+02  0.57218291562E+02  0.13972748884E+03  0.16915380616E+03  0.00000000000E+00 0. -1.
</event>
<event>
 7    1  0.4915160E-006  0.7181024E+02  0.7818608E-02  0.1437566E+00
          2   -1    0    0  502    0  0.00000000000E+00  0.00000000000E+00  0.78967146950E+03  0.78967146950E+03  0.00000000000E+00 0. -1.
          1   -1    0    0  501    0 -0.00000000000E+00 -0.00000000000E+00 -0.51368413580E+03  0.51368413580E+03  0.00000000000E+00 0. -1.
         25    2    1    2    0    0  0.91008843577E+02  0.46459001397E+02  0.16617744548E+03  0.23168987794E+03  0.12499683089E+03 0.  0.
          2    1    1    2  501    0 -0.54116845515E+02 -0.46641714196E+02 -0.47769287763E+03  0.48300576374E+03  0.00000000000E+00 0. -1.
          1    1    1    2  502    0 -0.36891998062E+02  0.18271279915E+00  0.58750276584E+03  0.58865996363E+03  0.00000000000E+00 0. -1.
         22    1    3    3    0    0  0.51311047688E+01 -0.13160645979E+02  0.11395677665E+03  0.11482890657E+03  0.00000000000E+00 0.  1.
         22    1    3    3    0    0  0.85877738808E+02  0.59619647377E+02  0.52220668831E+02  0.11686097137E+03  0.00000000000E+00 0.  1.
</event>
<event>
 7    1  0.4915160E-006  0.1984003E+03  0.7818608E-02  0.1234214E+00
          2   -1    0    0  502    0  0.00000000000E+00  0.00000000000E+00  0.37833349729E+04  0.37833349729E+04  0.00000000000E+00 0. -1.
          1   -1    0    0  501    0 -0.00000000000E+00 -0.00000000000E+00 -0.58512744742E+02  0.58512744742E+02  0.00000000000E+00 0. -1.
         25    2    1    2    0    0 -0.13265248215E+03  0.11378805247E+03  0.53358363495E+03  0.57522077324E+03  0.12499216207E+03 0.  0.
          2    1    1    2  501    0  0.40658017848E+02  0.68255860506E+02  0.11409395753E+02  0.80262763597E+02  0.00000000000E+00 0. -1.
          1    1    1    2  502    0  0.91994464302E+02 -0.18204391297E+03  0.31798291975E+04  0.31863641808E+04  0.00000000000E+00 0. -1.
         22    1    3    3    0    0 -0.85136216566E+02  0.83442993027E+01  0.13184173485E+03  0.15716248200E+03  0.00000000000E+00 0. -1.
         22    1    3    3    0    0 -0.47516265585E+02  0.10544375316E+03  0.40174190010E+03  0.41805829124E+03  0.00000000000E+00 0. -1.
</event>
<event>
 7    1  0.7614605E-006  0.9016163E+02  0.7818608E-02  0.1333570E+00
          2   -1    0    0  502    0  0.00000000000E+00  0.00000000000E+00  0.23374982756E+04  0.23374982756E+04  0.00000000000E+00 0. -1.
          1   -1    0    0  501    0 -0.00000000000E+00 -0.00000000000E+00 -0.76340510535E+03  0.76340510535E+03  0.00000000000E+00 0. -1.
         25    2    1    2    0    0 -0.15121027402E+03  0.42077942358E+02 -0.14733208428E+03  0.24893151511E+03  0.12500022383E+03 0.  0.
          2    1    1    2  501    0  0.62593510466E+02 -0.27136967718E+02 -0.56232787874E+03  0.56645123866E+03  0.00000000000E+00 0. -1.
          1    1    1    2  502    0  0.88616763553E+02 -0.14940974640E+02  0.22837531333E+04  0.22855206272E+04  0.00000000000E+00 0. -1.
         22    1    3    3    0    0 -0.80921672441E+02  0.15917022271E+01 -0.14700801479E+03  0.16781599149E+03  0.00000000000E+00 0.  1.
         22    1    3    3    0    0 -0.70288601578E+02  0.40486240131E+02 -0.32406948655E+00  0.81115523624E+02  0.00000000000E+00 0.  1.
</event>
<event>
 7    1  0.4915160E-006  0.1323858E+03  0.7818608E-02  0.1224362E+00
          2   -1    0    0  502    0  0.00000000000E+00  0.00000000000E+00  0.90973929666E+03  0.90973929666E+03  0.00000000000E+00 0. -1.
          1   -1    0    0  501    0 -0.00000000000E+00 -0.00000000000E+00 -0.65600199825E+03  0.65600199825E+03  0.00000000000E+00 0. -1.
         25    2    1    2    0    0 -0.36241208939E+02 -0.84240282565E+02  0.42537668463E+02  0.16075996096E+03  0.12499784549E+03 0.  0.
          2    1    1    2  501    0 -0.10567764363E+03  0.78810846709E+02 -0.58323681903E+03  0.59794991513E+03  0.00000000000E+00 0. -1.
          1    1    1    2  502    0  0.14191885257E+03  0.54294358559E+01  0.79443644899E+03  0.80703141883E+03  0.00000000000E+00 0. -1.
         22    1    3    3    0    0 -0.27049103443E+02 -0.68817550723E+02  0.86188795791E+02  0.11356063493E+03  0.00000000000E+00 0. -1.
         22    1    3    3    0    0 -0.91921054956E+01 -0.15422731841E+02 -0.43651127328E+02  0.47199326033E+02  0.00000000000E+00 0. -1.
</event>
<event>
 7    1  0.4915160E-006  0.7042294E+02  0.7818608E-02  0.1494831E+00
          2   -1    0    0  502    0  0.00000000000E+00  0.00000000000E+00  0.78014684926E+03  0.78014684926E+03  0.00000000000E+00 0. -1.
          1   -1    0    0  501    0 -0.00000000000E+00 -0.00000000000E+00 -0.23238005684E+03  0.23238005684E+03  0.00000000000E+00 0. -1.
         25    2    1    2    0    0 -0.77310148922E+02 -0.39577902762E+02  0.22654709869E+00  0.15220686980E+03  0.12499444138E+03 0.  0.
          2    1    1    2  501    0  0.91613941263E+01  0.23156726486E+02 -0.15363965709E+03  0.15564481795E+03  0.00000000000E+00 0. -1.
          1    1    1    2  502    0  0.68148754795E+02  0.16421176276E+02  0.70117990241E+03  0.70467521835E+03  0.00000000000E+00 0. -1.
         22    1    3    3    0    0 -0.64330517463E+01  0.35421337745E+02  0.27696374474E+02  0.45421850265E+02  0.00000000000E+00 0. -1.
         22    1    3    3    0    0 -0.70877097175E+02 -0.74999240507E+02 -0.27469827376E+02  0.10678501953E+03  0.00000000000E+00 0. -1.
</event>
<event>
 7    1  0.4915160E-006  0.2100970E+03  0.7818608E-02  0.1355996E+00
          2   -1    0    0  502    0  0.00000000000E+00  0.00000000000E+00  0.39951489543E+03  0.39951489543E+03  0.00000000000E+00 0. -1.
          1   -1    0    0  501    0 -0.00000000000E+00 -0.00000000000E+00 -0.12292902423E+04  0.12292902423E+04  0.00000000000E+00 0. -1.
         25    2    1    2    0    0  0.13859533480E+02  0.18711952474E+03 -0.10853476554E+04  0.11085162828E+04  0.12499205191E+03 0.  0.
          2    1    1    2  501    0  0.92575184922E+01  0.22296488861E+02 -0.10224184365E+03  0.10505346094E+03  0.00000000000E+00 0. -1.
          1    1    1    2  502    0 -0.23117051973E+02 -0.20941601360E+03  0.35781415220E+03  0.41523539392E+03  0.00000000000E+00 0. -1.
         22    1    3    3    0    0  0.31346076541E+02 -0.44552063234E+01 -0.20183765790E+03  0.20430581373E+03  0.00000000000E+00 0. -1.
         22    1    3    3    0    0 -0.17486543061E+02  0.19157473106E+03 -0.88350999750E+03  0.90421046912E+03  0.00000000000E+00 0. -1.
</event>
<event>
 7    1  0.4915160E-006  0.7940644E+02  0.7818608E-02  0.1477955E+00
          2   -1    0    0  502    0  0.00000000000E+00  0.00000000000E+00  0.50945596396E+02  0.50945596396E+02  0.00000000000E+00 0. -1.
          1   -1    0    0  501    0 -0.00000000000E+00 -0.00000000000E+00 -0.16521092946E+04  0.16521092946E+04  0.00000000000E+00 0. -1.
         25    2    1    2    0    0  0.81871915178E+02  0.56360115515E+02 -0.60619806047E+03  0.62688087130E+03  0.12499626062E+03 0.  0.
          2    1    1    2  501    0 -0.67841644786E+02 -0.35842953184E+02 -0.10302008213E+04  0.10330541797E+04  0.00000000000E+00 0. -1.
          1    1    1    2  502    0 -0.14030270392E+02 -0.20517162331E+02  0.35235183566E+02  0.43119839962E+02  0.00000000000E+00 0. -1.
         22    1    3    3    0    0 -0.25163627623E+02  0.40831625960E+02 -0.25253862111E+03  0.25705288364E+03  0.00000000000E+00 0. -1.
         22    1    3    3    0    0  0.10703554280E+03  0.15528489556E+02 -0.35365943936E+03  0.36982798766E+03  0.00000000000E+00 0. -1.
</event>
<event>
 7    1  0.4915160E-006  0.1898846E+03  0.7818608E-02  0.1374215E+00
          2   -1    0    0  502    0  0.00000000000E+00  0.00000000000E+00  0.56457905864E+03  0.56457905864E+03  0.00000000000E+00 0. -1.
          1   -1    0    0  501    0 -0.00000000000E+00 -0.00000000000E+00 -0.23073663592E+03  0.23073663592E+03  0.00000000000E+00 0. -1.
         25    2    1    2    0    0 -0.17713433786E+03 -0.72892132118E+02 -0.74244981944E+01  0.22884422331E+03  0.12499887518E+03 0.  0.
          2    1    1    2  501    0  0.11526919005E+02 -0.19841265513E+02 -0.91276477163E+02  0.94116634885E+02  0.00000000000E+00 0. -1.
          1    1    1    2  502    0  0.16560741885E+03  0.92733397631E+02  0.43254339807E+03  0.47235483636E+03  0.00000000000E+00 0. -1.
         22    1    3    3    0    0 -0.29247419116E+02 -0.73896844724E+02 -0.14493674216E+02  0.80785034365E+02  0.00000000000E+00 0. -1.
         22    1    3    3    0    0 -0.14788691874E+03  0.10047126055E+01  0.70691760217E+01  0.14805918895E+03  0.00000000000E+00 0. -1.
</event>
<event>
 7    1  0.4915160E-006  0.5304515E+02  0.7818608E-02  0.1441923E+00
          2   -1    0    0  502    0  0.00000000000E+00  0.00000000000E+00  0.18930738324E+04  0.18930738324E+04  0.00000000000E+00 0. -1.
          1   -1    0    0  501    0 -0.00000000000E+00 -0.00000000000E+00 -0.13205328302E+04  0.13205328302E+04  0.00000000000E+00 0. -1.
         25    2    1    2    0    0 -0.78053298868E+01  0.33004533993E+02  0.21295608218E+03  0.24924630859E+03  0.12499282767E+03 0.  0.
          2    1    1    2  501    0  0.51622339243E+02 -0.12581442429E+02 -0.13014939911E+04  0.13025781234E+04  0.00000000000E+00 0. -1.
          1    1    1    2  502    0 -0.43817009356E+02 -0.20423091564E+02  0.16610789111E+04  0.16617822306E+04  0.00000000000E+00 0. -1.
         22    1    3    3    0    0  0.33296490112E+02  0.58695481238E+02  0.65558247442E+02  0.94083471340E+02  0.00000000000E+00 0.  1.
         22    1    3    3    0    0 -0.41101819999E+02 -0.25690947245E+02  0.14739783474E+03  0.15516283725E+03  0.00000000000E+00 0.  1.
</event>
<event>
 7    1  0.4915160E-006  0.9401784E+02  0.7818608E-02  0.1315091E+00
          2   -1    0    0  502    0  0.00000000000E+00  0.00000000000E+00  0.85228909575E+03  0.85228909575E+03  0.00000000000E+00 0. -1.
          1   -1    0    0  501    0 -0.00000000000E+00 -0.00000000000E+00 -0.68035083241E+03  0.68035083241E+03  0.00000000000E+00 0. -1.
         25    2    1    2    0    0  0.30157119311E+02  0.98850626985E+02 -0.89796504234E+02  0.18538463833E+03  0.12499261441E+03 0.  0.
          2    1    1    2  501    0 -0.84761887254E+02 -0.44442690466E+02 -0.53667049436E+03  0.54513755125E+03  0.00000000000E+00 0. -1.
          1    1    1    2  502    0  0.54604767943E+02 -0.54407936519E+02  0.79840526194E+03  0.80211773857E+03  0.00000000000E+00 0. -1.
         22    1    3    3    0    0  0.60672879741E+02  0.42754023548E+02  0.11799097241E+01  0.74232722250E+02  0.00000000000E+00 0.  1.
         22    1    3    3    0    0 -0.30515760430E+02  0.56096603437E+02 -0.90976413958E+02  0.11115191608E+03  0.00000000000E+00 0.  1.
</event>
<event>
 7    1  0.4915160E-006  0.8508196E+02  0.7818608E-02  0.1350098E+00
          2   -1    0    0  502    0  0.00000000000E+00  0.00000000000E+00  0.70392900876E+02  0.70392900876E+02  0.00000000000E+00 0. -1.
          1   -1    0    0  501    0 -0.00000000000E+00 -0.00000000000E+00 -0.53727084871E+03  0.53727084871E+03  0.00000000000E+00 0. -1.
         25    2    1    2    0    0  0.81937348208E+02 -0.10507364575E+03 -0.21926178702E+03  0.28540387300E+03  0.12500175765E+03 0.  0.
          2    1    1    2  501    0 -0.28955135101E+02  0.71588125270E+02 -0.24783031959E+03  0.25958260118E+03  0.00000000000E+00 0. -1.
          1    1    1    2  502    0 -0.52982213107E+02  0.33485520477E+02  0.21415877546E+00  0.62677275398E+02  0.00000000000E+00 0. -1.
         22    1    3    3    0    0  0.46224322079E+02  0.13893316246E+02 -0.10941427350E+03  0.11958760569E+03  0.00000000000E+00 0.  1.
         22    1    3    3    0    0  0.35713026129E+02 -0.11896696199E+03 -0.10984751351E+03  0.16581626732E+03  0.00000000000E+00 0.  1.
</event>
<event>
 7    1  0.4915160E-006  0.1021966E+03  0.7818608E-02  0.1342857E+00
          2   -1    0    0  502    0  0.00000000000E+00  0.00000000000E+00  0.18031554153E+04  0.18031554153E+04  0.00000000000E+00 0. -1.
          1   -1    0    0  501    0 -0.00000000000E+00 -0.00000000000E+00 -0.26905702484E+03  0.26905702484E+03  0.00000000000E+00 0. -1.
         25    2    1    2    0    0 -0.13258097216E+03 -0.14256626316E+02  0.16415523472E+03  0.24566737384E+03  0.12499820764E+03 0.  0.
          2    1    1    2  501    0  0.88715418745E+02  0.48296613216E+02 -0.21661876315E+03  0.23901187610E+03  0.00000000000E+00 0. -1.
          1    1    1    2  502    0  0.43865553417E+02 -0.34039986900E+02  0.15865619189E+04  0.15875331902E+04  0.00000000000E+00 0. -1.
         22    1    3    3    0    0 -0.79859690400E+02 -0.46172200107E+02  0.15900170849E+03  0.18382324531E+03  0.00000000000E+00 0. -1.
         22    1    3    3    0    0 -0.52721281761E+02  0.31915573791E+02  0.51535262222E+01  0.61844128529E+02  0.00000000000E+00 0. -1.
</event>
<event>
 7    1  0.4915160E-006  0.1416940E+03  0.7818608E-02  0.1360586E+00
          2   -1    0    0  502    0  0.00000000000E+00  0.00000000000E+00  0.42372496335E+02  0.42372496335E+02  0.00000000000E+00 0. -1.
          1   -1    0    0  501    0 -0.00000000000E+00 -0.00000000000E+00 -0.12625157030E+04  0.12625157030E+04  0.00000000000E+00 0. -1.
         25    2    1    2    0    0 -0.61703831877E+02  0.11697307302E+03 -0.76548847833E+03  0.78682130501E+03  0.12500037155E+03 0.  0.
          2    1    1    2  501    0  0.45490061279E+02 -0.14735626776E+03 -0.45818990812E+03  0.48344721245E+03  0.00000000000E+00 0. -1.
          1    1    1    2  502    0  0.16213770598E+02  0.30383194746E+02  0.35351797425E+01  0.34619681913E+02  0.00000000000E+00 0. -1.
         22    1    3    3    0    0 -0.74889230794E+02  0.51547369357E+02 -0.62153075233E+03  0.62814489114E+03  0.00000000000E+00 0. -1.
         22    1    3    3    0    0  0.13185398917E+02  0.65425703659E+02 -0.14395772600E+03  0.15867641387E+03  0.00000000000E+00 0. -1.
</event>
<event>
 7    1  0.4915160E-006  0.1330351E+03  0.7818608E-02  0.1397343E+00
          2   -1    0    0  502    0  0.00000000000E+00  0.00000000000E+00  0.12778542985E+04  0.12778542985E+04  0.00000000000E+00 0. -1.
          1   -1    0    0  501    0 -0.00000000000E+00 -0.00000000000E+00 -0.24007896243E+03  0.24007896243E+03  0.00000000000E+00 0. -1.
         25    2    1    2    0    0 -0.51925196190E+02 -0.93047786017E+02  0.10004420667E+04  0.10138360685E+04  0.12500051398E+03 0.  0.
          2    1    1    2  501    0  0.61985311135E+02  0.11828212737E+03 -0.21348568318E+03  0.25181139247E+03  0.00000000000E+00 0. -1.
          1    1    1    2  502    0 -0.10060114945E+02 -0.25234341357E+02  0.25081895256E+03  0.25228579996E+03  0.00000000000E+00 0. -1.
         22    1    3    3    0    0 -0.19402891981E+02 -0.50816868774E+02  0.11966779160E+03  0.13145039640E+03  0.00000000000E+00 0.  1.
         22    1    3    3    0    0 -0.32522304209E+02 -0.42230917244E+02  0.88077427514E+03  0.88238567213E+03  0.00000000000E+00 0.  1.
</event>
<event>
 7    1  0.4915160E-006  0.5697602E+02  0.7818608E-02  0.1503484E+00
          2   -1    0    0  502    0  0.00000000000E+00  0.00000000000E+00  0.43641572798E+03  0.43641572798E+03  0.00000000000E+00 0. -1.
          1   -1    0    0  501    0 -0.00000000000E+00 -0.00000000000E+00 -0.64449634913E+03  0.64449634913E+03  0.00000000000E+00 0. -1.
         25    2    1    2    0    0 -0.46712017400E+02 -0.14396789121E+02 -0.93664000106E+02  0.16367078618E+03  0.12500360485E+03 0.  0.
          2    1    1    2  501    0  0.56152494620E+02 -0.13025441276E+02 -0.51369096092E+03  0.51691504921E+03  0.00000000000E+00 0. -1.
          1    1    1    2  502    0 -0.94404772205E+01  0.27422230397E+02  0.39927433987E+03  0.40032624172E+03  0.00000000000E+00 0. -1.
         22    1    3    3    0    0 -0.63737318708E+02  0.39239305596E+02 -0.70480582345E+02  0.10280895577E+03  0.00000000000E+00 0. -1.
         22    1    3    3    0    0  0.17025301308E+02 -0.53636094717E+02 -0.23183417761E+02  0.60861830405E+02  0.00000000000E+00 0. -1.
</event>
<event>
 7    1  0.4915160E-006  0.3045258E+02  0.7818608E-02  0.1647819E+00
          2   -1    0    0  502    0  0.00000000000E+00  0.00000000000E+00  0.45582384498E+03  0.45582384498E+03  0.00000000000E+00 0. -1.
          1   -1    0    0  501    0 -0.00000000000E+00 -0.00000000000E+00 -0.47396366727E+02  0.47396366727E+02  0.00000000000E+00 0. -1.
         25    2    1    2    0    0  0.37153883338E+02  0.17881133432E+02  0.13928449528E+03  0.19163763932E+03  0.12499867278E+03 0.  0.
          2    1    1    2  501    0 -0.16333757805E+02 -0.25294964850E+02 -0.98768811798E+01  0.31688794118E+02  0.00000000000E+00 0. -1.
          1    1    1    2  502    0 -0.20820125533E+02  0.74138314181E+01  0.27901986415E+03  0.27989377827E+03  0.00000000000E+00 0. -1.
         22    1    3    3    0    0 -0.19926798666E+02  0.47763958100E+01  0.13087715648E+03  0.13247158696E+03  0.00000000000E+00 0. -1.
         22    1    3    3    0    0  0.57080682005E+02  0.13104737622E+02  0.84073387980E+01  0.59166052361E+02  0.00000000000E+00 0. -1.
</event>
<event>
 7    1  0.4915160E-006  0.5751556E+02  0.7818608E-02  0.1427032E+00
          2   -1    0    0  502    0  0.00000000000E+00  0.00000000000E+00  0.36965444135E+03  0.36965444135E+03  0.00000000000E+00 0. -1.
          1   -1    0    0  501    0 -0.00000000000E+00 -0.00000000000E+00 -0.18777714260E+04  0.18777714260E+04  0.00000000000E+00 0. -1.
         25    2    1    2    0    0  0.68874742120E+02 -0.38247797353E+02 -0.73202151380E+02  0.16489635263E+03  0.12500251213E+03 0.  0.
          2    1    1    2  501    0 -0.47544983767E+02 -0.15073555494E+02 -0.17558188803E+04  0.17565271640E+04  0.00000000000E+00 0. -1.
          1    1    1    2  502    0 -0.21329758353E+02  0.53321352847E+02  0.32090404703E+03  0.32600235070E+03  0.00000000000E+00 0. -1.
         22    1    3    3    0    0  0.71209940328E+02 -0.67349192939E+02 -0.14161670704E+02  0.99031925702E+02  0.00000000000E+00 0.  1.
         22    1    3    3    0    0 -0.23351982077E+01  0.29101395586E+02 -0.59040480676E+02  0.65864426925E+02  0.00000000000E+00 0.  1.
</event>
<event>
 7    1  0.4915160E-006  0.1503306E+03  0.7818608E-02  0.1329814E+00
          2   -1    0    0  502    0  0.00000000000E+00  0.00000000000E+00  0.35287238444E+03  0.35287238444E+03  0.00000000000E+00 0. -1.
          1   -1    0    0  501    0 -0.00000000000E+00 -0.00000000000E+00 -0.14699140419E+04  0.14699140419E+04  0.00000000000E+00 0. -1.
         25    2    1    2    0    0 -0.25609623318E+02  0.13597625290E+03 -0.10020578483E+04  0.10192600517E+04  0.12500290997E+03 0.  0.
          2    1    1    2  501    0 -0.42260529796E+02 -0.15211761174E+01 -0.44172399031E+03  0.44374356330E+03  0.00000000000E+00 0. -1.
          1    1    1    2  502    0  0.67870153114E+02 -0.13445507678E+03  0.32674018115E+03  0.35978281134E+03  0.00000000000E+00 0. -1.
         22    1    3    3    0    0  0.39234031808E+02  0.10675855432E+03 -0.67957272703E+03  0.68902524591E+03  0.00000000000E+00 0. -1.
         22    1    3    3    0    0 -0.64843655126E+02  0.29217698580E+02 -0.32248512131E+03  0.33023480584E+03  0.00000000000E+00 0. -1.
</event>
<event>
 7    1  0.4915160E-006  0.7147610E+02  0.7818608E-02  0.1399252E+00
          2   -1    0    0  502    0  0.00000000000E+00  0.00000000000E+00  0.19905530174E+04  0.19905530174E+04  0.00000000000E+00 0. -1.
          1   -1    0    0  501    0 -0.00000000000E+00 -0.00000000000E+00 -0.75699096217E+03  0.75699096217E+03  0.00000000000E+00 0. -1.
         25    2    1    2    0    0  0.22725159936E+02  0.18394186993E+02  0.15045917526E+03  0.19778271859E+03  0.12500104537E+03 0.  0.
          2    1    1    2  501    0 -0.71478471828E+02 -0.82278626646E+01 -0.73122182229E+03  0.73475317152E+03  0.00000000000E+00 0. -1.
          1    1    1    2  502    0  0.48753311892E+02 -0.10166324328E+02  0.18143247023E+04  0.18150080895E+04  0.00000000000E+00 0. -1.
         22    1    3    3    0    0  0.25033562929E+02 -0.48320902185E+02  0.10090672586E+03  0.11464622185E+03  0.00000000000E+00 0. -1.
         22    1    3    3    0    0 -0.23084029932E+01  0.66715089178E+02  0.49552449403E+02  0.83136496740E+02  0.00000000000E+00 0. -1.
</event>
<event>
 7    1  0.4915160E-006  0.2257004E+03  0.7818608E-02  0.1302394E+00
          2   -1    0    0  502    0  0.00000000000E+00  0.00000000000E+00  0.79440492176E+03  0.79440492176E+03  0.00000000000E+00 0. -1.
          1   -1    0    0  501    0 -0.00000000000E+00 -0.00000000000E+00 -0.82407753254E+03  0.82407753254E+03  0.00000000000E+00 0. -1.
         25    2    1    2    0    0 -0.16724542044E+03 -0.17246872329E+03  0.44351087243E+03  0.51965734563E+03  0.12500148692E+03 0.  0.
          2    1    1    2  501    0  0.13253849224E+03  0.18217834803E+03 -0.76874371751E+03  0.80107571778E+03  0.00000000000E+00 0. -1.
          1    1    1    2  502    0  0.34706928204E+02 -0.97096247454E+01  0.29556023430E+03  0.29774939089E+03  0.00000000000E+00 0. -1.
         22    1    3    3    0    0 -0.92568193128E+02 -0.10444361237E+03  0.36789076384E+03  0.39347293765E+03  0.00000000000E+00 0.  1.
         22    1    3    3    0    0 -0.74677227311E+02 -0.68025110916E+02  0.75620108593E+02  0.12618440798E+03  0.00000000000E+00 0.  1.
</event>
<event>
 7    1  0.4915160E-006  0.5368060E+02  0.7818608E-02  0.1493145E+00
          2   -1    0    0  502    0  0.00000000000E+00  0.00000000000E+00  0.59200099505E+03  0.59200099505E+03  0.00000000000E+00 0. -1.
          1   -1    0    0  501    0 -0.00000000000E+00 -0.00000000000E+00 -0.18458029313E+03  0.18458029313E+03  0.00000000000E+00 0. -1.
         25    2    1    2    0    0 -0.46947499952E+02 -0.15004471867E+01  0.11167852055E+03  0.17407680355E+03  0.12499728993E+03 0.  0.
          2    1    1    2  501    0  0.42079831673E+02  0.34193930840E+02 -0.14795524037E+03  0.15757756913E+03  0.00000000000E+00 0. -1.
          1    1    1    2  502    0  0.48676682796E+01 -0.32693483653E+02  0.44369742174E+03  0.44492691549E+03  0.00000000000E+00 0. -1.
         22    1    3    3    0    0 -0.14535083283E+02  0.61224023425E+02  0.52192061509E+02  0.81753660316E+02  0.00000000000E+00 0. -1.
         22    1    3    3    0    0 -0.32412416669E+02 -0.62724470612E+02  0.59486459043E+02  0.92323143238E+02  0.00000000000E+00 0. -1.
</event>
<event>
 7    1  0.4915160E-006  0.1461217E+03  0.7818608E-02  0.1330659E+00
          2   -1    0    0  502    0  0.00000000000E+00  0.00000000000E+00  0.11626289479E+04  0.11626289479E+04  0.00000000000E+00 0. -1.
          1   -1    0    0  501    0 -0.00000000000E+00 -0.00000000000E+00 -0.27614186625E+03  0.27614186625E+03  0.00000000000E+00 0. -1.
         25    2    1    2    0    0  0.12517580040E+03  0.11279087065E+03  0.33090747535E+03  0.39181034545E+03  0.12499931219E+03 0.  0.
          2    1    1    2  501    0 -0.43060666870E+02  0.32608233678E+01 -0.23742149780E+03  0.24131684901E+03  0.00000000000E+00 0. -1.
          1    1    1    2  502    0 -0.82115133530E+02 -0.11605169401E+03  0.79300110407E+03  0.80564361966E+03  0.00000000000E+00 0. -1.
         22    1    3    3    0    0  0.96901042438E+02  0.15029513170E+02  0.10300010455E+03  0.14221364150E+03  0.00000000000E+00 0.  1.
         22    1    3    3    0    0  0.28274757962E+02  0.97761357476E+02  0.22790737081E+03  0.24959670395E+03  0.00000000000E+00 0.  1.
</event>
<event>
 7    1  0.4915160E-006  0.3044703E+02  0.7818608E-02  0.1607717E+00
          2   -1    0    0  502    0  0.00000000000E+00  0.00000000000E+00  0.17581594419E+04  0.17581594419E+04  0.00000000000E+00 0. -1.
          1   -1    0    0  501    0 -0.00000000000E+00 -0.00000000000E+00 -0.94913528496E+03  0.94913528496E+03  0.00000000000E+00 0. -1.
         25    2    1    2    0    0  0.95654324019E+01  0.12381676757E+02  0.18091125934E+03  0.22045284655E+03  0.12500308149E+03 0.  0.
          2    1    1    2  501    0 -0.29670195630E+02  0.69655373581E+01 -0.92898961470E+03  0.92948939932E+03  0.00000000000E+00 0. -1.
          1    1    1    2  502    0  0.20104763228E+02 -0.19347214115E+02  0.15571025123E+04  0.15573524810E+04  0.00000000000E+00 0. -1.
         22    1    3    3    0    0  0.19466081948E+02  0.66020026931E+02  0.12265271579E+03  0.14064587087E+03  0.00000000000E+00 0.  1.
         22    1    3    3    0    0 -0.99006495465E+01 -0.53638350174E+02  0.58258543544E+02  0.79806975677E+02  0.00000000000E+00 0.  1.
</event>
<event>
 7    1  0.4915160E-006  0.1017049E+03  0.7818608E-02  0.1437389E+00
          2   -1    0    0  502    0  0.00000000000E+00  0.00000000000E+00  0.18372006129E+04  0.18372006129E+04  0.00000000000E+00 0. -1.
          1   -1    0    0  501    0 -0.00000000000E+00 -0.00000000000E+00 -0.29634990213E+03  0.29634990213E+03  0.00000000000E+00 0. -1.
         25    2    1    2    0    0 -0.10757979915E+03  0.33444647804E+02  0.10565974840E+04  0.10699139175E+04  0.12500235955E+03 0.  0.
          2    1    1    2  501    0  0.22304267365E+02  0.13521965236E+02 -0.28603443416E+03  0.28722120641E+03  0.00000000000E+00 0. -1.
          1    1    1    2  502    0  0.85275531784E+02 -0.46966613040E+02  0.77028766084E+03  0.77641539108E+03  0.00000000000E+00 0. -1.
         22    1    3    3    0    0 -0.13981390219E+01  0.29419000508E+02  0.52396186093E+02  0.60106511300E+02  0.00000000000E+00 0. -1.
         22    1    3    3    0    0 -0.10618166013E+03  0.40256472965E+01  0.10042012979E+04  0.10098074062E+04  0.00000000000E+00 0. -1.
</event>
<event>
 7    1  0.4915160E-006  0.4564356E+03  0.7818608E-02  0.1186712E+00
          2   -1    0    0  502    0  0.00000000000E+00  0.00000000000E+00  0.61897706251E+03  0.61897706251E+03  0.00000000000E+00 0. -1.
          1   -1    0    0  501    0 -0.00000000000E+00 -0.00000000000E+00 -0.11732104930E+04  0.11732104930E+04  0.00000000000E+00 0. -1.
         25    2    1    2    0    0 -0.42756388526E+03  0.74627140891E+02 -0.57010965753E+02  0.45525507073E+03  0.12500737208E+03 0.  0.
          2    1    1    2  501    0  0.46271883061E+03 -0.29334134136E+02 -0.85605411677E+03  0.97354910429E+03  0.00000000000E+00 0. -1.
          1    1    1    2  502    0 -0.35154945351E+02 -0.45293006755E+02  0.35883165208E+03  0.36338338043E+03  0.00000000000E+00 0. -1.
         22    1    3    3    0    0 -0.10171665689E+03  0.30232739532E+02 -0.68315273653E+02  0.12620330202E+03  0.00000000000E+00 0.  1.
         22    1    3    3    0    0 -0.32584722837E+03  0.44394401359E+02  0.11304307900E+02  0.32905176871E+03  0.00000000000E+00 0.  1.
</event>
<event>
 7    1  0.4915160E-006  0.9952482E+02  0.7818608E-02  0.1349663E+00
          2   -1    0    0  502    0  0.00000000000E+00  0.00000000000E+00  0.58817450116E+03  0.58817450116E+03  0.00000000000E+00 0. -1.
          1   -1    0    0  501    0 -0.00000000000E+00 -0.00000000000E+00 -0.21365022266E+04  0.21365022266E+04  0.00000000000E+00 0. -1.
         25    2    1    2    0    0  0.13380560533E+03 -0.63671764852E+02 -0.30194253023E+03  0.35882170860E+03  0.12500277335E+03 0.  0.
          2    1    1    2  501    0 -0.53444205845E+02  0.60046968717E+01 -0.18013459697E+04  0.18021486182E+04  0.00000000000E+00 0. -1.
          1    1    1    2  502    0 -0.80361399484E+02  0.57667067980E+02  0.55496077449E+03  0.56370640096E+03  0.00000000000E+00 0. -1.
         22    1    3    3    0    0  0.45921491500E+01 -0.63294671121E+02 -0.81407830694E+02  0.10322082215E+03  0.00000000000E+00 0. -1.
         22    1    3    3    0    0  0.12921345618E+03 -0.37709373060E+00 -0.22053469953E+03  0.25560088645E+03  0.00000000000E+00 0. -1.
</event>
<event>
 7    1  0.4915160E-006  0.3385107E+02  0.7818608E-02  0.1564180E+00
          2   -1    0    0  502    0  0.00000000000E+00  0.00000000000E+00  0.15740412166E+04  0.15740412166E+04  0.00000000000E+00 0. -1.
          1   -1    0    0  501    0 -0.00000000000E+00 -0.00000000000E+00 -0.32715131200E+03  0.32715131200E+03  0.00000000000E+00 0. -1.
         25    2    1    2    0    0  0.16595769537E+02 -0.64365881996E+02  0.18121538232E+03  0.22996075927E+03  0.12499819871E+03 0.  0.
          2    1    1    2  501    0 -0.85808470436E+01  0.32591492976E+02 -0.30164385684E+03  0.30352076160E+03  0.00000000000E+00 0. -1.
          1    1    1    2  502    0 -0.80149224938E+01  0.31774389020E+02  0.13673183791E+04  0.13677110077E+04  0.00000000000E+00 0. -1.
         22    1    3    3    0    0 -0.44009994156E+02 -0.36266192922E+02  0.29536118016E+02  0.64222259397E+02  0.00000000000E+00 0.  1.
         22    1    3    3    0    0  0.60605763693E+02 -0.28099689074E+02  0.15167926431E+03  0.16573849987E+03  0.00000000000E+00 0.  1.
</event>
<event>
 7    1  0.4915160E-006  0.2854808E+02  0.7818608E-02  0.1634635E+00
          2   -1    0    0  502    0  0.00000000000E+00  0.00000000000E+00  0.56487520009E+03  0.56487520009E+03  0.00000000000E+00 0. -1.
          1   -1    0    0  501    0 -0.00000000000E+00 -0.00000000000E+00 -0.13238849401E+03  0.13238849401E+03  0.00000000000E+00 0. -1.
         25    2    1    2    0    0  0.10803926589E+02  0.34404017884E+02  0.13707787486E+03  0.18898855195E+03  0.12500387080E+03 0.  0.
          2    1    1    2  501    0  0.12987932364E+02 -0.25458124081E+02 -0.10410338065E+03  0.10795515889E+03  0.00000000000E+00 0. -1.
          1    1    1    2  502    0 -0.23791858954E+02 -0.89458938023E+01  0.39951221187E+03  0.40031998327E+03  0.00000000000E+00 0. -1.
         22    1    3    3    0    0 -0.44787884161E+02  0.53564599784E+02  0.60127014673E+02  0.92143251576E+02  0.00000000000E+00 0.  1.
         22    1    3    3    0    0  0.55591810750E+02 -0.19160581900E+02  0.76950860185E+02  0.96845300373E+02  0.00000000000E+00 0.  1.
</event>
<event>
 7    1  0.4915160E-006  0.1561895E+03  0.7818608E-02  0.1266525E+00
          2   -1    0    0  502    0  0.00000000000E+00  0.00000000000E+00  0.30176362389E+03  0.30176362389E+03  0.00000000000E+00 0. -1.
          1   -1    0    0  501    0 -0.00000000000E+00 -0.00000000000E+00 -0.50698453528E+03  0.50698453528E+03  0.00000000000E+00 0. -1.
         25    2    1    2    0    0  0.94441660733E+02 -0.98367371121E+02 -0.30149251517E+02  0.18742816421E+03  0.12499988955E+03 0.  0.
          2    1    1    2  501    0 -0.15344430342E+03  0.55228711256E+02 -0.37474367043E+03  0.40869081630E+03  0.00000000000E+00 0. -1.
          1    1    1    2  502    0  0.59002642686E+02  0.43138659864E+02  0.19967201055E+03  0.21262917866E+03  0.00000000000E+00 0. -1.
         22    1    3    3    0    0 -0.19311216710E+02 -0.19403486094E+02  0.26233163795E+02  0.37915659642E+02  0.00000000000E+00 0.  1.
         22    1    3    3    0    0  0.11375287744E+03 -0.78963885027E+02 -0.56382415312E+02  0.14951250456E+03  0.00000000000E+00 0.  1.
</event>
<event>
 7    1  0.4915160E-006  0.6973939E+02  0.7818608E-02  0.1426678E+00
          2   -1    0    0  502    0  0.00000000000E+00  0.00000000000E+00  0.13286639917E+04  0.13286639917E+04  0.00000000000E+00 0. -1.
          1   -1    0    0  501    0 -0.00000000000E+00 -0.00000000000E+00 -0.70728998814E+02  0.70728998814E+02  0.00000000000E+00 0. -1.
         25    2    1    2    0    0  0.12903523193E+02  0.47366184682E+02  0.14665205385E+03  0.19885143204E+03  0.12500004304E+03 0.  0.
          2    1    1    2  501    0  0.20296419514E+02 -0.71840599991E+02 -0.12765854569E+02  0.75736275952E+02  0.00000000000E+00 0. -1.
          1    1    1    2  502    0 -0.33199942707E+02  0.24474415309E+02  0.11240487936E+04  0.11248052825E+04  0.00000000000E+00 0. -1.
         22    1    3    3    0    0  0.65529890293E+02  0.41529443514E+01  0.63109784712E+02  0.91072819188E+02  0.00000000000E+00 0. -1.
         22    1    3    3    0    0 -0.52626367100E+02  0.43213240331E+02  0.83542269141E+02  0.10777861285E+03  0.00000000000E+00 0. -1.
</event>
<event>
 7    1  0.4915160E-006  0.7684418E+02  0.7818608E-02  0.1388621E+00
          2   -1    0    0  502    0  0.00000000000E+00  0.00000000000E+00  0.10756768727E+03  0.10756768727E+03  0.00000000000E+00 0. -1.
          1   -1    0    0  501    0 -0.00000000000E+00 -0.00000000000E+00 -0.39309980271E+04  0.39309980271E+04  0.00000000000E+00 0. -1.
         25    2    1    2    0    0  0.53444388701E+02  0.74474226383E+02 -0.19816920525E+04  0.19877448210E+04  0.12499347686E+03 0.  0.
          2    1    1    2  501    0 -0.71069867125E+02 -0.27225549424E+02 -0.19394079519E+04  0.19409006570E+04  0.00000000000E+00 0. -1.
          1    1    1    2  502    0  0.17625478423E+02 -0.47248676960E+02  0.97669664625E+02  0.10992023632E+03  0.00000000000E+00 0. -1.
         22    1    3    3    0    0 -0.22536120133E+02  0.55973069587E+00 -0.80413298579E+02  0.83513403700E+02  0.00000000000E+00 0. -1.
         22    1    3    3    0    0  0.75980508835E+02  0.73914495687E+02 -0.19012787539E+04  0.19042314173E+04  0.00000000000E+00 0. -1.
</event>
<event>
 7    1  0.4915160E-006  0.3987009E+02  0.7818608E-02  0.1517132E+00
          2   -1    0    0  502    0  0.00000000000E+00  0.00000000000E+00  0.22671497432E+03  0.22671497432E+03  0.00000000000E+00 0. -1.
          1   -1    0    0  501    0 -0.00000000000E+00 -0.00000000000E+00 -0.20961368470E+04  0.20961368470E+04  0.00000000000E+00 0. -1.
         25    2    1    2    0    0  0.39126848783E+01  0.63140702773E+01  0.43538235259E+01  0.12529121822E+03  0.12499502789E+03 0.  0.
          2    1    1    2  501    0 -0.20884717188E+02  0.31487557887E+02 -0.20328382428E+04  0.20331893564E+04  0.00000000000E+00 0. -1.
          1    1    1    2  502    0  0.16972032310E+02 -0.37801628165E+02  0.15906254665E+03  0.16437124663E+03  0.00000000000E+00 0. -1.
         22    1    3    3    0    0  0.46652336362E+02 -0.23895692721E+02 -0.32140766151E+02  0.61485554949E+02  0.00000000000E+00 0.  1.
         22    1    3    3    0    0 -0.42739651483E+02  0.30209762999E+02  0.36494589676E+02  0.63805663267E+02  0.00000000000E+00 0.  1.
</event>
<event>
 7    1  0.4915160E-006  0.1377028E+03  0.7818608E-02  0.1347606E+00
          2   -1    0    0  502    0  0.00000000000E+00  0.00000000000E+00  0.70008214014E+03  0.70008214014E+03  0.00000000000E+00 0. -1.
          1   -1    0    0  501    0 -0.00000000000E+00 -0.00000000000E+00 -0.51764227145E+03  0.51764227145E+03  0.00000000000E+00 0. -1.
         25    2    1    2    0    0 -0.15127244029E+03 -0.52898698802E+02  0.15949522727E+03  0.25835157786E+03  0.12500074694E+03 0.  0.
          2    1    1    2  501    0  0.18452932763E+02  0.34992144366E+02 -0.45820343696E+03  0.45990798051E+03  0.00000000000E+00 0. -1.
          1    1    1    2  502    0  0.13281950753E+03  0.17906554436E+02  0.48114807838E+03  0.49946485322E+03  0.00000000000E+00 0. -1.
         22    1    3    3    0    0 -0.12814674074E+03 -0.47429122311E+02  0.18066957831E+03  0.22652285830E+03  0.00000000000E+00 0.  1.
         22    1    3    3    0    0 -0.23125699546E+02 -0.54695764912E+01 -0.21174351045E+02  0.31828719558E+02  0.00000000000E+00 0.  1.
</event>
<event>
 7    1  0.4915160E-006  0.2041008E+03  0.7818608E-02  0.1196216E+00
          2   -1    0    0  502    0  0.00000000000E+00  0.00000000000E+00  0.16370545832E+04  0.16370545832E+04  0.00000000000E+00 0. -1.
          1   -1    0    0  501    0 -0.00000000000E+00 -0.00000000000E+00 -0.26530026345E+04  0.26530026345E+04  0.00000000000E+00 0. -1.
         25    2    1    2    0    0 -0.26767138300E+03 -0.10527695556E+03 -0.58617565546E+03  0.66479946754E+03  0.12500090534E+03 0.  0.
          2    1    1    2  501    0  0.11246538445E+03 -0.26174376685E+02 -0.20193860987E+04  0.20226847942E+04  0.00000000000E+00 0. -1.
          1    1    1    2  502    0  0.15520599855E+03  0.13145133224E+03  0.15896137030E+04  0.16025729560E+04  0.00000000000E+00 0. -1.
         22    1    3    3    0    0 -0.15434100254E+03  0.64400111990E+01 -0.29085433027E+03  0.32933092816E+03  0.00000000000E+00 0.  1.
         22    1    3    3    0    0 -0.11333038046E+03 -0.11171696675E+03 -0.29532132520E+03  0.33546853938E+03  0.00000000000E+00 0.  1.
</event>
<event>
 7    1  0.4915160E-006  0.1077693E+03  0.7818608E-02  0.1377590E+00
          2   -1    0    0  502    0  0.00000000000E+00  0.00000000000E+00  0.63361941374E+03  0.63361941374E+03  0.00000000000E+00 0. -1.
          1   -1    0    0  501    0 -0.00000000000E+00 -0.00000000000E+00 -0.74870748652E+03  0.74870748652E+03  0.00000000000E+00 0. -1.
         25    2    1    2    0    0 -0.99698866847E+02  0.24497110932E+02  0.78136471407E+02  0.17964362381E+03  0.12500620352E+03 0.  0.
          2    1    1    2  501    0  0.10262728511E+02  0.37963987275E+02 -0.69149433019E+03  0.69261172140E+03  0.00000000000E+00 0. -1.
          1    1    1    2  502    0  0.89436138336E+02 -0.62461098206E+02  0.49826978601E+03  0.51007155506E+03  0.00000000000E+00 0. -1.
         22    1    3    3    0    0 -0.11386731061E+03 -0.62405176872E+01  0.88385499234E+02  0.14427995343E+03  0.00000000000E+00 0. -1.
         22    1    3    3    0    0  0.14168443760E+02  0.30737628619E+02 -0.10249027827E+02  0.35363670385E+02  0.00000000000E+00 0. -1.
</event>
<event>
 7    1  0.4915160E-006  0.1054443E+03  0.7818608E-02  0.1340064E+00
          2   -1    0    0  502    0  0.00000000000E+00  0.00000000000E+00  0.18430764345E+04  0.18430764345E+04  0.00000000000E+00 0. -1.
          1   -1    0    0  501    0 -0.00000000000E+00 -0.00000000000E+00 -0.16493289050E+03  0.16493289050E+03  0.00000000000E+00 0. -1.
         25    2    1    2    0    0  0.72877033959E+02  0.55038015801E+02  0.57139094632E+02  0.16501914326E+03  0.12500478488E+03 0.  0.
          2    1    1    2  501    0 -0.11053350264E+03 -0.14774342534E+02 -0.82423290460E+02  0.13867059967E+03  0.00000000000E+00 0. -1.
          1    1    1    2  502    0  0.37656468681E+02 -0.40263673267E+02  0.17034277398E+04  0.17043195821E+04  0.00000000000E+00 0. -1.
         22    1    3    3    0    0 -0.32964439826E+02  0.31634987413E+02  0.24341477943E+02  0.51768081577E+02  0.00000000000E+00 0. -1.
         22    1    3    3    0    0  0.10584147379E+03  0.23403028387E+02  0.32797616688E+02  0.11325106168E+03  0.00000000000E+00 0. -1.
</event>
<event>
 7    1  0.4915160E-006  0.2027231E+03  0.7818608E-02  0.1246884E+00
          2   -1    0    0  502    0  0.00000000000E+00  0.00000000000E+00  0.77109357457E+03  0.77109357457E+03  0.00000000000E+00 0. -1.
          1   -1    0    0  501    0 -0.00000000000E+00 -0.00000000000E+00 -0.64322818822E+03  0.64322818822E+03  0.00000000000E+00 0. -1.
         25    2    1    2    0    0 -0.64293034368E+02 -0.19177130102E+03  0.24115598988E+03  0.33865721313E+03  0.12499068121E+03 0.  0.
          2    1    1    2  501    0 -0.62152858551E+02  0.28497009821E+02 -0.57018341993E+03  0.57426839523E+03  0.00000000000E+00 0. -1.
          1    1    1    2  502    0  0.12644589292E+03  0.16327429120E+03  0.45689281640E+03  0.50139615443E+03  0.00000000000E+00 0. -1.
         22    1    3    3    0    0 -0.77322920171E+01 -0.44570231313E+02  0.14964913422E+03  0.15633667910E+03  0.00000000000E+00 0. -1.
         22    1    3    3    0    0 -0.56560742351E+02 -0.14720106970E+03  0.91506855664E+02  0.18232053404E+03  0.00000000000E+00 0. -1.
</event>
<event>
 7    1  0.4915160E-006  0.7521955E+02  0.7818608E-02  0.1431052E+00
          2   -1    0    0  502    0  0.00000000000E+00  0.00000000000E+00  0.78184199584E+03  0.78184199584E+03  0.00000000000E+00 0. -1.
          1   -1    0    0  501    0 -0.00000000000E+00 -0.00000000000E+00 -0.28950394128E+04  0.28950394128E+04  0.00000000000E+00 0. -1.
         25    2    1    2    0    0  0.47032945471E+02 -0.13999631793E+02 -0.54050971138E+03  0.55694149148E+03  0.12499995676E+03 0.  0.
          2    1    1    2  501    0 -0.60528576442E+02  0.48441751898E+02 -0.23452307242E+04  0.23465117646E+04  0.00000000000E+00 0. -1.
          1    1    1    2  502    0  0.13495630970E+02 -0.34442120104E+02  0.77254301856E+03  0.77342815258E+03  0.00000000000E+00 0. -1.
         22    1    3    3    0    0 -0.28338058382E+02 -0.34147278211E+02 -0.31947726522E+03  0.32254426852E+03  0.00000000000E+00 0. -1.
         22    1    3    3    0    0  0.75371003853E+02  0.20147646418E+02 -0.22103244616E+03  0.23439722297E+03  0.00000000000E+00 0. -1.
</event>
<event>
 7    1  0.4915160E-006  0.1908783E+03  0.7818608E-02  0.1327438E+00
          2   -1    0    0  502    0  0.00000000000E+00  0.00000000000E+00  0.29520698826E+03  0.29520698826E+03  0.00000000000E+00 0. -1.
          1   -1    0    0  501    0 -0.00000000000E+00 -0.00000000000E+00 -0.75751495566E+03  0.75751495566E+03  0.00000000000E+00 0. -1.
         25    2    1    2    0    0  0.17803539048E+03  0.11071691584E+03 -0.30564288235E+03  0.39114856105E+03  0.12499915823E+03 0.  0.
          2    1    1    2  501    0 -0.32484770820E+02  0.10070189898E+02 -0.37280950559E+03  0.37435757842E+03  0.00000000000E+00 0. -1.
          1    1    1    2  502    0 -0.14555061966E+03 -0.12078710574E+03  0.21614442055E+03  0.28721580446E+03  0.00000000000E+00 0. -1.
         22    1    3    3    0    0  0.78795772669E+01  0.55531871912E+02 -0.33042771069E+02  0.65097628650E+02  0.00000000000E+00 0. -1.
         22    1    3    3    0    0  0.17015581322E+03  0.55185043932E+02 -0.27260011128E+03  0.32605093240E+03  0.00000000000E+00 0. -1.
</event>
<event>
 7    1  0.4915160E-006  0.3980459E+02  0.7818608E-02  0.1562361E+00
          2   -1    0    0  502    0  0.00000000000E+00  0.00000000000E+00  0.14817137295E+04  0.14817137295E+04  0.00000000000E+00 0. -1.
          1   -1    0    0  501    0 -0.00000000000E+00 -0.00000000000E+00 -0.19594700883E+04  0.19594700883E+04  0.00000000000E+00 0. -1.
         25    2    1    2    0    0 -0.11159468544E+02 -0.48709775148E+01  0.56557219327E+03  0.57934984103E+03  0.12500428927E+03 0.  0.
          2    1    1    2  501    0  0.31347516771E+02  0.24546478597E+02 -0.19521597324E+04  0.19525657012E+04  0.00000000000E+00 0. -1.
          1    1    1    2  502    0 -0.20188048227E+02 -0.19675501082E+02  0.90883118041E+03  0.90926827566E+03  0.00000000000E+00 0. -1.
         22    1    3    3    0    0 -0.28246692408E+02 -0.37050844323E+01  0.23289610013E+02  0.36796864231E+02  0.00000000000E+00 0.  1.
         22    1    3    3    0    0  0.17087223864E+02 -0.11658930825E+01  0.54228258326E+03  0.54255297680E+03  0.00000000000E+00 0.  1.
</event>
<event>
 7    1  0.4915160E-006  0.6651739E+02  0.7818608E-02  0.1384682E+00
          2   -1    0    0  502    0  0.00000000000E+00  0.00000000000E+00  0.57612603969E+03  0.57612603969E+03  0.00000000000E+00 0. -1.
          1   -1    0    0  501    0 -0.00000000000E+00 -0.00000000000E+00 -0.47455866015E+02  0.47455866015E+02  0.00000000000E+00 0. -1.
         25    2    1    2    0    0  0.11619138713E+03 -0.24090474255E+02  0.39605087140E+03  0.43192841382E+03  0.12500029014E+03 0.  0.
          2    1    1    2  501    0 -0.56055950215E+02  0.24926280472E+02  0.20963788054E+02  0.64831083766E+02  0.00000000000E+00 0. -1.
          1    1    1    2  502    0 -0.60135436916E+02 -0.83580621713E+00  0.11165551422E+03  0.12682240811E+03  0.00000000000E+00 0. -1.
         22    1    3    3    0    0  0.14179280857E+03 -0.24791300120E+02  0.30359172444E+03  0.33598771447E+03  0.00000000000E+00 0.  1.
         22    1    3    3    0    0 -0.25601421434E+02  0.70082586534E+00  0.92459146957E+02  0.95940699353E+02  0.00000000000E+00 0.  1.
</event>
<event>
 7    1  0.4915160E-006  0.3526189E+02  0.7818608E-02  0.1633959E+00
          2   -1    0    0  502    0  0.00000000000E+00  0.00000000000E+00  0.19962094175E+03  0.19962094175E+03  0.00000000000E+00 0. -1.
          1   -1    0    0  501    0 -0.00000000000E+00 -0.00000000000E+00 -0.47695629197E+03  0.47695629197E+03  0.00000000000E+00 0. -1.
         25    2    1    2    0    0 -0.47643365992E+01 -0.49308712793E+02 -0.84391501082E+02  0.15874900194E+03  0.12500108840E+03 0.  0.
          2    1    1    2  501    0  0.13772425321E+02  0.15398330757E+02 -0.35318606069E+03  0.35378974230E+03  0.00000000000E+00 0. -1.
          1    1    1    2  502    0 -0.90080887213E+01  0.33910382035E+02  0.16024221155E+03  0.16403848949E+03  0.00000000000E+00 0. -1.
         22    1    3    3    0    0  0.14257442888E+02 -0.87052001900E+02 -0.74207053391E+02  0.11527364176E+03  0.00000000000E+00 0.  1.
         22    1    3    3    0    0 -0.19021779487E+02  0.37743289107E+02 -0.10184447691E+02  0.43475360174E+02  0.00000000000E+00 0.  1.
</event>
<event>
 7    1  0.4915160E-006  0.1526632E+03  0.7818608E-02  0.1414487E+00
          2   -1    0    0  502    0  0.00000000000E+00  0.00000000000E+00  0.13201286913E+04  0.13201286913E+04  0.00000000000E+00 0. -1.
          1   -1    0    0  501    0 -0.00000000000E+00 -0.00000000000E+00 -0.38729439130E+02  0.38729439130E+02  0.00000000000E+00 0. -1.
         25    2    1    2    0    0  0.73693296384E+02  0.11409897090E+03  0.28554346969E+03  0.34001101473E+03  0.12499255962E+03 0.  0.
          2    1    1    2  501    0  0.12080172286E+02  0.16800065100E+02  0.14930968770E+02  0.25516790124E+02  0.00000000000E+00 0. -1.
          1    1    1    2  502    0 -0.85773468670E+02 -0.13089903600E+03  0.98092481368E+03  0.99333032555E+03  0.00000000000E+00 0. -1.
         22    1    3    3    0    0  0.32643679590E+02  0.21449027303E+02  0.22342684423E+01  0.39123682661E+02  0.00000000000E+00 0. -1.
         22    1    3    3    0    0  0.41049616794E+02  0.92649943601E+02  0.28330920124E+03  0.30088733206E+03  0.00000000000E+00 0. -1.
</event>
<event>
 7    1  0.4915160E-006  0.4907092E+02  0.7818608E-02  0.1521212E+00
          2   -1    0    0  502    0  0.00000000000E+00  0.00000000000E+00  0.12607947629E+04  0.12607947629E+04  0.00000000000E+00 0. -1.
          1   -1    0    0  501    0 -0.00000000000E+00 -0.00000000000E+00 -0.29757262607E+02  0.29757262607E+02  0.00000000000E+00 0. -1.
         25    2    1    2    0    0 -0.43410355495E+02  0.41538240153E+02  0.52966959169E+03  0.54752621812E+03  0.12500079521E+03 0.  0.
          2    1    1    2  501    0  0.14009317606E+02 -0.46823938329E+02  0.86138997032E+01  0.49628030875E+02  0.00000000000E+00 0. -1.
          1    1    1    2  502    0  0.29401037889E+02  0.52856981760E+01  0.69275400891E+03  0.69339777653E+03  0.00000000000E+00 0. -1.
         22    1    3    3    0    0 -0.44558900252E+02 -0.36786524803E+02  0.17438572401E+03  0.18370934853E+03  0.00000000000E+00 0. -1.
         22    1    3    3    0    0  0.11485447569E+01  0.78324764956E+02  0.35528386768E+03  0.36381686958E+03  0.00000000000E+00 0. -1.
</event>
<event>
 7    1  0.4915160E-006  0.9652881E+02  0.7818608E-02  0.1304577E+00
          2   -1    0    0  502    0  0.00000000000E+00  0.00000000000E+00  0.79394635382E+03  0.79394635382E+03  0.00000000000E+00 0. -1.
          1   -1    0    0  501    0 -0.00000000000E+00 -0.00000000000E+00 -0.53732656436E+03  0.53732656436E+03  0.00000000000E+00 0. -1.
         25    2    1    2    0    0  0.77052945226E+02 -0.15441217981E+02  0.59543338204E+01  0.14777101346E+03  0.12500092298E+03 0.  0.
          2    1    1    2  501    0 -0.42464857950E+02  0.90446951277E+02 -0.45864278465E+03  0.46940080855E+03  0.00000000000E+00 0. -1.
          1    1    1    2  502    0 -0.34588087276E+02 -0.75005733296E+02  0.70930824029E+03  0.71410109618E+03  0.00000000000E+00 0. -1.
         22    1    3    3    0    0  0.66100658109E+02 -0.48825414501E+02  0.46258042910E+02  0.94302834727E+02  0.00000000000E+00 0.  1.
         22    1    3    3    0    0  0.10952287117E+02  0.33384196520E+02 -0.40303709090E+02  0.53468178731E+02  0.00000000000E+00 0.  1.
</event>
<event>
 7    1  0.4915160E-006  0.6041858E+02  0.7818608E-02  0.1536376E+00
          2   -1    0    0  502    0  0.00000000000E+00  0.00000000000E+00  0.11812144727E+04  0.11812144727E+04  0.00000000000E+00 0. -1.
          1   -1    0    0  501    0 -0.00000000000E+00 -0.00000000000E+00 -0.11514931305E+03  0.11514931305E+03  0.00000000000E+00 0. -1.
         25    2    1    2    0    0 -0.14846932676E+02 -0.46097915039E+02  0.16515999283E+03  0.21271547712E+03  0.12499840717E+03 0.  0.
          2    1    1    2  501    0  0.16132953650E+02 -0.14882025810E+02 -0.89101242382E+02  0.91764798696E+02  0.00000000000E+00 0. -1.
          1    1    1    2  502    0 -0.12860209744E+01  0.60979940848E+02  0.99000640922E+03  0.99188350996E+03  0.00000000000E+00 0. -1.
         22    1    3    3    0    0 -0.67206731728E+02 -0.42567154952E+02  0.11702469806E+03  0.14150437247E+03  0.00000000000E+00 0.  1.
         22    1    3    3    0    0  0.52359799053E+02 -0.35307600866E+01  0.48135294764E+02  0.71211104651E+02  0.00000000000E+00 0.  1.
</event>
<event>
 7    1  0.4915160E-006  0.8767761E+02  0.7818608E-02  0.1403168E+00
          2   -1    0    0  502    0  0.00000000000E+00  0.00000000000E+00  0.22933551387E+04  0.22933551387E+04  0.00000000000E+00 0. -1.
          1   -1    0    0  501    0 -0.00000000000E+00 -0.00000000000E+00 -0.29467856942E+03  0.29467856942E+03  0.00000000000E+00 0. -1.
         25    2    1    2    0    0 -0.81592321518E+02 -0.22414044925E+02 -0.17350924341E+03  0.22997559222E+03  0.12499447640E+03 0.  0.
          2    1    1    2  501    0  0.16077396913E+02 -0.35928837229E+02 -0.87878823349E+02  0.96291493027E+02  0.00000000000E+00 0. -1.
          1    1    1    2  502    0  0.65514924605E+02  0.58342882154E+02  0.22600646360E+04  0.22617666228E+04  0.00000000000E+00 0. -1.
         22    1    3    3    0    0 -0.23434011103E+02 -0.41817110358E+01 -0.16699069768E+03  0.16867878556E+03  0.00000000000E+00 0. -1.
         22    1    3    3    0    0 -0.58158310415E+02 -0.18232333889E+02 -0.65185457214E+01  0.61296806669E+02  0.00000000000E+00 0. -1.
</event>
<event>
 7    1  0.4915160E-006  0.1421453E+03  0.7818608E-02  0.1379530E+00
          2   -1    0    0  502    0  0.00000000000E+00  0.00000000000E+00  0.74611031139E+03  0.74611031139E+03  0.00000000000E+00 0. -1.
          1   -1    0    0  501    0 -0.00000000000E+00 -0.00000000000E+00 -0.14339037163E+03  0.14339037163E+03  0.00000000000E+00 0. -1.
         25    2    1    2    0    0  0.14658325415E+03 -0.47206197516E+02  0.33988833946E+03  0.39352892040E+03  0.12500340959E+03 0.  0.
          2    1    1    2  501    0 -0.24669161720E+02 -0.15896062967E+02 -0.10201582755E+03  0.10615310372E+03  0.00000000000E+00 0. -1.
          1    1    1    2  502    0 -0.12191409243E+03  0.63102260483E+02  0.36484742786E+03  0.38981865890E+03  0.00000000000E+00 0. -1.
         22    1    3    3    0    0  0.68937402018E+02 -0.86754700851E+02  0.17781016325E+03  0.20951180795E+03  0.00000000000E+00 0. -1.
         22    1    3    3    0    0  0.77645852137E+02  0.39548503335E+02  0.16207817621E+03  0.18401711245E+03  0.00000000000E+00 0. -1.
</event>
<event>
 7    1  0.4915160E-006  0.1023346E+03  0.7818608E-02  0.1325544E+00
          2   -1    0    0  502    0  0.00000000000E+00  0.00000000000E+00  0.25106511314E+02  0.25106511314E+02  0.00000000000E+00 0. -1.
          1   -1    0    0  501    0 -0.00000000000E+00 -0.00000000000E+00 -0.25427348193E+04  0.25427348193E+04  0.00000000000E+00 0. -1.
         25    2    1    2    0    0  0.86770078820E+02 -0.23258162098E+02 -0.57417262050E+03  0.59444859613E+03  0.12499978653E+03 0.  0.
          2    1    1    2  501    0 -0.98796417509E+02 -0.40118831456E+02 -0.18796086264E+04  0.18826308298E+04  0.00000000000E+00 0. -1.
          1    1    1    2  502    0  0.12026338688E+02  0.63376993553E+02 -0.63847061019E+02  0.90761904646E+02  0.00000000000E+00 0. -1.
         22    1    3    3    0    0  0.69221311811E+02 -0.72698892727E+02 -0.40931946472E+03  0.42144886191E+03  0.00000000000E+00 0. -1.
         22    1    3    3    0    0  0.17548767009E+02  0.49440730629E+02 -0.16485315578E+03  0.17299973422E+03  0.00000000000E+00 0. -1.
</event>
<event>
 7    1  0.4915160E-006  0.7791982E+02  0.7818608E-02  0.1392194E+00
          2   -1    0    0  502    0  0.00000000000E+00  0.00000000000E+00  0.92807759113E+02  0.92807759113E+02  0.00000000000E+00 0. -1.
          1   -1    0    0  501    0 -0.00000000000E+00 -0.00000000000E+00 -0.95965423196E+03  0.95965423196E+03  0.00000000000E+00 0. -1.
         25    2    1    2    0    0  0.11491105507E+02 -0.32448940885E+02 -0.42436394726E+02  0.13642004694E+03  0.12499840934E+03 0.  0.
          2    1    1    2  501    0 -0.13235411437E+01  0.79693677682E+02 -0.85509181252E+03  0.85879848734E+03  0.00000000000E+00 0. -1.
          1    1    1    2  502    0 -0.10167564363E+02 -0.47244736797E+02  0.30681734398E+02  0.57243456795E+02  0.00000000000E+00 0. -1.
         22    1    3    3    0    0 -0.51160561425E+02 -0.39442001365E+02 -0.33437619236E+02  0.72740283868E+02  0.00000000000E+00 0. -1.
         22    1    3    3    0    0  0.62651666932E+02  0.69930604803E+01 -0.89987754899E+01  0.63679763069E+02  0.00000000000E+00 0. -1.
</event>
<event>
 7    1  0.5028352E-006  0.8733594E+02  0.7818608E-02  0.1464860E+00
          2   -1    0    0  502    0  0.00000000000E+00  0.00000000000E+00  0.92967611536E+03  0.92967611536E+03  0.00000000000E+00 0. -1.
          1   -1    0    0  501    0 -0.00000000000E+00 -0.00000000000E+00 -0.63179719395E+03  0.63179719395E+03  0.00000000000E+00 0. -1.
         25    2    1    2    0    0 -0.73462153845E+02  0.84691709377E-01 -0.14844598074E+03  0.20749883221E+03  0.12499144350E+03 0.  0.
          2    1    1    2  501    0 -0.11248762803E+02 -0.22120770476E+02 -0.45135527163E+03  0.45203699448E+03  0.00000000000E+00 0. -1.
          1    1    1    2  502    0  0.84710916648E+02  0.22036078766E+02  0.89768017378E+03  0.90193748263E+03  0.00000000000E+00 0. -1.
         22    1    3    3    0    0 -0.62566422303E+02 -0.68426609597E+01 -0.46355494573E+01  0.63109963774E+02  0.00000000000E+00 0.  1.
         22    1    3    3    0    0 -0.10895731542E+02  0.69273526691E+01 -0.14381043129E+03  0.14438886843E+03  0.00000000000E+00 0.  1.
</event>
<event>
 7    1  0.4915160E-006  0.3743977E+02  0.7818608E-02  0.1628422E+00
          2   -1    0    0  502    0  0.00000000000E+00  0.00000000000E+00  0.25056571405E+03  0.25056571405E+03  0.00000000000E+00 0. -1.
          1   -1    0    0  501    0 -0.00000000000E+00 -0.00000000000E+00 -0.16061373012E+03  0.16061373012E+03  0.00000000000E+00 0. -1.
         25    2    1    2    0    0 -0.50292893819E+02  0.13351211934E+02  0.88877727101E+02  0.16196615789E+03  0.12500462351E+03 0.  0.
          2    1    1    2  501    0  0.19223385201E+02  0.58369070025E+01 -0.12055653232E+03  0.12221900632E+03  0.00000000000E+00 0. -1.
          1    1    1    2  502    0  0.31069508618E+02 -0.19188118936E+02  0.12163078915E+03  0.12699427996E+03  0.00000000000E+00 0. -1.
         22    1    3    3    0    0 -0.24019189198E+02 -0.55900430701E+02  0.33250446600E+02  0.69335213286E+02  0.00000000000E+00 0. -1.
         22    1    3    3    0    0 -0.26273704621E+02  0.69251642635E+02  0.55627280501E+02  0.92630944603E+02  0.00000000000E+00 0. -1.
</event>
<event>
 7    1  0.4915160E-006  0.4987671E+02  0.7818608E-02  0.1538007E+00
          2   -1    0    0  502    0  0.00000000000E+00  0.00000000000E+00  0.16174865431E+04  0.16174865431E+04  0.00000000000E+00 0. -1.
          1   -1    0    0  501    0 -0.00000000000E+00 -0.00000000000E+00 -0.17248324667E+03  0.17248324667E+03  0.00000000000E+00 0. -1.
         25    2    1    2    0    0 -0.27287821411E+02  0.47493900889E+02  0.32610592761E+03  0.35350488742E+03  0.12498133298E+03 0.  0.
          2    1    1    2  501    0  0.42546918104E+02 -0.26065800162E+02 -0.15472469127E+03  0.16257120368E+03  0.00000000000E+00 0. -1.
          1    1    1    2  502    0 -0.15259096694E+02 -0.21428100727E+02  0.12736220601E+04  0.12738936987E+04  0.00000000000E+00 0. -1.
         22    1    3    3    0    0 -0.12982235907E+02  0.85375954148E+02  0.15264121111E+03  0.17537654154E+03  0.00000000000E+00 0.  1.
         22    1    3    3    0    0 -0.14305585504E+02 -0.37882053259E+02  0.17346471650E+03  0.17812834588E+03  0.00000000000E+00 0.  1.
</event>
<event>
 7    1  0.4915160E-006  0.9329887E+02  0.7818608E-02  0.1411241E+00
          2   -1    0    0  502    0  0.00000000000E+00  0.00000000000E+00  0.69528246339E+03  0.69528246339E+03  0.00000000000E+00 0. -1.
          1   -1    0    0  501    0 -0.00000000000E+00 -0.00000000000E+00 -0.10725414755E+04  0.10725414755E+04  0.00000000000E+00 0. -1.
         25    2    1    2    0    0 -0.59811381672E+02  0.17535128169E+02 -0.19178436356E+03  0.23725779728E+03  0.12500055266E+03 0.  0.
          2    1    1    2  501    0  0.93452350983E+02 -0.26136959274E+02 -0.85482526582E+03  0.86031547564E+03  0.00000000000E+00 0. -1.
          1    1    1    2  502    0 -0.33640969311E+02  0.86018311058E+01  0.66935061730E+03  0.67025066594E+03  0.00000000000E+00 0. -1.
         22    1    3    3    0    0 -0.41017788417E+02 -0.48399996488E+02 -0.53817857067E+02  0.83194833769E+02  0.00000000000E+00 0. -1.
         22    1    3    3    0    0 -0.18793593255E+02  0.65935124657E+02 -0.13796650649E+03  0.15406296351E+03  0.00000000000E+00 0. -1.
</event>
<event>
 7    1  0.4915160E-006  0.1111307E+03  0.7818608E-02  0.1400105E+00
          2   -1    0    0  502    0  0.00000000000E+00  0.00000000000E+00  0.20808350376E+03  0.20808350376E+03  0.00000000000E+00 0. -1.
          1   -1    0    0  501    0 -0.00000000000E+00 -0.00000000000E+00 -0.77523906599E+03  0.77523906599E+03  0.00000000000E+00 0. -1.
         25    2    1    2    0    0 -0.62033801853E+02 -0.62826760324E+02  0.78927820329E+01  0.15322969985E+03  0.12498660138E+03 0.  0.
          2    1    1    2  501    0 -0.23993891781E+02 -0.20893191495E+02 -0.67386232635E+03  0.67461297583E+03  0.00000000000E+00 0. -1.
          1    1    1    2  502    0  0.86027693634E+02  0.83719951819E+02  0.98813982077E+02  0.15547989406E+03  0.00000000000E+00 0. -1.
         22    1    3    3    0    0 -0.79064280162E+02 -0.80156009346E+02  0.33956372351E+02  0.11759754017E+03  0.00000000000E+00 0.  1.
         22    1    3    3    0    0  0.17030478309E+02  0.17329249021E+02 -0.26063590318E+02  0.35632159679E+02  0.00000000000E+00 0.  1.
</event>
<event>
 7    1  0.4915160E-006  0.8085789E+02  0.7818608E-02  0.1371607E+00
          2   -1    0    0  502    0  0.00000000000E+00  0.00000000000E+00  0.37710443153E+03  0.37710443153E+03  0.00000000000E+00 0. -1.
          1   -1    0    0  501    0 -0.00000000000E+00 -0.00000000000E+00 -0.21097627161E+03  0.21097627161E+03  0.00000000000E+00 0. -1.
         25    2    1    2    0    0 -0.53166423590E+02 -0.74212392180E+02  0.79892506566E+02  0.17417235340E+03  0.12497619106E+03 0.  0.
          2    1    1    2  501    0 -0.14274375861E+01  0.81349146037E+02 -0.15037579336E+03  0.17097543791E+03  0.00000000000E+00 0. -1.
          1    1    1    2  502    0  0.54593861176E+02 -0.71367538568E+01  0.23661144672E+03  0.24293291184E+03  0.00000000000E+00 0. -1.
         22    1    3    3    0    0  0.29310832790E+01 -0.85213369781E+02  0.13112678775E+02  0.86266169402E+02  0.00000000000E+00 0. -1.
         22    1    3    3    0    0 -0.56097506869E+02  0.11000977600E+02  0.66779827791E+02  0.87906183996E+02  0.00000000000E+00 0. -1.
</event>
<event>
 7    1  0.4915160E-006  0.1359351E+03  0.7818608E-02  0.1364443E+00
          2   -1    0    0  502    0  0.00000000000E+00  0.00000000000E+00  0.13890414771E+04  0.13890414771E+04  0.00000000000E+00 0. -1.
          1   -1    0    0  501    0 -0.00000000000E+00 -0.00000000000E+00 -0.16043539091E+04  0.16043539091E+04  0.00000000000E+00 0. -1.
         25    2    1    2    0    0  0.91721017668E+02 -0.13424873383E+03  0.99265506563E+01  0.20532443058E+03  0.12499647102E+03 0.  0.
          2    1    1    2  501    0 -0.44186240297E+00  0.34754167864E+02 -0.15028966672E+04  0.15032985198E+04  0.00000000000E+00 0. -1.
          1    1    1    2  502    0 -0.91279155265E+02  0.99494565966E+02  0.12776576846E+04  0.12847724358E+04  0.00000000000E+00 0. -1.
         22    1    3    3    0    0  0.12183071231E+02 -0.41106094694E+02  0.59376077140E+02  0.73236990531E+02  0.00000000000E+00 0.  1.
         22    1    3    3    0    0  0.79537946437E+02 -0.93142639137E+02 -0.49449526483E+02  0.13208744005E+03  0.00000000000E+00 0.  1.
</event>
<event>
 7    1  0.4915160E-006  0.4612441E+02  0.7818608E-02  0.1526717E+00
          2   -1    0    0  502    0  0.00000000000E+00  0.00000000000E+00  0.12612881857E+04  0.12612881857E+04  0.00000000000E+00 0. -1.
          1   -1    0    0  501    0 -0.00000000000E+00 -0.00000000000E+00 -0.33217062954E+03  0.33217062954E+03  0.00000000000E+00 0. -1.
         25    2    1    2    0    0 -0.27547003069E+02 -0.29079708825E+02  0.23895660758E+02  0.13341869955E+03  0.12500031977E+03 0.  0.
          2    1    1    2  501    0  0.23101992886E+01  0.46452263517E+02 -0.27525952733E+03  0.27916116706E+03  0.00000000000E+00 0. -1.
          1    1    1    2  502    0  0.25236803780E+02 -0.17372554692E+02  0.11804814227E+04  0.11808789486E+04  0.00000000000E+00 0. -1.
         22    1    3    3    0    0  0.14405552726E+02 -0.72615650039E+01  0.67315215066E+02  0.69221300587E+02  0.00000000000E+00 0. -1.
         22    1    3    3    0    0 -0.41952555795E+02 -0.21818143821E+02 -0.43419554308E+02  0.64197398964E+02  0.00000000000E+00 0. -1.
</event>
<event>
 7    1  0.4915160E-006  0.1066544E+03  0.7818608E-02  0.1292738E+00
          2   -1    0    0  502    0  0.00000000000E+00  0.00000000000E+00  0.12423525780E+04  0.12423525780E+04  0.00000000000E+00 0. -1.
          1   -1    0    0  501    0 -0.00000000000E+00 -0.00000000000E+00 -0.58206816169E+03  0.58206816169E+03  0.00000000000E+00 0. -1.
         25    2    1    2    0    0 -0.10451581477E+03  0.43156776031E+02  0.56231499508E+02  0.17768704804E+03  0.12499857059E+03 0.  0.
          2    1    1    2  501    0  0.10007726046E+03  0.40119201001E+02 -0.51419652088E+03  0.52537897792E+03  0.00000000000E+00 0. -1.
          1    1    1    2  502    0  0.44385543148E+01 -0.83275977032E+02  0.11182494377E+04  0.11213547137E+04  0.00000000000E+00 0. -1.
         22    1    3    3    0    0 -0.55549527583E+02 -0.20057401103E+02  0.75089473841E+02  0.95532604044E+02  0.00000000000E+00 0. -1.
         22    1    3    3    0    0 -0.48966287189E+02  0.63214177134E+02 -0.18857974334E+02  0.82154443992E+02  0.00000000000E+00 0. -1.
</event>
<event>
 7    1  0.4915160E-006  0.1008501E+03  0.7818608E-02  0.1355069E+00
          2   -1    0    0  502    0  0.00000000000E+00  0.00000000000E+00  0.80166295004E+03  0.80166295004E+03  0.00000000000E+00 0. -1.
          1   -1    0    0  501    0 -0.00000000000E+00 -0.00000000000E+00 -0.34833918844E+03  0.34833918844E+03  0.00000000000E+00 0. -1.
         25    2    1    2    0    0 -0.10678001376E+02 -0.57239881976E+02  0.10217119583E+03  0.17162648998E+03  0.12500509991E+03 0.  0.
          2    1    1    2  501    0  0.13171743164E+02 -0.48948891943E+02 -0.30727879773E+03  0.31143177162E+03  0.00000000000E+00 0. -1.
          1    1    1    2  502    0 -0.24937417883E+01  0.10618877392E+03  0.65843136350E+03  0.66694387687E+03  0.00000000000E+00 0. -1.
         22    1    3    3    0    0  0.13172514583E+01 -0.84111169958E+02  0.23068007182E+02  0.87227042931E+02  0.00000000000E+00 0.  1.
         22    1    3    3    0    0 -0.11995252834E+02  0.26871287982E+02  0.79103188650E+02  0.84399447054E+02  0.00000000000E+00 0.  1.
</event>
<event>
 7    1  0.4915160E-006  0.7339886E+02  0.7818608E-02  0.1493512E+00
          2   -1    0    0  502    0  0.00000000000E+00  0.00000000000E+00  0.26178427500E+03  0.26178427500E+03  0.00000000000E+00 0. -1.
          1   -1    0    0  501    0 -0.00000000000E+00 -0.00000000000E+00 -0.30799453333E+03  0.30799453333E+03  0.00000000000E+00 0. -1.
         25    2    1    2    0    0 -0.86763845973E+02 -0.59494289432E+01  0.75281725163E+01  0.15246284437E+03  0.12499953944E+03 0.  0.
          2    1    1    2  501    0  0.69088423879E+02  0.22350658870E+02 -0.22908568257E+03  0.24031856404E+03  0.00000000000E+00 0. -1.
          1    1    1    2  502    0  0.17675422095E+02 -0.16401229926E+02  0.17534725172E+03  0.17699739991E+03  0.00000000000E+00 0. -1.
         22    1    3    3    0    0 -0.95228928230E+02  0.37113023286E+02  0.25012789464E+02  0.10522150401E+03  0.00000000000E+00 0. -1.
         22    1    3    3    0    0  0.84650822569E+01 -0.43062452230E+02 -0.17484616947E+02  0.47241340364E+02  0.00000000000E+00 0. -1.
</event>
<event>
 7    1  0.4915160E-006  0.9178543E+02  0.7818608E-02  0.1409342E+00
          2   -1    0    0  502    0  0.00000000000E+00  0.00000000000E+00  0.59898467378E+03  0.59898467378E+03  0.00000000000E+00 0. -1.
          1   -1    0    0  501    0 -0.00000000000E+00 -0.00000000000E+00 -0.17352376957E+04  0.17352376957E+04  0.00000000000E+00 0. -1.
         25    2    1    2    0    0 -0.11771113565E+03  0.37258725018E+02 -0.12356707075E+04  0.12481010862E+04  0.12502039824E+03 0.  0.
          2    1    1    2  501    0  0.27052859923E+02 -0.23481776221E+02 -0.48914651744E+03  0.49045648795E+03  0.00000000000E+00 0. -1.
          1    1    1    2  502    0  0.90658275726E+02 -0.13776948797E+02  0.58856420304E+03  0.59566479531E+03  0.00000000000E+00 0. -1.
         22    1    3    3    0    0 -0.10008321776E+03  0.39269533968E+02 -0.12190761538E+04  0.12238077527E+04  0.00000000000E+00 0. -1.
         22    1    3    3    0    0 -0.17627917886E+02 -0.20108089504E+01 -0.16594553738E+02  0.24293333559E+02  0.00000000000E+00 0. -1.
</event>
<event>
 7    1  0.4915160E-006  0.1058064E+03  0.7818608E-02  0.1367609E+00
          2   -1    0    0  502    0  0.00000000000E+00  0.00000000000E+00  0.16500693185E+03  0.16500693185E+03  0.00000000000E+00 0. -1.
          1   -1    0    0  501    0 -0.00000000000E+00 -0.00000000000E+00 -0.13250868343E+04  0.13250868343E+04  0.00000000000E+00 0. -1.
         25    2    1    2    0    0  0.75852669898E+02 -0.68065851789E+02  0.11811353832E+02  0.16170937377E+03  0.12499530301E+03 0.  0.
          2    1    1    2  501    0  0.29024209905E+02  0.32391125959E+02 -0.12103416378E+04  0.12111228138E+04  0.00000000000E+00 0. -1.
          1    1    1    2  502    0 -0.10487687980E+03  0.35674725830E+02  0.38450381524E+02  0.11726157862E+03  0.00000000000E+00 0. -1.
         22    1    3    3    0    0 -0.21793264876E+02 -0.47722715953E+01  0.36477402564E+02  0.42758880574E+02  0.00000000000E+00 0. -1.
         22    1    3    3    0    0  0.97645934775E+02 -0.63293580194E+02 -0.24666048732E+02  0.11895049320E+03  0.00000000000E+00 0. -1.
</event>
<event>
 7    1  0.4915160E-006  0.1037391E+03  0.7818608E-02  0.1310247E+00
          2   -1    0    0  502    0  0.00000000000E+00  0.00000000000E+00  0.21270149485E+04  0.21270149485E+04  0.00000000000E+00 0. -1.
          1   -1    0    0  501    0 -0.00000000000E+00 -0.00000000000E+00 -0.13854889082E+04  0.13854889082E+04  0.00000000000E+00 0. -1.
         25    2    1    2    0    0  0.56679194675E+02  0.26408526998E+02  0.11584982526E+03  0.18153877679E+03  0.12500081623E+03 0.  0.
          2    1    1    2  501    0 -0.38631358539E+02 -0.97128399830E+02 -0.13499501280E+04  0.13539910103E+04  0.00000000000E+00 0. -1.
          1    1    1    2  502    0 -0.18047836136E+02  0.70719872831E+02  0.19756263430E+04  0.19769740696E+04  0.00000000000E+00 0. -1.
         22    1    3    3    0    0  0.54023660982E+02 -0.37241316858E+02  0.24228046386E+02  0.69946192598E+02  0.00000000000E+00 0. -1.
         22    1    3    3    0    0  0.26555336933E+01  0.63649843856E+02  0.91621778876E+02  0.11159258419E+03  0.00000000000E+00 0. -1.
</event>
<event>
 7    1  0.4915160E-006  0.1526037E+03  0.7818608E-02  0.1337653E+00
          2   -1    0    0  502    0  0.00000000000E+00  0.00000000000E+00  0.29949319968E+03  0.29949319968E+03  0.00000000000E+00 0. -1.
          1   -1    0    0  501    0 -0.00000000000E+00 -0.00000000000E+00 -0.27350928841E+03  0.27350928841E+03  0.00000000000E+00 0. -1.
         25    2    1    2    0    0  0.99384643668E+02  0.85974217104E+02 -0.90381928674E+02  0.20263858666E+03  0.12499852147E+03 0.  0.
          2    1    1    2  501    0 -0.43393448244E+01  0.38654964711E+02 -0.97638797139E+02  0.10510171700E+03  0.00000000000E+00 0. -1.
          1    1    1    2  502    0 -0.95045298843E+02 -0.12462918182E+03  0.21400463708E+03  0.26526218442E+03  0.00000000000E+00 0. -1.
         22    1    3    3    0    0  0.19834457168E+02 -0.24072088523E+02 -0.53503962669E+02  0.61931778259E+02  0.00000000000E+00 0. -1.
         22    1    3    3    0    0  0.79550186500E+02  0.11004630563E+03 -0.36877966004E+02  0.14070680840E+03  0.00000000000E+00 0. -1.
</event>
<event>
 7    1  0.4915160E-006  0.1133842E+03  0.7818608E-02  0.1342445E+00
          2   -1    0    0  502    0  0.00000000000E+00  0.00000000000E+00  0.40214220678E+03  0.40214220678E+03  0.00000000000E+00 0. -1.
          1   -1    0    0  501    0 -0.00000000000E+00 -0.00000000000E+00 -0.74505914528E+03  0.74505914528E+03  0.00000000000E+00 0. -1.
         25    2    1    2    0    0 -0.21297865773E+02 -0.73843386017E+02 -0.22566116506E+03  0.26917319948E+03  0.12499922063E+03 0.  0.
          2    1    1    2  501    0  0.37232080474E+02  0.12147220867E+03 -0.48781113035E+03  0.50408473910E+03  0.00000000000E+00 0. -1.
          1    1    1    2  502    0 -0.15934214700E+02 -0.47628822653E+02  0.37055535692E+03  0.37394341348E+03  0.00000000000E+00 0. -1.
         22    1    3    3    0    0 -0.54908391956E+02 -0.86883271808E+02 -0.20018660362E+03  0.22502957738E+03  0.00000000000E+00 0.  1.
         22    1    3    3    0    0  0.33610526183E+02  0.13039885791E+02 -0.25474561436E+02  0.44143622099E+02  0.00000000000E+00 0.  1.
</event>
<event>
 7    1  0.4915160E-006  0.7790292E+02  0.7818608E-02  0.1395175E+00
          2   -1    0    0  502    0  0.00000000000E+00  0.00000000000E+00  0.51628029596E+03  0.51628029596E+03  0.00000000000E+00 0. -1.
          1   -1    0    0  501    0 -0.00000000000E+00 -0.00000000000E+00 -0.92990122339E+02  0.92990122339E+02  0.00000000000E+00 0. -1.
         25    2    1    2    0    0 -0.11946674345E+02 -0.42801633128E+02  0.17431051970E+03  0.21905474670E+03  0.12500448771E+03 0.  0.
          2    1    1    2  501    0 -0.15465260148E+02  0.81224372403E+02 -0.43860290928E+02  0.93596463950E+02  0.00000000000E+00 0. -1.
          1    1    1    2  502    0  0.27411934493E+02 -0.38422739275E+02  0.29283994485E+03  0.29661920765E+03  0.00000000000E+00 0. -1.
         22    1    3    3    0    0 -0.13884326288E+02  0.43844626988E+02  0.59175160267E+02  0.74945483018E+02  0.00000000000E+00 0. -1.
         22    1    3    3    0    0  0.19376519432E+01 -0.86646260116E+02  0.11513535943E+03  0.14410926368E+03  0.00000000000E+00 0. -1.
</event>
<event>
 7    1  0.4915160E-006  0.1355811E+03  0.7818608E-02  0.1226463E+00
          2   -1    0    0  502    0  0.00000000000E+00  0.00000000000E+00  0.95570609083E+03  0.95570609083E+03  0.00000000000E+00 0. -1.
          1   -1    0    0  501    0 -0.00000000000E+00 -0.00000000000E+00 -0.13497567493E+04  0.13497567493E+04  0.00000000000E+00 0. -1.
         25    2    1    2    0    0  0.16911230766E+03 -0.90683516097E+02 -0.27621126416E+03  0.35880395036E+03  0.12500055861E+03 0.  0.
          2    1    1    2  501    0 -0.13073890694E+03 -0.29267281085E+02 -0.10235264703E+04  0.10322575603E+04  0.00000000000E+00 0. -1.
          1    1    1    2  502    0 -0.38373400714E+02  0.11995079718E+03  0.90568707598E+03  0.91440132941E+03  0.00000000000E+00 0. -1.
         22    1    3    3    0    0  0.10456213789E+03 -0.64594522433E+02 -0.25960352152E+03  0.28722757770E+03  0.00000000000E+00 0. -1.
         22    1    3    3    0    0  0.64550169772E+02 -0.26088993665E+02 -0.16607742645E+02  0.71576372664E+02  0.00000000000E+00 0. -1.
</event>
<event>
 7    1  0.4915160E-006  0.1208640E+03  0.7818608E-02  0.1345940E+00
          2   -1    0    0  502    0  0.00000000000E+00  0.00000000000E+00  0.10515413846E+04  0.10515413846E+04  0.00000000000E+00 0. -1.
          1   -1    0    0  501    0 -0.00000000000E+00 -0.00000000000E+00 -0.14084564232E+03  0.14084564232E+03  0.00000000000E+00 0. -1.
         25    2    1    2    0    0  0.27215157815E+02 -0.14704411722E+03  0.15934360662E+03  0.25174911625E+03  0.12499838135E+03 0.  0.
          2    1    1    2  501    0  0.65862411724E+01  0.11625913466E+03 -0.57934136662E+02  0.13006125155E+03  0.00000000000E+00 0. -1.
          1    1    1    2  502    0 -0.33801398988E+02  0.30784982563E+02  0.80928627232E+03  0.81057665911E+03  0.00000000000E+00 0. -1.
         22    1    3    3    0    0  0.14273224234E+02 -0.16484942517E+03  0.15937418987E+03  0.22973722011E+03  0.00000000000E+00 0. -1.
         22    1    3    3    0    0  0.12941933581E+02  0.17805307954E+02 -0.30583251016E-01  0.22011896136E+02  0.00000000000E+00 0. -1.
</event>
<event>
 7    1  0.4915160E-006  0.1445927E+03  0.7818608E-02  0.1245601E+00
          2   -1    0    0  502    0  0.00000000000E+00  0.00000000000E+00  0.95121497713E+03  0.95121497713E+03  0.00000000000E+00 0. -1.
          1   -1    0    0  501    0 -0.00000000000E+00 -0.00000000000E+00 -0.20021295932E+04  0.20021295932E+04  0.00000000000E+00 0. -1.
         25    2    1    2    0    0  0.15797635571E+03  0.91126102154E+02 -0.75392334878E+02  0.23360154025E+03  0.12500071997E+03 0.  0.
          2    1    1    2  501    0 -0.14410592028E+03  0.49856227837E+01 -0.18421033438E+04  0.18477381042E+04  0.00000000000E+00 0. -1.
          1    1    1    2  502    0 -0.13870435430E+02 -0.96111724937E+02  0.86658106259E+03  0.87200492584E+03  0.00000000000E+00 0. -1.
         22    1    3    3    0    0  0.82601548215E+02  0.12584153583E+02 -0.91100938097E+02  0.12361536155E+03  0.00000000000E+00 0.  1.
         22    1    3    3    0    0  0.75374807492E+02  0.78541948571E+02  0.15708603219E+02  0.10998617870E+03  0.00000000000E+00 0.  1.
</event>
<event>
 7    1  0.4915160E-006  0.8717230E+02  0.7818608E-02  0.1385824E+00
          2   -1    0    0  502    0  0.00000000000E+00  0.00000000000E+00  0.60139955290E+03  0.60139955290E+03  0.00000000000E+00 0. -1.
          1   -1    0    0  501    0 -0.00000000000E+00 -0.00000000000E+00 -0.25121672784E+03  0.25121672784E+03  0.00000000000E+00 0. -1.
         25    2    1    2    0    0  0.11861058419E+03 -0.38260181589E+02 -0.67187578165E+02  0.18886891307E+03  0.12499993395E+03 0.  0.
          2    1    1    2  501    0 -0.76172321478E+02  0.21938377588E+02 -0.10935501893E+03  0.13506307836E+03  0.00000000000E+00 0. -1.
          1    1    1    2  502    0 -0.42438262714E+02  0.16321804001E+02  0.52672542215E+03  0.52868428931E+03  0.00000000000E+00 0. -1.
         22    1    3    3    0    0  0.11975183837E+03 -0.61499643338E+02 -0.85311069316E+02  0.15937593128E+03  0.00000000000E+00 0. -1.
         22    1    3    3    0    0 -0.11412541740E+01  0.23239461750E+02  0.18123491151E+02  0.29492981792E+02  0.00000000000E+00 0. -1.
</event>
<event>
 7    1  0.4915160E-006  0.8441645E+02  0.7818608E-02  0.1324475E+00
          2   -1    0    0  502    0  0.00000000000E+00  0.00000000000E+00  0.21074651480E+04  0.21074651480E+04  0.00000000000E+00 0. -1.
          1   -1    0    0  501    0 -0.00000000000E+00 -0.00000000000E+00 -0.74835309203E+03  0.74835309203E+03  0.00000000000E+00 0. -1.
         25    2    1    2    0    0  0.13114502067E+03  0.81141251338E+02  0.16103991377E+02  0.19916504197E+03  0.12499782514E+03 0.  0.
          2    1    1    2  501    0 -0.77071292612E+02 -0.17098638233E+02 -0.65356793204E+03  0.65831860779E+03  0.00000000000E+00 0. -1.
          1    1    1    2  502    0 -0.54073728053E+02 -0.64042613105E+02  0.19965759967E+04  0.19983345903E+04  0.00000000000E+00 0. -1.
         22    1    3    3    0    0  0.55893795732E+02  0.95137184431E+02  0.42436547735E+02  0.11822039099E+03  0.00000000000E+00 0.  1.
         22    1    3    3    0    0  0.75251224933E+02 -0.13995933093E+02 -0.26332556358E+02  0.80944650975E+02  0.00000000000E+00 0.  1.
</event>
<event>
 7    1  0.4915160E-006  0.3932020E+02  0.7818608E-02  0.1540518E+00
          2   -1    0    0  502    0  0.00000000000E+00  0.00000000000E+00  0.14462562134E+04  0.14462562134E+04  0.00000000000E+00 0. -1.
          1   -1    0    0  501    0 -0.00000000000E+00 -0.00000000000E+00 -0.92641511365E+03  0.92641511365E+03  0.00000000000E+00 0. -1.
         25    2    1    2    0    0  0.16802472722E+02 -0.43503299663E+02  0.25399019190E+03  0.28689877405E+03  0.12500011518E+03 0.  0.
          2    1    1    2  501    0  0.18924673438E+02  0.26822742921E+02 -0.90933402173E+03  0.90992635190E+03  0.00000000000E+00 0. -1.
          1    1    1    2  502    0 -0.35727146160E+02  0.16680556742E+02  0.11751849296E+04  0.11758462011E+04  0.00000000000E+00 0. -1.
         22    1    3    3    0    0  0.15280795817E+01  0.93528700954E+01 -0.11992674733E+02  0.15285138321E+02  0.00000000000E+00 0. -1.
         22    1    3    3    0    0  0.15274393141E+02 -0.52856169758E+02  0.26598286664E+03  0.27161363573E+03  0.00000000000E+00 0. -1.
</event>
<event>
 7    1  0.4915160E-006  0.7559128E+02  0.7818608E-02  0.1378552E+00
          2   -1    0    0  502    0  0.00000000000E+00  0.00000000000E+00  0.14516176528E+04  0.14516176528E+04  0.00000000000E+00 0. -1.
          1   -1    0    0  501    0 -0.00000000000E+00 -0.00000000000E+00 -0.23555452418E+03  0.23555452418E+03  0.00000000000E+00 0. -1.
         25    2    1    2    0    0  0.12150134836E+03 -0.16743228268E+02  0.52532063496E+03  0.55374010676E+03  0.12499369177E+03 0.  0.
          2    1    1    2  501    0 -0.50560496468E+02  0.23197198921E+02 -0.21643129742E+03  0.22346583708E+03  0.00000000000E+00 0. -1.
          1    1    1    2  502    0 -0.70940851896E+02 -0.64539706527E+01  0.90717379111E+03  0.90996623316E+03  0.00000000000E+00 0. -1.
         22    1    3    3    0    0  0.85807108928E+02 -0.16360330584E+00  0.12575369249E+03  0.15223954113E+03  0.00000000000E+00 0.  1.
         22    1    3    3    0    0  0.35694239436E+02 -0.16579624963E+02  0.39956694247E+03  0.40150056564E+03  0.00000000000E+00 0.  1.
</event>
<event>
 7    1  0.4915160E-006  0.9288721E+02  0.7818608E-02  0.1313038E+00
          2   -1    0    0  502    0  0.00000000000E+00  0.00000000000E+00  0.25128512187E+04  0.25128512187E+04  0.00000000000E+00 0. -1.
          1   -1    0    0  501    0 -0.00000000000E+00 -0.00000000000E+00 -0.29029484707E+03  0.29029484707E+03  0.00000000000E+00 0. -1.
         25    2    1    2    0    0  0.93622987458E+02 -0.47141535432E+02  0.27204164182E+03  0.31720556825E+03  0.12500051802E+03 0.  0.
          2    1    1    2  501    0 -0.66999642821E+02 -0.42756226382E+02 -0.26079847251E+03  0.27264058813E+03  0.00000000000E+00 0. -1.
          1    1    1    2  502    0 -0.26623344637E+02  0.89897761814E+02  0.22113132023E+04  0.22132999093E+04  0.00000000000E+00 0. -1.
         22    1    3    3    0    0  0.44553573900E+02  0.28564646777E+02  0.34673864933E+02  0.63271137986E+02  0.00000000000E+00 0. -1.
         22    1    3    3    0    0  0.49069413559E+02 -0.75706182209E+02  0.23736777688E+03  0.25393443027E+03  0.00000000000E+00 0. -1.
</event>
<event>
 7    1  0.4915160E-006  0.5416394E+02  0.7818608E-02  0.1519200E+00
          2   -1    0    0  502    0  0.00000000000E+00  0.00000000000E+00  0.54032537774E+02  0.54032537774E+02  0.00000000000E+00 0. -1.
          1   -1    0    0  501    0 -0.00000000000E+00 -0.00000000000E+00 -0.88595044624E+03  0.88595044624E+03  0.00000000000E+00 0. -1.
         25    2    1    2    0    0 -0.11257151125E+02 -0.73954872259E+02 -0.61210803537E+03  0.62920383766E+03  0.12500070312E+03 0.  0.
          2    1    1    2  501    0 -0.11047711670E+02  0.25106793746E+02 -0.24842259985E+03  0.24993237313E+03  0.00000000000E+00 0. -1.
          1    1    1    2  502    0  0.22304862795E+02  0.48848078514E+02  0.28612726753E+02  0.60846773218E+02  0.00000000000E+00 0. -1.
         22    1    3    3    0    0  0.33566623095E+02 -0.66035891813E+02 -0.53145518442E+03  0.53659302105E+03  0.00000000000E+00 0.  1.
         22    1    3    3    0    0 -0.44823774220E+02 -0.79189804468E+01 -0.80652850944E+02  0.92610816604E+02  0.00000000000E+00 0.  1.
</event>
<event>
 7    1  0.4915160E-006  0.4285123E+02  0.7818608E-02  0.1512367E+00
          2   -1    0    0  502    0  0.00000000000E+00  0.00000000000E+00  0.11379493977E+04  0.11379493977E+04  0.00000000000E+00 0. -1.
          1   -1    0    0  501    0 -0.00000000000E+00 -0.00000000000E+00 -0.46694637372E+03  0.46694637372E+03  0.00000000000E+00 0. -1.
         25    2    1    2    0    0 -0.15219153436E+02  0.56054527851E+02  0.12888651356E+03  0.18870710975E+03  0.12499962868E+03 0.  0.
          2    1    1    2  501    0 -0.16994363308E+02 -0.39318050708E+02 -0.43564891229E+03  0.43774957712E+03  0.00000000000E+00 0. -1.
          1    1    1    2  502    0  0.32213516745E+02 -0.16736477143E+02  0.97776542272E+03  0.97843908456E+03  0.00000000000E+00 0. -1.
         22    1    3    3    0    0  0.41867823875E+02  0.56468269615E+02  0.10602344043E+03  0.12721065235E+03  0.00000000000E+00 0.  1.
         22    1    3    3    0    0 -0.57086977311E+02 -0.41374176325E+00  0.22863073131E+02  0.61496457408E+02  0.00000000000E+00 0.  1.
</event>
<event>
 7    1  0.4915160E-006  0.1731837E+03  0.7818608E-02  0.1339802E+00
          2   -1    0    0  502    0  0.00000000000E+00  0.00000000000E+00  0.18244156410E+04  0.18244156410E+04  0.00000000000E+00 0. -1.
          1   -1    0    0  501    0 -0.00000000000E+00 -0.00000000000E+00 -0.61571325730E+03  0.61571325730E+03  0.00000000000E+00 0. -1.
         25    2    1    2    0    0  0.14182674930E+03 -0.14929986796E+03  0.10098040175E+04  0.10381407252E+04  0.12500693660E+03 0.  0.
          2    1    1    2  501    0 -0.12280147422E+03  0.12155424917E+03 -0.58877053760E+03  0.61360115996E+03  0.00000000000E+00 0. -1.
          1    1    1    2  502    0 -0.19025275077E+02  0.27745618795E+02  0.78766890388E+03  0.78838701321E+03  0.00000000000E+00 0. -1.
         22    1    3    3    0    0  0.10890257857E+03 -0.96841428983E+02  0.40966363104E+03  0.43481297656E+03  0.00000000000E+00 0. -1.
         22    1    3    3    0    0  0.32924170727E+02 -0.52458438977E+02  0.60014038641E+03  0.60332774861E+03  0.00000000000E+00 0. -1.
</event>
<event>
 7    1  0.4915160E-006  0.1037877E+03  0.7818608E-02  0.1430894E+00
          2   -1    0    0  502    0  0.00000000000E+00  0.00000000000E+00  0.11376440232E+04  0.11376440232E+04  0.00000000000E+00 0. -1.
          1   -1    0    0  501    0 -0.00000000000E+00 -0.00000000000E+00 -0.17310471161E+03  0.17310471161E+03  0.00000000000E+00 0. -1.
         25    2    1    2    0    0 -0.42463417976E+02  0.74567908793E+02 -0.94940781031E+02  0.17889527386E+03  0.12500500878E+03 0.  0.
          2    1    1    2  501    0  0.10699182010E+02  0.24617142093E+02 -0.28354823860E+02  0.39044490221E+02  0.00000000000E+00 0. -1.
          1    1    1    2  502    0  0.31764235966E+02 -0.99185050886E+02  0.10878349164E+04  0.10928089707E+04  0.00000000000E+00 0. -1.
         22    1    3    3    0    0 -0.82041042272E+02  0.64512372155E+02 -0.89903745810E+02  0.13775072518E+03  0.00000000000E+00 0.  1.
         22    1    3    3    0    0  0.39577624296E+02  0.10055536638E+02 -0.50370352213E+01  0.41144548677E+02  0.00000000000E+00 0.  1.
</event>
<event>
 7    1  0.4915160E-006  0.8663462E+02  0.7818608E-02  0.1329030E+00
          2   -1    0    0  502    0  0.00000000000E+00  0.00000000000E+00  0.55138557658E+03  0.55138557658E+03  0.00000000000E+00 0. -1.
          1   -1    0    0  501    0 -0.00000000000E+00 -0.00000000000E+00 -0.66954267260E+02  0.66954267260E+02  0.00000000000E+00 0. -1.
         25    2    1    2    0    0  0.71616413578E+02 -0.43676567310E+02  0.10072084381E+03  0.18112437086E+03  0.12499918446E+03 0.  0.
          2    1    1    2  501    0 -0.57609938389E+02 -0.46265053064E+02  0.45056560128E+02  0.86541630137E+02  0.00000000000E+00 0. -1.
          1    1    1    2  502    0 -0.14006475189E+02  0.89941620374E+02  0.33865390538E+03  0.35067384284E+03  0.00000000000E+00 0. -1.
         22    1    3    3    0    0 -0.30095297532E+02 -0.15974096077E+02 -0.17419576283E+01  0.34116463700E+02  0.00000000000E+00 0. -1.
         22    1    3    3    0    0  0.10171171111E+03 -0.27702471233E+02  0.10246280144E+03  0.14700790716E+03  0.00000000000E+00 0. -1.
</event>
<event>
 7    1  0.4915160E-006  0.1731375E+03  0.7818608E-02  0.1201384E+00
          2   -1    0    0  502    0  0.00000000000E+00  0.00000000000E+00  0.21914086941E+03  0.21914086941E+03  0.00000000000E+00 0. -1.
          1   -1    0    0  501    0 -0.00000000000E+00 -0.00000000000E+00 -0.13926127860E+04  0.13926127860E+04  0.00000000000E+00 0. -1.
         25    2    1    2    0    0 -0.75068647963E+01 -0.11031369189E+03 -0.36973715292E+03  0.40565551519E+03  0.12500148445E+03 0.  0.
          2    1    1    2  501    0  0.12508256915E+03 -0.30200745305E+02 -0.95798941971E+03  0.96659270760E+03  0.00000000000E+00 0. -1.
          1    1    1    2  502    0 -0.11757570435E+03  0.14051443720E+03  0.15425465608E+03  0.23950543258E+03  0.00000000000E+00 0. -1.
         22    1    3    3    0    0 -0.57083982861E+02 -0.18129225381E+02 -0.10347809126E+03  0.11956155436E+03  0.00000000000E+00 0.  1.
         22    1    3    3    0    0  0.49577118064E+02 -0.92184466510E+02 -0.26625906166E+03  0.28609396082E+03  0.00000000000E+00 0.  1.
</event>
<event>
 7    1  0.4915160E-006  0.2117432E+03  0.7818608E-02  0.1363458E+00
          2   -1    0    0  502    0  0.00000000000E+00  0.00000000000E+00  0.97160888348E+03  0.97160888348E+03  0.00000000000E+00 0. -1.
          1   -1    0    0  501    0 -0.00000000000E+00 -0.00000000000E+00 -0.69596274469E+03  0.69596274469E+03  0.00000000000E+00 0. -1.
         25    2    1    2    0    0 -0.79020033051E+01  0.21471062767E+03  0.72407004065E+03  0.76555207804E+03  0.12501785920E+03 0.  0.
          2    1    1    2  501    0  0.20323105069E+02 -0.96497264463E+01 -0.62845722803E+03  0.62885978825E+03  0.00000000000E+00 0. -1.
          1    1    1    2  502    0 -0.12421101764E+02 -0.20506090123E+03  0.18003332616E+03  0.27315976188E+03  0.00000000000E+00 0. -1.
         22    1    3    3    0    0 -0.66755073635E+01  0.54508969235E+02  0.40307555883E+03  0.40679933168E+03  0.00000000000E+00 0. -1.
         22    1    3    3    0    0 -0.12264959417E+01  0.16020165844E+03  0.32099448182E+03  0.35875274636E+03  0.00000000000E+00 0. -1.
</event>
<event>
 7    1  0.4915160E-006  0.1484206E+03  0.7818608E-02  0.1319842E+00
          2   -1    0    0  502    0  0.00000000000E+00  0.00000000000E+00  0.33589105105E+04  0.33589105105E+04  0.00000000000E+00 0. -1.
          1   -1    0    0  501    0 -0.00000000000E+00 -0.00000000000E+00 -0.46700014338E+02  0.46700014338E+02  0.00000000000E+00 0. -1.
         25    2    1    2    0    0 -0.15521597622E+03 -0.42288654805E+02  0.92134462838E+03  0.94360056509E+03  0.12500309033E+03 0.  0.
          2    1    1    2  501    0  0.30456237764E+02 -0.35523244987E+02 -0.16906268209E+02  0.49752439718E+02  0.00000000000E+00 0. -1.
          1    1    1    2  502    0  0.12475973845E+03  0.77811899792E+02  0.24077721360E+04  0.24122575200E+04  0.00000000000E+00 0. -1.
         22    1    3    3    0    0  0.13021464058E+02  0.73712656357E+01  0.18116854642E+02  0.23497116959E+02  0.00000000000E+00 0.  1.
         22    1    3    3    0    0 -0.16823744027E+03 -0.49659920441E+02  0.90322777374E+03  0.92010344813E+03  0.00000000000E+00 0.  1.
</event>
<event>
 7    1  0.4915160E-006  0.1057782E+03  0.7818608E-02  0.1338515E+00
          2   -1    0    0  502    0  0.00000000000E+00  0.00000000000E+00  0.14911181760E+04  0.14911181760E+04  0.00000000000E+00 0. -1.
          1   -1    0    0  501    0 -0.00000000000E+00 -0.00000000000E+00 -0.70801642547E+02  0.70801642547E+02  0.00000000000E+00 0. -1.
         25    2    1    2    0    0 -0.71219147932E+02  0.15427127731E+01  0.10490443410E+03  0.17806173871E+03  0.12500598187E+03 0.  0.
          2    1    1    2  501    0 -0.23898284475E+02  0.50310562877E+02 -0.77797937796E+01  0.56238829372E+02  0.00000000000E+00 0. -1.
          1    1    1    2  502    0  0.95117432407E+02 -0.51853275650E+02  0.13231918931E+04  0.13276192505E+04  0.00000000000E+00 0. -1.
         22    1    3    3    0    0 -0.50257491656E+02 -0.22607521536E+02  0.12750401303E+03  0.13890352349E+03  0.00000000000E+00 0. -1.
         22    1    3    3    0    0 -0.20961656276E+02  0.24150234309E+02 -0.22599578940E+02  0.39158215220E+02  0.00000000000E+00 0. -1.
</event>
<event>
 7    1  0.4915160E-006  0.5091856E+02  0.7818608E-02  0.1516314E+00
          2   -1    0    0  502    0  0.00000000000E+00  0.00000000000E+00  0.20717283550E+04  0.20717283550E+04  0.00000000000E+00 0. -1.
          1   -1    0    0  501    0 -0.00000000000E+00 -0.00000000000E+00 -0.21122780953E+02  0.21122780953E+02  0.00000000000E+00 0. -1.
         25    2    1    2    0    0  0.11418328819E+02 -0.27461745792E+02  0.42452008136E+03  0.44353915257E+03  0.12500061867E+03 0.  0.
          2    1    1    2  501    0 -0.17277377709E+02 -0.24217178806E+02  0.85670875339E+01  0.30957624564E+02  0.00000000000E+00 0. -1.
          1    1    1    2  502    0  0.58590488893E+01  0.51678924598E+02  0.16175184052E+04  0.16183543588E+04  0.00000000000E+00 0. -1.
         22    1    3    3    0    0 -0.38893497812E+02 -0.57757632262E+02  0.22037141698E+03  0.23111081688E+03  0.00000000000E+00 0.  1.
         22    1    3    3    0    0  0.50311826631E+02  0.30295886470E+02  0.20414866438E+03  0.21242833569E+03  0.00000000000E+00 0.  1.
</event>
<event>
 7    1  0.4915160E-006  0.2403985E+03  0.7818608E-02  0.1136573E+00
          2   -1    0    0  502    0  0.00000000000E+00  0.00000000000E+00  0.75004920572E+03  0.75004920572E+03  0.00000000000E+00 0. -1.
          1   -1    0    0  501    0 -0.00000000000E+00 -0.00000000000E+00 -0.28020566476E+03  0.28020566476E+03  0.00000000000E+00 0. -1.
         25    2    1    2    0    0  0.31995921331E+03 -0.12627742538E+03  0.31797952303E+03  0.48482661091E+03  0.12500391691E+03 0.  0.
          2    1    1    2  501    0 -0.22387894575E+03 -0.43237581544E+02 -0.80836978297E+02  0.24192124311E+03  0.00000000000E+00 0. -1.
          1    1    1    2  502    0 -0.96080267555E+02  0.16951500693E+03  0.23270099623E+03  0.30350701645E+03  0.00000000000E+00 0. -1.
         22    1    3    3    0    0  0.26128502959E+01 -0.35915383976E+02  0.29981218455E+02  0.46857392724E+02  0.00000000000E+00 0. -1.
         22    1    3    3    0    0  0.31734636301E+03 -0.90362041406E+02  0.28799830457E+03  0.43796921819E+03  0.00000000000E+00 0. -1.
</event>
<event>
 7    1  0.4915160E-006  0.1601256E+03  0.7818608E-02  0.1261721E+00
          2   -1    0    0  502    0  0.00000000000E+00  0.00000000000E+00  0.28340146452E+03  0.28340146452E+03  0.00000000000E+00 0. -1.
          1   -1    0    0  501    0 -0.00000000000E+00 -0.00000000000E+00 -0.52884248681E+03  0.52884248681E+03  0.00000000000E+00 0. -1.
         25    2    1    2    0    0  0.22321093253E+02 -0.21921911059E+03 -0.36156505272E+02  0.25590455042E+03  0.12499838560E+03 0.  0.
          2    1    1    2  501    0 -0.19384551957E+02  0.72159182984E+02 -0.34693370835E+03  0.35488830148E+03  0.00000000000E+00 0. -1.
          1    1    1    2  502    0 -0.29365412959E+01  0.14705992761E+03  0.13764919133E+03  0.20145109942E+03  0.00000000000E+00 0. -1.
         22    1    3    3    0    0  0.15318982212E+02 -0.19909527622E+03 -0.73605995956E+02  0.21281786314E+03  0.00000000000E+00 0. -1.
         22    1    3    3    0    0  0.70021110410E+01 -0.20123834369E+02  0.37449490684E+02  0.43086687286E+02  0.00000000000E+00 0. -1.
</event>
<event>
 7    1  0.4915160E-006  0.1201751E+03  0.7818608E-02  0.1319980E+00
          2   -1    0    0  502    0  0.00000000000E+00  0.00000000000E+00  0.90359885088E+03  0.90359885088E+03  0.00000000000E+00 0. -1.
          1   -1    0    0  501    0 -0.00000000000E+00 -0.00000000000E+00 -0.21641802269E+03  0.21641802269E+03  0.00000000000E+00 0. -1.
         25    2    1    2    0    0 -0.79249874972E+02  0.82059252648E+02  0.83479981430E+02  0.18870171406E+03  0.12500066385E+03 0.  0.
          2    1    1    2  501    0 -0.36717809503E+02 -0.44533513412E+02 -0.15369437389E+03  0.16417488211E+03  0.00000000000E+00 0. -1.
          1    1    1    2  502    0  0.11596768448E+03 -0.37525739236E+02  0.75739522064E+03  0.76714027740E+03  0.00000000000E+00 0. -1.
         22    1    3    3    0    0 -0.42674003773E+02  0.92687802624E+01 -0.27070213262E+02  0.51378763430E+02  0.00000000000E+00 0. -1.
         22    1    3    3    0    0 -0.36575871199E+02  0.72790472385E+02  0.11055019469E+03  0.13732295063E+03  0.00000000000E+00 0. -1.
</event>
<event>
 7    1  0.4915160E-006  0.1146716E+03  0.7818608E-02  0.1364764E+00
          2   -1    0    0  502    0  0.00000000000E+00  0.00000000000E+00  0.22184274222E+04  0.22184274222E+04  0.00000000000E+00 0. -1.
          1   -1    0    0  501    0 -0.00000000000E+00 -0.00000000000E+00 -0.92075496084E+02  0.92075496084E+02  0.00000000000E+00 0. -1.
         25    2    1    2    0    0 -0.80521724591E+02  0.59476210917E+02  0.49561417490E+03  0.52084553856E+03  0.12500198751E+03 0.  0.
          2    1    1    2  501    0 -0.32298676978E+02 -0.25403358553E+02 -0.71970631755E+02  0.82875249596E+02  0.00000000000E+00 0. -1.
          1    1    1    2  502    0  0.11282040157E+03 -0.34072852364E+02  0.17027083830E+04  0.17067821301E+04  0.00000000000E+00 0. -1.
         22    1    3    3    0    0 -0.70596959290E+02  0.64936481192E+02  0.49968533262E+03  0.50880851888E+03  0.00000000000E+00 0. -1.
         22    1    3    3    0    0 -0.99247653014E+01 -0.54602702749E+01 -0.40711577157E+01  0.12037019685E+02  0.00000000000E+00 0. -1.
</event>
<event>
 7    1  0.4915160E-006  0.1305290E+03  0.7818608E-02  0.1308101E+00
          2   -1    0    0  502    0  0.00000000000E+00  0.00000000000E+00  0.34535513995E+04  0.34535513995E+04  0.00000000000E+00 0. -1.
          1   -1    0    0  501    0 -0.00000000000E+00 -0.00000000000E+00 -0.98271054657E+03  0.98271054657E+03  0.00000000000E+00 0. -1.
         25    2    1    2    0    0  0.30027724857E+01  0.13633459233E+03  0.19585329513E+03  0.26940580122E+03  0.12499933923E+03 0.  0.
          2    1    1    2  501    0  0.53600144087E+02 -0.11916874115E+03 -0.94114855223E+03  0.95017617402E+03  0.00000000000E+00 0. -1.
          1    1    1    2  502    0 -0.56602916572E+02 -0.17165851184E+02  0.32161361100E+04  0.32166799708E+04  0.00000000000E+00 0. -1.
         22    1    3    3    0    0 -0.21213109671E+02  0.14159562275E+03  0.11144991630E+03  0.18143979786E+03  0.00000000000E+00 0. -1.
         22    1    3    3    0    0  0.24215882156E+02 -0.52610304123E+01  0.84403378829E+02  0.87966003361E+02  0.00000000000E+00 0. -1.
</event>
<event>
 7    1  0.4915160E-006  0.2670475E+02  0.7818608E-02  0.1646577E+00
          2   -1    0    0  502    0  0.00000000000E+00  0.00000000000E+00  0.27319876803E+03  0.27319876803E+03  0.00000000000E+00 0. -1.
          1   -1    0    0  501    0 -0.00000000000E+00 -0.00000000000E+00 -0.13624109636E+04  0.13624109636E+04  0.00000000000E+00 0. -1.
         25    2    1    2    0    0 -0.12113478816E+02  0.80895067705E+01 -0.31348380168E+03  0.33780043692E+03  0.12499945911E+03 0.  0.
          2    1    1    2  501    0  0.17856465071E+02  0.18036533516E+02 -0.10359277138E+04  0.10362385816E+04  0.00000000000E+00 0. -1.
          1    1    1    2  502    0 -0.57429862552E+01 -0.26126040286E+02  0.26019931988E+03  0.26157071308E+03  0.00000000000E+00 0. -1.
         22    1    3    3    0    0  0.37200035383E+02 -0.28800914850E+02 -0.56413576491E+02  0.73456292727E+02  0.00000000000E+00 0.  1.
         22    1    3    3    0    0 -0.49313514198E+02  0.36890421620E+02 -0.25707022519E+03  0.26434414419E+03  0.00000000000E+00 0.  1.
</event>
<event>
 7    1  0.4915160E-006  0.8231140E+02  0.7818608E-02  0.1474165E+00
          2   -1    0    0  502    0  0.00000000000E+00  0.00000000000E+00  0.75185234822E+03  0.75185234822E+03  0.00000000000E+00 0. -1.
          1   -1    0    0  501    0 -0.00000000000E+00 -0.00000000000E+00 -0.97905259980E+03  0.97905259980E+03  0.00000000000E+00 0. -1.
         25    2    1    2    0    0  0.49883770153E+02  0.38780747111E+02 -0.55984534771E+00  0.14006752118E+03  0.12500504067E+03 0.  0.
          2    1    1    2  501    0  0.24554050086E+02 -0.19663778607E+01 -0.90604330525E+03  0.90637808833E+03  0.00000000000E+00 0. -1.
          1    1    1    2  502    0 -0.74437820239E+02 -0.36814369251E+02  0.67940289902E+03  0.68445933850E+03  0.00000000000E+00 0. -1.
         22    1    3    3    0    0  0.53058781297E+01  0.29894370984E+01  0.57947741942E+02  0.58266884876E+02  0.00000000000E+00 0. -1.
         22    1    3    3    0    0  0.44577892023E+02  0.35791310013E+02 -0.58507587290E+02  0.81800636307E+02  0.00000000000E+00 0. -1.
</event>
<event>
 7    1  0.4915160E-006  0.1197922E+03  0.7818608E-02  0.1295080E+00
          2   -1    0    0  502    0  0.00000000000E+00  0.00000000000E+00  0.28038658285E+04  0.28038658285E+04  0.00000000000E+00 0. -1.
          1   -1    0    0  501    0 -0.00000000000E+00 -0.00000000000E+00 -0.47182108236E+02  0.47182108236E+02  0.00000000000E+00 0. -1.
         25    2    1    2    0    0 -0.36912785182E+02 -0.11342742707E+03  0.10578982274E+04  0.10719150704E+04  0.12499969485E+03 0.  0.
          2    1    1    2  501    0 -0.35679775199E+02  0.11625631813E+03  0.54532124703E+02  0.13327539341E+03  0.00000000000E+00 0. -1.
          1    1    1    2  502    0  0.72592560380E+02 -0.28288910601E+01  0.16442533682E+04  0.16458574729E+04  0.00000000000E+00 0. -1.
         22    1    3    3    0    0 -0.46184878139E+02 -0.72416295984E+02  0.27990675881E+03  0.29278824519E+03  0.00000000000E+00 0.  1.
         22    1    3    3    0    0  0.92720929573E+01 -0.41011131086E+02  0.77799146859E+03  0.77912682522E+03  0.00000000000E+00 0.  1.
</event>
<event>
 7    1  0.4915160E-006  0.1794080E+03  0.7818608E-02  0.1301985E+00
          2   -1    0    0  502    0  0.00000000000E+00  0.00000000000E+00  0.16653310730E+04  0.16653310730E+04  0.00000000000E+00 0. -1.
          1   -1    0    0  501    0 -0.00000000000E+00 -0.00000000000E+00 -0.22369710209E+03  0.22369710209E+03  0.00000000000E+00 0. -1.
         25    2    1    2    0    0  0.22166087236E+03 -0.15739271990E+02  0.65256140389E+03  0.70060189713E+03  0.12500146162E+03 0.  0.
          2    1    1    2  501    0 -0.17615715907E+03  0.16459002277E+02 -0.15983305701E+03  0.23842996784E+03  0.00000000000E+00 0. -1.
          1    1    1    2  502    0 -0.45503713284E+02 -0.71973028723E+00  0.94890562407E+03  0.94999631017E+03  0.00000000000E+00 0. -1.
         22    1    3    3    0    0  0.15772292628E+02  0.36769529813E+02  0.14357681213E+03  0.14904718890E+03  0.00000000000E+00 0. -1.
         22    1    3    3    0    0  0.20588857973E+03 -0.52508801802E+02  0.50898459176E+03  0.55155470823E+03  0.00000000000E+00 0. -1.
</event>
<event>
 7    1  0.4915160E-006  0.9215455E+02  0.7818608E-02  0.1455213E+00
          2   -1    0    0  502    0  0.00000000000E+00  0.00000000000E+00  0.50689646225E+03  0.50689646225E+03  0.00000000000E+00 0. -1.
          1   -1    0    0  501    0 -0.00000000000E+00 -0.00000000000E+00 -0.20219862694E+04  0.20219862694E+04  0.00000000000E+00 0. -1.
         25    2    1    2    0    0 -0.39709983017E+02 -0.10774270125E+03  0.16642646190E+03  0.23771463537E+03  0.12500043289E+03 0.  0.
          2    1    1    2  501    0  0.22578474820E+02  0.89225823278E+02 -0.19847520019E+04  0.19868848845E+04  0.00000000000E+00 0. -1.
          1    1    1    2  502    0  0.17131508197E+02  0.18516877972E+02  0.30323573283E+03  0.30428321184E+03  0.00000000000E+00 0. -1.
         22    1    3    3    0    0 -0.66127507936E+02 -0.58339627077E+02  0.35053664158E+02  0.94895304226E+02  0.00000000000E+00 0. -1.
         22    1    3    3    0    0  0.26417524919E+02 -0.49403074174E+02  0.13137279774E+03  0.14281933114E+03  0.00000000000E+00 0. -1.
</event>
<event>
 7    1  0.4915160E-006  0.6780931E+02  0.7818608E-02  0.1432694E+00
          2   -1    0    0  502    0  0.00000000000E+00  0.00000000000E+00  0.58198964488E+02  0.58198964488E+02  0.00000000000E+00 0. -1.
          1   -1    0    0  501    0 -0.00000000000E+00 -0.00000000000E+00 -0.19192022613E+04  0.19192022613E+04  0.00000000000E+00 0. -1.
         25    2    1    2    0    0  0.20726376976E+02  0.61374188279E+02 -0.13541498335E+04  0.13614489288E+04  0.12500016196E+03 0.  0.
          2    1    1    2  501    0 -0.40351461179E+02  0.37791070597E+01 -0.53912250360E+03  0.54064368669E+03  0.00000000000E+00 0. -1.
          1    1    1    2  502    0  0.19625084203E+02 -0.65153295338E+02  0.32269040286E+02  0.75308610294E+02  0.00000000000E+00 0. -1.
         22    1    3    3    0    0  0.65999436510E+02  0.25749346565E+02 -0.45774255412E+03  0.46319240098E+03  0.00000000000E+00 0. -1.
         22    1    3    3    0    0 -0.45273059534E+02  0.35624841714E+02 -0.89640727933E+03  0.89825652779E+03  0.00000000000E+00 0. -1.
</event>
<event>
 7    1  0.4915160E-006  0.6515672E+02  0.7818608E-02  0.1391714E+00
          2   -1    0    0  502    0  0.00000000000E+00  0.00000000000E+00  0.34911521354E+03  0.34911521354E+03  0.00000000000E+00 0. -1.
          1   -1    0    0  501    0 -0.00000000000E+00 -0.00000000000E+00 -0.38703615963E+03  0.38703615963E+03  0.00000000000E+00 0. -1.
         25    2    1    2    0    0 -0.78552373307E+01  0.49415665561E+01 -0.28918291778E+03  0.31517881500E+03  0.12499920660E+03 0.  0.
          2    1    1    2  501    0 -0.57912900666E+02 -0.34431458675E+01 -0.71214390820E+02  0.91854497859E+02  0.00000000000E+00 0. -1.
          1    1    1    2  502    0  0.65768137997E+02 -0.14984206886E+01  0.32247636252E+03  0.32911806031E+03  0.00000000000E+00 0. -1.
         22    1    3    3    0    0  0.24725035574E+02 -0.96050064172E+01 -0.27579805402E+03  0.27707065910E+03  0.00000000000E+00 0. -1.
         22    1    3    3    0    0 -0.32580272905E+02  0.14546572973E+02 -0.13384863762E+02  0.38108155895E+02  0.00000000000E+00 0. -1.
</event>
<event>
 7    1  0.4915160E-006  0.4986591E+02  0.7818608E-02  0.1479492E+00
          2   -1    0    0  502    0  0.00000000000E+00  0.00000000000E+00  0.21491629027E+04  0.21491629027E+04  0.00000000000E+00 0. -1.
          1   -1    0    0  501    0 -0.00000000000E+00 -0.00000000000E+00 -0.15279884934E+02  0.15279884934E+02  0.00000000000E+00 0. -1.
         25    2    1    2    0    0 -0.60726444007E+02  0.54212624158E+02  0.99042259338E+03  0.10015948145E+04  0.12501419686E+03 0.  0.
          2    1    1    2  501    0  0.36794469381E+02 -0.13380429691E+02  0.32509767546E+02  0.50889624302E+02  0.00000000000E+00 0. -1.
          1    1    1    2  502    0  0.23931974626E+02 -0.40832194467E+02  0.11109506568E+04  0.11119583487E+04  0.00000000000E+00 0. -1.
         22    1    3    3    0    0 -0.51647658624E+02  0.30568402199E+02  0.96058135331E+03  0.96245438551E+03  0.00000000000E+00 0.  1.
         22    1    3    3    0    0 -0.90787853830E+01  0.23644221960E+02  0.29841240075E+02  0.39140429038E+02  0.00000000000E+00 0.  1.
</event>
<event>
 7    1  0.4915160E-006  0.4820892E+02  0.7818608E-02  0.1567687E+00
          2   -1    0    0  502    0  0.00000000000E+00  0.00000000000E+00  0.42631521696E+02  0.42631521696E+02  0.00000000000E+00 0. -1.
          1   -1    0    0  501    0 -0.00000000000E+00 -0.00000000000E+00 -0.73905893661E+03  0.73905893661E+03  0.00000000000E+00 0. -1.
         25    2    1    2    0    0 -0.38531324000E+02  0.55086607165E+02 -0.19100993655E+03  0.23796841632E+03  0.12499989635E+03 0.  0.
          2    1    1    2  501    0  0.78139538248E+01 -0.21108226637E+02 -0.49655845957E+03  0.49706832415E+03  0.00000000000E+00 0. -1.
          1    1    1    2  502    0  0.30717370175E+02 -0.33978380528E+02 -0.88590187970E+01  0.46653717835E+02  0.00000000000E+00 0. -1.
         22    1    3    3    0    0  0.38561889486E+01 -0.13239358746E+02 -0.14434464514E+03  0.14500181858E+03  0.00000000000E+00 0.  1.
         22    1    3    3    0    0 -0.42387512948E+02  0.68325965911E+02 -0.46665291411E+02  0.92966597733E+02  0.00000000000E+00 0.  1.
</event>
<event>
 7    1  0.4915160E-006  0.2675728E+02  0.7818608E-02  0.1674055E+00
          2   -1    0    0  502    0  0.00000000000E+00  0.00000000000E+00  0.21536204813E+04  0.21536204813E+04  0.00000000000E+00 0. -1.
          1   -1    0    0  501    0 -0.00000000000E+00 -0.00000000000E+00 -0.78330177100E+01  0.78330177100E+01  0.00000000000E+00 0. -1.
         25    2    1    2    0    0  0.18399995418E+02 -0.12113304159E+02  0.12264106083E+04  0.12329610310E+04  0.12499852770E+03 0.  0.
          2    1    1    2  501    0 -0.25897087599E+02 -0.82854888207E+01  0.37354769659E+02  0.46202676193E+02  0.00000000000E+00 0. -1.
          1    1    1    2  502    0  0.74970921802E+01  0.20398792980E+02  0.88202208568E+03  0.88228979183E+03  0.00000000000E+00 0. -1.
         22    1    3    3    0    0  0.70658875058E+02 -0.13552609012E+02  0.58126969508E+03  0.58570539374E+03  0.00000000000E+00 0. -1.
         22    1    3    3    0    0 -0.52258879639E+02  0.14393048530E+01  0.64514091322E+03  0.64725563730E+03  0.00000000000E+00 0. -1.
</event>
<event>
 7    1  0.4915160E-006  0.7199336E+02  0.7818608E-02  0.1372952E+00
          2   -1    0    0  502    0  0.00000000000E+00  0.00000000000E+00  0.17737940563E+02  0.17737940563E+02  0.00000000000E+00 0. -1.
          1   -1    0    0  501    0 -0.00000000000E+00 -0.00000000000E+00 -0.12995462135E+04  0.12995462135E+04  0.00000000000E+00 0. -1.
         25    2    1    2    0    0 -0.80866217079E+02  0.32063065075E+01 -0.58179213145E+03  0.60054784602E+03  0.12500402265E+03 0.  0.
          2    1    1    2  501    0  0.49857797867E+02 -0.55916791221E+02 -0.54447268763E+03  0.54960257925E+03  0.00000000000E+00 0. -1.
          1    1    1    2  502    0  0.31008419212E+02  0.52710484713E+02 -0.15554345387E+03  0.16713372880E+03  0.00000000000E+00 0. -1.
         22    1    3    3    0    0 -0.37821345146E+02  0.40865649131E+02 -0.48450808266E+03  0.48769717817E+03  0.00000000000E+00 0. -1.
         22    1    3    3    0    0 -0.43044871932E+02 -0.37659342624E+02 -0.97284048786E+02  0.11285066785E+03  0.00000000000E+00 0. -1.
</event>
<event>
 7    1  0.4915160E-006  0.4681019E+02  0.7818608E-02  0.1580693E+00
          2   -1    0    0  502    0  0.00000000000E+00  0.00000000000E+00  0.23656954995E+04  0.23656954995E+04  0.00000000000E+00 0. -1.
          1   -1    0    0  501    0 -0.00000000000E+00 -0.00000000000E+00 -0.33054425075E+02  0.33054425075E+02  0.00000000000E+00 0. -1.
         25    2    1    2    0    0  0.38106094206E+02  0.45673174094E+02  0.12669566628E+03  0.18765686029E+03  0.12500076845E+03 0.  0.
          2    1    1    2  501    0  0.17686589182E+01 -0.21305461539E+02  0.46909118015E+02  0.51551102788E+02  0.00000000000E+00 0. -1.
          1    1    1    2  502    0 -0.39874753125E+02 -0.24367712555E+02  0.21590362901E+04  0.21595419615E+04  0.00000000000E+00 0. -1.
         22    1    3    3    0    0  0.30770959269E-01  0.81082105540E+02  0.50877888253E+02  0.95722872391E+02  0.00000000000E+00 0. -1.
         22    1    3    3    0    0  0.38075323247E+02 -0.35408931447E+02  0.75817778027E+02  0.91933987902E+02  0.00000000000E+00 0. -1.
</event>
<event>
 7    1  0.4915160E-006  0.1453436E+03  0.7818608E-02  0.1401890E+00
          2   -1    0    0  502    0  0.00000000000E+00  0.00000000000E+00  0.22710246248E+04  0.22710246248E+04  0.00000000000E+00 0. -1.
          1   -1    0    0  501    0 -0.00000000000E+00 -0.00000000000E+00 -0.97457918467E+02  0.97457918467E+02  0.00000000000E+00 0. -1.
         25    2    1    2    0    0 -0.12162320041E+03  0.61875132082E+02  0.35136098570E+03  0.39711774193E+03  0.12500889502E+03 0.  0.
          2    1    1    2  501    0  0.26608351884E+01  0.23837363222E+02 -0.69738249223E+02  0.73747700534E+02  0.00000000000E+00 0. -1.
          1    1    1    2  502    0  0.11896236522E+03 -0.85712495304E+02  0.18919439699E+04  0.18976171008E+04  0.00000000000E+00 0. -1.
         22    1    3    3    0    0 -0.17467107148E+01 -0.17641520781E+02  0.14198291361E+03  0.14308536616E+03  0.00000000000E+00 0.  1.
         22    1    3    3    0    0 -0.11987648969E+03  0.79516652863E+02  0.20937807209E+03  0.25403237577E+03  0.00000000000E+00 0.  1.
</event>
<event>
 7    1  0.4915160E-006  0.1331823E+03  0.7818608E-02  0.1269205E+00
          2   -1    0    0  502    0  0.00000000000E+00  0.00000000000E+00  0.95184279464E+03  0.95184279464E+03  0.00000000000E+00 0. -1.
          1   -1    0    0  501    0 -0.00000000000E+00 -0.00000000000E+00 -0.62415520534E+03  0.62415520534E+03  0.00000000000E+00 0. -1.
         25    2    1    2    0    0 -0.64078894824E+02 -0.95820090773E+02 -0.36422848944E+03  0.40196801982E+03  0.12501320682E+03 0.  0.
          2    1    1    2  501    0  0.24430007350E+02  0.16932573590E+03 -0.20852536362E+03  0.26972366854E+03  0.00000000000E+00 0. -1.
          1    1    1    2  502    0  0.39648887474E+02 -0.73505645126E+02  0.90044144235E+03  0.90430631163E+03  0.00000000000E+00 0. -1.
         22    1    3    3    0    0 -0.45891425681E+02 -0.88850574780E+02 -0.36866893445E+03  0.38199113971E+03  0.00000000000E+00 0. -1.
         22    1    3    3    0    0 -0.18187469143E+02 -0.69695159933E+01  0.44404450090E+01  0.19976880109E+02  0.00000000000E+00 0. -1.
</event>
<event>
 7    1  0.4915160E-006  0.5196466E+02  0.7818608E-02  0.1530543E+00
          2   -1    0    0  502    0  0.00000000000E+00  0.00000000000E+00  0.60471260026E+03  0.60471260026E+03  0.00000000000E+00 0. -1.
          1   -1    0    0  501    0 -0.00000000000E+00 -0.00000000000E+00 -0.44875844734E+03  0.44875844734E+03  0.00000000000E+00 0. -1.
         25    2    1    2    0    0  0.78394658811E+00 -0.35835776754E+02 -0.30716663856E+03  0.33355767407E+03  0.12499824248E+03 0.  0.
          2    1    1    2  501    0 -0.11870596068E+02  0.59922500653E+02 -0.12081254914E+03  0.13537831867E+03  0.00000000000E+00 0. -1.
          1    1    1    2  502    0  0.11086649480E+02 -0.24086723899E+02  0.58393334062E+03  0.58453505485E+03  0.00000000000E+00 0. -1.
         22    1    3    3    0    0  0.46879156075E+02 -0.51736061483E+02 -0.24381438661E+03  0.25361334833E+03  0.00000000000E+00 0. -1.
         22    1    3    3    0    0 -0.46095209487E+02  0.15900284728E+02 -0.63352251943E+02  0.79944325742E+02  0.00000000000E+00 0. -1.
</event>
<event>
 7    1  0.4915160E-006  0.9085091E+02  0.7818608E-02  0.1447100E+00
          2   -1    0    0  502    0  0.00000000000E+00  0.00000000000E+00  0.67979769634E+02  0.67979769634E+02  0.00000000000E+00 0. -1.
          1   -1    0    0  501    0 -0.00000000000E+00 -0.00000000000E+00 -0.23710775939E+04  0.23710775939E+04  0.00000000000E+00 0. -1.
         25    2    1    2    0    0  0.23668437712E+02 -0.67683103705E+02 -0.10883099251E+04  0.10978091762E+04  0.12500118718E+03 0.  0.
          2    1    1    2  501    0 -0.13975616624E+02 -0.23290123530E+02 -0.12446984512E+04  0.12449947719E+04  0.00000000000E+00 0. -1.
          1    1    1    2  502    0 -0.96928210888E+01  0.90973227236E+02  0.29910552036E+02  0.96253415406E+02  0.00000000000E+00 0. -1.
         22    1    3    3    0    0 -0.62400507855E+01 -0.12395729500E+02 -0.87181098699E+01  0.16388953089E+02  0.00000000000E+00 0. -1.
         22    1    3    3    0    0  0.29908488498E+02 -0.55287374205E+02 -0.10795918152E+04  0.10814202231E+04  0.00000000000E+00 0. -1.
</event>
<event>
 7    1  0.4915160E-006  0.1180196E+03  0.7818608E-02  0.1333420E+00
          2   -1    0    0  502    0  0.00000000000E+00  0.00000000000E+00  0.17722631549E+04  0.17722631549E+04  0.00000000000E+00 0. -1.
          1   -1    0    0  501    0 -0.00000000000E+00 -0.00000000000E+00 -0.11674135668E+04  0.11674135668E+04  0.00000000000E+00 0. -1.
         25    2    1    2    0    0  0.13249235018E+02  0.75234302917E+02  0.71383059797E+02  0.16295629133E+03  0.12499387623E+03 0.  0.
          2    1    1    2  501    0 -0.28048724553E+02  0.44009544746E+02 -0.11188370464E+04  0.11200535288E+04  0.00000000000E+00 0. -1.
          1    1    1    2  502    0  0.14799489534E+02 -0.11924384766E+03  0.16523035746E+04  0.16566669016E+04  0.00000000000E+00 0. -1.
         22    1    3    3    0    0  0.33037913324E+02  0.89994549192E+02  0.90420261934E+02  0.13178143408E+03  0.00000000000E+00 0.  1.
         22    1    3    3    0    0 -0.19788678306E+02 -0.14760246275E+02 -0.19037202138E+02  0.31174857248E+02  0.00000000000E+00 0.  1.
</event>
<event>
 7    1  0.4915160E-006  0.1600200E+03  0.7818608E-02  0.1320968E+00
          2   -1    0    0  502    0  0.00000000000E+00  0.00000000000E+00  0.12885112978E+04  0.12885112978E+04  0.00000000000E+00 0. -1.
          1   -1    0    0  501    0 -0.00000000000E+00 -0.00000000000E+00 -0.10763644368E+03  0.10763644368E+03  0.00000000000E+00 0. -1.
         25    2    1    2    0    0  0.15881879738E+03 -0.82882707513E+02  0.34046440057E+03  0.40451740250E+03  0.12500146906E+03 0.  0.
          2    1    1    2  501    0 -0.38970043034E+02 -0.18095151278E+02 -0.62154958445E+02  0.75560158901E+02  0.00000000000E+00 0. -1.
          1    1    1    2  502    0 -0.11984875435E+03  0.10097785879E+03  0.90256541202E+03  0.91607018010E+03  0.00000000000E+00 0. -1.
         22    1    3    3    0    0  0.14696709132E+03 -0.11052445455E+03  0.31657966406E+03  0.36611154678E+03  0.00000000000E+00 0.  1.
         22    1    3    3    0    0  0.11851706062E+02  0.27641747041E+02  0.23884736504E+02  0.38405855724E+02  0.00000000000E+00 0.  1.
</event>
<event>
 7    1  0.4915160E-006  0.1445657E+03  0.7818608E-02  0.1373988E+00
          2   -1    0    0  502    0  0.00000000000E+00  0.00000000000E+00  0.34473607197E+04  0.34473607197E+04  0.00000000000E+00 0. -1.
          1   -1    0    0  501    0 -0.00000000000E+00 -0.00000000000E+00 -0.60743326909E+03  0.60743326909E+03  0.00000000000E+00 0. -1.
         25    2    1    2    0    0 -0.58097057309E+02 -0.99184524277E+02  0.12981294656E+04  0.13091883333E+04  0.12498457715E+03 0.  0.
          2    1    1    2  501    0  0.77736791475E+02  0.12212128556E+03 -0.59309121641E+03  0.61050291410E+03  0.00000000000E+00 0. -1.
          1    1    1    2  502    0 -0.19639734165E+02 -0.22936761283E+02  0.21348892014E+04  0.21351027414E+04  0.00000000000E+00 0. -1.
         22    1    3    3    0    0 -0.76167012781E+02 -0.17063433478E+02  0.43272384254E+03  0.43970728730E+03  0.00000000000E+00 0.  1.
         22    1    3    3    0    0  0.18069955472E+02 -0.82121090799E+02  0.86540562307E+03  0.86948104596E+03  0.00000000000E+00 0.  1.
</event>
<event>
 7    1  0.4915160E-006  0.1472765E+03  0.7818608E-02  0.1359822E+00
          2   -1    0    0  502    0  0.00000000000E+00  0.00000000000E+00  0.24879790391E+02  0.24879790391E+02  0.00000000000E+00 0. -1.
          1   -1    0    0  501    0 -0.00000000000E+00 -0.00000000000E+00 -0.35491801344E+04  0.35491801344E+04  0.00000000000E+00 0. -1.
         25    2    1    2    0    0  0.14044617144E+03  0.15655035933E+02 -0.84555910750E+03  0.86635071003E+03  0.12499256491E+03 0.  0.
          2    1    1    2  501    0 -0.14077966069E+03 -0.49000099465E+02 -0.26687333173E+04  0.26728930846E+04  0.00000000000E+00 0. -1.
          1    1    1    2  502    0  0.33348924525E+00  0.33345063532E+02 -0.10007919252E+02  0.34816130238E+02  0.00000000000E+00 0. -1.
         22    1    3    3    0    0  0.44023473432E+01  0.47837295897E+02 -0.18271440483E+03  0.18892416805E+03  0.00000000000E+00 0.  1.
         22    1    3    3    0    0  0.13604382410E+03 -0.32182259964E+02 -0.66284470266E+03  0.67742654198E+03  0.00000000000E+00 0.  1.
</event>
<event>
 7    1  0.4915160E-006  0.1002607E+03  0.7818608E-02  0.1408428E+00
          2   -1    0    0  502    0  0.00000000000E+00  0.00000000000E+00  0.17513273662E+04  0.17513273662E+04  0.00000000000E+00 0. -1.
          1   -1    0    0  501    0 -0.00000000000E+00 -0.00000000000E+00 -0.30437261927E+02  0.30437261927E+02  0.00000000000E+00 0. -1.
         25    2    1    2    0    0  0.55069885657E+02 -0.11291199895E+03  0.49801528948E+03  0.52860577035E+03  0.12499208007E+03 0.  0.
          2    1    1    2  501    0 -0.45229098041E+02  0.81382714501E+02  0.13063202850E+03  0.16041678341E+03  0.00000000000E+00 0. -1.
          1    1    1    2  502    0 -0.98407876154E+01  0.31529284449E+02  0.10922427863E+04  0.10927420743E+04  0.00000000000E+00 0. -1.
         22    1    3    3    0    0 -0.13538663939E+02  0.21995345092E+02  0.68960014796E+02  0.73638130528E+02  0.00000000000E+00 0.  1.
         22    1    3    3    0    0  0.68608549595E+02 -0.13490734404E+03  0.42905527469E+03  0.45496763983E+03  0.00000000000E+00 0.  1.
</event>
<event>
 7    1  0.4915160E-006  0.1037541E+03  0.7818608E-02  0.1418535E+00
          2   -1    0    0  502    0  0.00000000000E+00  0.00000000000E+00  0.63155210716E+03  0.63155210716E+03  0.00000000000E+00 0. -1.
          1   -1    0    0  501    0 -0.00000000000E+00 -0.00000000000E+00 -0.89458236634E+03  0.89458236634E+03  0.00000000000E+00 0. -1.
         25    2    1    2    0    0 -0.81834992296E+02 -0.88585377029E+02  0.10183417098E+03  0.20134313489E+03  0.12499809840E+03 0.  0.
          2    1    1    2  501    0 -0.14897007896E+01  0.29470938230E+02 -0.83912897998E+03  0.83964766447E+03  0.00000000000E+00 0. -1.
          1    1    1    2  502    0  0.83324693086E+02  0.59114438799E+02  0.47426454981E+03  0.48514367415E+03  0.00000000000E+00 0. -1.
         22    1    3    3    0    0 -0.98420466699E-01 -0.67802861796E+01  0.84072622430E+02  0.84345644876E+02  0.00000000000E+00 0. -1.
         22    1    3    3    0    0 -0.81736571830E+02 -0.81805090849E+02  0.17761548545E+02  0.11699749002E+03  0.00000000000E+00 0. -1.
</event>
<event>
 7    1  0.4915160E-006  0.1491035E+03  0.7818608E-02  0.1303548E+00
          2   -1    0    0  502    0  0.00000000000E+00  0.00000000000E+00  0.20763918179E+04  0.20763918179E+04  0.00000000000E+00 0. -1.
          1   -1    0    0  501    0 -0.00000000000E+00 -0.00000000000E+00 -0.18268138313E+04  0.18268138313E+04  0.00000000000E+00 0. -1.
         25    2    1    2    0    0  0.92597440254E+02 -0.31022059113E+02  0.74469282212E+03  0.76140509066E+03  0.12503462985E+03 0.  0.
          2    1    1    2  501    0 -0.13425820626E+03  0.65345851548E+02 -0.18148398923E+04  0.18209720429E+04  0.00000000000E+00 0. -1.
          1    1    1    2  502    0  0.41660766006E+02 -0.34323792434E+02  0.13197250568E+04  0.13208285156E+04  0.00000000000E+00 0. -1.
         22    1    3    3    0    0  0.95474298000E+02 -0.45692155980E+02  0.73705748702E+03  0.74461859624E+03  0.00000000000E+00 0.  1.
         22    1    3    3    0    0 -0.28768577454E+01  0.14670096866E+02  0.76353351024E+01  0.16786494413E+02  0.00000000000E+00 0.  1.
</event>
<event>
 7    1  0.6043752E-006  0.6158772E+02  0.7818608E-02  0.1407299E+00
          2   -1    0    0  502    0  0.00000000000E+00  0.00000000000E+00  0.91778231209E+03  0.91778231209E+03  0.00000000000E+00 0. -1.
          1   -1    0    0  501    0 -0.00000000000E+00 -0.00000000000E+00 -0.73073560126E+03  0.73073560126E+03  0.00000000000E+00 0. -1.
         25    2    1    2    0    0 -0.66376473031E+02  0.90000469050E+02 -0.27386038447E+02  0.16994477926E+03  0.12500124917E+03 0.  0.
          2    1    1    2  501    0  0.42389995584E+02 -0.33850206422E+02 -0.62980164701E+03  0.63213357986E+03  0.00000000000E+00 0. -1.
          1    1    1    2  502    0  0.23986477447E+02 -0.56150262627E+02  0.84423439629E+03  0.84643955424E+03  0.00000000000E+00 0. -1.
         22    1    3    3    0    0 -0.26528861527E+02  0.99294156291E+01 -0.66534879125E+02  0.72313649671E+02  0.00000000000E+00 0.  1.
         22    1    3    3    0    0 -0.39847611503E+02  0.80071053421E+02  0.39148840678E+02  0.97631129589E+02  0.00000000000E+00 0.  1.
</event>
<event>
 7    1  0.4915160E-006  0.6514456E+02  0.7818608E-02  0.1383995E+00
          2   -1    0    0  502    0  0.00000000000E+00  0.00000000000E+00  0.59702172058E+03  0.59702172058E+03  0.00000000000E+00 0. -1.
          1   -1    0    0  501    0 -0.00000000000E+00 -0.00000000000E+00 -0.19412809882E+03  0.19412809882E+03  0.00000000000E+00 0. -1.
         25    2    1    2    0    0  0.11808690555E+03 -0.16988878176E+02  0.19529616114E+03  0.26076604605E+03  0.12500080387E+03 0.  0.
          2    1    1    2  501    0 -0.62877092559E+02 -0.10671861294E+02 -0.15235913942E+03  0.16516877658E+03  0.00000000000E+00 0. -1.
          1    1    1    2  502    0 -0.55209812992E+02  0.27660739470E+02  0.35995660004E+03  0.36521499677E+03  0.00000000000E+00 0. -1.
         22    1    3    3    0    0  0.14365118927E+03 -0.75438776262E+01  0.17632980924E+03  0.22756268564E+03  0.00000000000E+00 0.  1.
         22    1    3    3    0    0 -0.25564283724E+02 -0.94450005496E+01  0.18966351903E+02  0.33203360405E+02  0.00000000000E+00 0.  1.
</event>
<event>
 7    1  0.4915160E-006  0.2679642E+03  0.7818608E-02  0.1201255E+00
          2   -1    0    0  502    0  0.00000000000E+00  0.00000000000E+00  0.21812351396E+04  0.21812351396E+04  0.00000000000E+00 0. -1.
          1   -1    0    0  501    0 -0.00000000000E+00 -0.00000000000E+00 -0.94986312662E+03  0.94986312662E+03  0.00000000000E+00 0. -1.
         25    2    1    2    0    0  0.21783129598E+03  0.76568802517E+02 -0.79502140996E+02  0.27433184979E+03  0.12499647340E+03 0.  0.
          2    1    1    2  501    0  0.12501238445E+00  0.83257272582E+02 -0.76190496976E+03  0.76644045562E+03  0.00000000000E+00 0. -1.
          1    1    1    2  502    0 -0.21795630836E+03 -0.15982607510E+03  0.20727791237E+04  0.20903259608E+04  0.00000000000E+00 0. -1.
         22    1    3    3    0    0  0.11529223022E+03  0.10226545578E+03 -0.27586206103E+02  0.15656155519E+03  0.00000000000E+00 0.  1.
         22    1    3    3    0    0  0.10253906576E+03 -0.25696653266E+02 -0.51915934894E+02  0.11777029461E+03  0.00000000000E+00 0.  1.
</event>
<event>
 7    1  0.4915160E-006  0.6144643E+02  0.7818608E-02  0.1446394E+00
          2   -1    0    0  502    0  0.00000000000E+00  0.00000000000E+00  0.16790340777E+03  0.16790340777E+03  0.00000000000E+00 0. -1.
          1   -1    0    0  501    0 -0.00000000000E+00 -0.00000000000E+00 -0.19499530245E+04  0.19499530245E+04  0.00000000000E+00 0. -1.
         25    2    1    2    0    0 -0.29239425294E+02 -0.12490992682E+02 -0.94658379680E+03  0.95533034763E+03  0.12499687940E+03 0.  0.
          2    1    1    2  501    0  0.69479986986E+02  0.92628218384E+01 -0.99525290695E+03  0.99771820534E+03  0.00000000000E+00 0. -1.
          1    1    1    2  502    0 -0.40240561692E+02  0.32281708434E+01  0.15978708704E+03  0.16480787929E+03  0.00000000000E+00 0. -1.
         22    1    3    3    0    0  0.24516793304E+02 -0.27255101971E-01 -0.38969979199E+02  0.46040560113E+02  0.00000000000E+00 0.  1.
         22    1    3    3    0    0 -0.53756218598E+02 -0.12463737580E+02 -0.90761381760E+03  0.90928978752E+03  0.00000000000E+00 0.  1.
</event>
<event>
 7    1  0.4915160E-006  0.3902414E+02  0.7818608E-02  0.1602180E+00
          2   -1    0    0  502    0  0.00000000000E+00  0.00000000000E+00  0.20119684890E+03  0.20119684890E+03  0.00000000000E+00 0. -1.
          1   -1    0    0  501    0 -0.00000000000E+00 -0.00000000000E+00 -0.15615297219E+04  0.15615297219E+04  0.00000000000E+00 0. -1.
         25    2    1    2    0    0  0.49331711042E+00 -0.35332086381E+02  0.17546405517E+02  0.13107985350E+03  0.12500180782E+03 0.  0.
          2    1    1    2  501    0  0.22299019233E+02  0.30152793382E+01 -0.15015953554E+04  0.15017639460E+04  0.00000000000E+00 0. -1.
          1    1    1    2  502    0 -0.22792336344E+02  0.32316807043E+02  0.12371607685E+03  0.12988277132E+03  0.00000000000E+00 0. -1.
         22    1    3    3    0    0 -0.10013695554E+02 -0.76256925618E+02 -0.14224087772E+02  0.78215839038E+02  0.00000000000E+00 0. -1.
         22    1    3    3    0    0  0.10507012665E+02  0.40924839238E+02  0.31770493289E+02  0.52864014467E+02  0.00000000000E+00 0. -1.
</event>
<event>
 7    1  0.4915160E-006  0.5384196E+02  0.7818608E-02  0.1467814E+00
          2   -1    0    0  502    0  0.00000000000E+00  0.00000000000E+00  0.64783473666E+02  0.64783473666E+02  0.00000000000E+00 0. -1.
          1   -1    0    0  501    0 -0.00000000000E+00 -0.00000000000E+00 -0.70173599552E+03  0.70173599552E+03  0.00000000000E+00 0. -1.
         25    2    1    2    0    0 -0.17325249132E+01  0.74239914194E+02 -0.39161178550E+03  0.41772813476E+03  0.12498974968E+03 0.  0.
          2    1    1    2  501    0 -0.26723552800E+02 -0.28962161347E+02 -0.28149458983E+03  0.28423961576E+03  0.00000000000E+00 0. -1.
          1    1    1    2  502    0  0.28456077713E+02 -0.45277752848E+02  0.36153853476E+02  0.64551718667E+02  0.00000000000E+00 0. -1.
         22    1    3    3    0    0  0.47610708919E+02  0.56283149468E+02 -0.11808743966E+03  0.13920925229E+03  0.00000000000E+00 0. -1.
         22    1    3    3    0    0 -0.49343233832E+02  0.17956764726E+02 -0.27352434584E+03  0.27851888246E+03  0.00000000000E+00 0. -1.
</event>
<event>
 7    1  0.4915160E-006  0.5381012E+02  0.7818608E-02  0.1452397E+00
          2   -1    0    0  502    0  0.00000000000E+00  0.00000000000E+00  0.23011045691E+03  0.23011045691E+03  0.00000000000E+00 0. -1.
          1   -1    0    0  501    0 -0.00000000000E+00 -0.00000000000E+00 -0.28349342731E+03  0.28349342731E+03  0.00000000000E+00 0. -1.
         25    2    1    2    0    0 -0.19636827380E+02 -0.13797857883E+02 -0.15543399384E+02  0.12823006675E+03  0.12500146752E+03 0.  0.
          2    1    1    2  501    0  0.54900182445E+02 -0.12689018375E+02 -0.20494319530E+03  0.21254824045E+03  0.00000000000E+00 0. -1.
          1    1    1    2  502    0 -0.35263355066E+02  0.26486876258E+02  0.16710362428E+03  0.17282557702E+03  0.00000000000E+00 0. -1.
         22    1    3    3    0    0  0.10510079357E+02 -0.38599756226E+02 -0.58061193476E+02  0.70508901117E+02  0.00000000000E+00 0.  1.
         22    1    3    3    0    0 -0.30146906737E+02  0.24801898344E+02  0.42517794092E+02  0.57721165630E+02  0.00000000000E+00 0.  1.
</event>
<event>
 7    1  0.4915160E-006  0.7863251E+02  0.7818608E-02  0.1338957E+00
          2   -1    0    0  502    0  0.00000000000E+00  0.00000000000E+00  0.12920596422E+03  0.12920596422E+03  0.00000000000E+00 0. -1.
          1   -1    0    0  501    0 -0.00000000000E+00 -0.00000000000E+00 -0.72393414749E+03  0.72393414749E+03  0.00000000000E+00 0. -1.
         25    2    1    2    0    0  0.28679058303E+02  0.13181984041E+02 -0.15884134639E+02  0.12989559414E+03  0.12499722619E+03 0.  0.
          2    1    1    2  501    0  0.74617010144E+02  0.18262938248E+01 -0.60981515662E+03  0.61436598115E+03  0.00000000000E+00 0. -1.
          1    1    1    2  502    0 -0.10329606845E+03 -0.15008277866E+02  0.30971107990E+02  0.10887853641E+03  0.00000000000E+00 0. -1.
         22    1    3    3    0    0  0.20089424751E+01  0.61945815551E+02  0.18325351270E+02  0.64630785337E+02  0.00000000000E+00 0. -1.
         22    1    3    3    0    0  0.26670115828E+02 -0.48763831510E+02 -0.34209485909E+02  0.65264808802E+02  0.00000000000E+00 0. -1.
</event>
<event>
 7    1  0.4915160E-006  0.4485613E+02  0.7818608E-02  0.1570297E+00
          2   -1    0    0  502    0  0.00000000000E+00  0.00000000000E+00  0.16425755163E+03  0.16425755163E+03  0.00000000000E+00 0. -1.
          1   -1    0    0  501    0 -0.00000000000E+00 -0.00000000000E+00 -0.10381956849E+03  0.10381956849E+03  0.00000000000E+00 0. -1.
         25    2    1    2    0    0  0.42245677623E+02 -0.35683490049E+02  0.21413106133E+02  0.13835216864E+03  0.12499917085E+03 0.  0.
          2    1    1    2  501    0 -0.42358241381E+02  0.11885616667E+02 -0.32271698236E+02  0.54561442461E+02  0.00000000000E+00 0. -1.
          1    1    1    2  502    0  0.11256375769E+00  0.23797873381E+02  0.71296575240E+02  0.75163509026E+02  0.00000000000E+00 0. -1.
         22    1    3    3    0    0  0.22584429990E+02 -0.34181154834E+02 -0.49784711775E+02  0.64474222371E+02  0.00000000000E+00 0. -1.
         22    1    3    3    0    0  0.19661247633E+02 -0.15023352146E+01  0.71197817909E+02  0.73877946266E+02  0.00000000000E+00 0. -1.
</event>
<event>
 7    1  0.4915160E-006  0.8835055E+02  0.7818608E-02  0.1342141E+00
          2   -1    0    0  502    0  0.00000000000E+00  0.00000000000E+00  0.30475211299E+04  0.30475211299E+04  0.00000000000E+00 0. -1.
          1   -1    0    0  501    0 -0.00000000000E+00 -0.00000000000E+00 -0.10577820274E+02  0.10577820274E+02  0.00000000000E+00 0. -1.
         25    2    1    2    0    0  0.42942674708E+02 -0.49193902663E+02  0.14898998739E+04  0.14965595590E+04  0.12499906386E+03 0.  0.
          2    1    1    2  501    0 -0.27852915949E+02 -0.58313007914E+02  0.20117597965E+03  0.21130065454E+03  0.00000000000E+00 0. -1.
          1    1    1    2  502    0 -0.15089758759E+02  0.10750691058E+03  0.13458674560E+04  0.13502387366E+04  0.00000000000E+00 0. -1.
         22    1    3    3    0    0  0.69245663935E+02 -0.73860268485E+02  0.92868167802E+03  0.93418411479E+03  0.00000000000E+00 0.  1.
         22    1    3    3    0    0 -0.26302989228E+02  0.24666365822E+02  0.56121819590E+03  0.56237544421E+03  0.00000000000E+00 0.  1.
</event>
<event>
 7    1  0.4915160E-006  0.9580186E+02  0.7818608E-02  0.1330249E+00
          2   -1    0    0  502    0  0.00000000000E+00  0.00000000000E+00  0.39337848624E+03  0.39337848624E+03  0.00000000000E+00 0. -1.
          1   -1    0    0  501    0 -0.00000000000E+00 -0.00000000000E+00 -0.11465413334E+04  0.11465413334E+04  0.00000000000E+00 0. -1.
         25    2    1    2    0    0 -0.10139702001E+02  0.55817192744E+02 -0.40426671670E+02  0.14308835237E+03  0.12498635221E+03 0.  0.
          2    1    1    2  501    0 -0.49225559784E+02 -0.84895501621E+02 -0.10492789258E+04  0.10538579914E+04  0.00000000000E+00 0. -1.
          1    1    1    2  502    0  0.59365261785E+02  0.29078308877E+02  0.33654275031E+03  0.34297347586E+03  0.00000000000E+00 0. -1.
         22    1    3    3    0    0 -0.45440070106E+02  0.39492078170E+02 -0.71382493476E+02  0.93380322254E+02  0.00000000000E+00 0.  1.
         22    1    3    3    0    0  0.35300368105E+02  0.16325114574E+02  0.30955821806E+02  0.49708030114E+02  0.00000000000E+00 0.  1.
</event>
<event>
 7    1  0.4915160E-006  0.6220577E+02  0.7818608E-02  0.1537639E+00
          2   -1    0    0  502    0  0.00000000000E+00  0.00000000000E+00  0.12488907265E+03  0.12488907265E+03  0.00000000000E+00 0. -1.
          1   -1    0    0  501    0 -0.00000000000E+00 -0.00000000000E+00 -0.18581735464E+04  0.18581735464E+04  0.00000000000E+00 0. -1.
         25    2    1    2    0    0  0.14347432068E+02 -0.77736538621E+02 -0.10331586846E+04  0.10436894424E+04  0.12498786481E+03 0.  0.
          2    1    1    2  501    0 -0.15999662647E+02  0.56658356905E+02 -0.81774862819E+03  0.81986521912E+03  0.00000000000E+00 0. -1.
          1    1    1    2  502    0  0.16522305793E+01  0.21078181716E+02  0.11762283913E+03  0.11950795746E+03  0.00000000000E+00 0. -1.
         22    1    3    3    0    0 -0.59885940478E+01 -0.26130674443E+02 -0.88629080065E+03  0.88669614792E+03  0.00000000000E+00 0.  1.
         22    1    3    3    0    0  0.20336026115E+02 -0.51605864178E+02 -0.14686788398E+03  0.15699329451E+03  0.00000000000E+00 0.  1.
</event>
<event>
 7    1  0.4915160E-006  0.1025603E+03  0.7818608E-02  0.1300151E+00
          2   -1    0    0  502    0  0.00000000000E+00  0.00000000000E+00  0.36272093255E+02  0.36272093255E+02  0.00000000000E+00 0. -1.
          1   -1    0    0  501    0 -0.00000000000E+00 -0.00000000000E+00 -0.11241943991E+04  0.11241943991E+04  0.00000000000E+00 0. -1.
         25    2    1    2    0    0 -0.20009351447E+02  0.76498621947E+02 -0.22345768892E+03  0.26797489284E+03  0.12499916460E+03 0.  0.
          2    1    1    2  501    0 -0.58873994717E+02 -0.94733893326E+02 -0.70376284224E+03  0.71254669736E+03  0.00000000000E+00 0. -1.
          1    1    1    2  502    0  0.78883346165E+02  0.18235271379E+02 -0.16070177466E+03  0.17994490213E+03  0.00000000000E+00 0. -1.
         22    1    3    3    0    0 -0.70042170679E+02  0.21261498649E+02 -0.11739515244E+03  0.13834586664E+03  0.00000000000E+00 0.  1.
         22    1    3    3    0    0  0.50032819231E+02  0.55237123298E+02 -0.10606253647E+03  0.12962902620E+03  0.00000000000E+00 0.  1.
</event>
<event>
 7    1  0.4915160E-006  0.5988972E+02  0.7818608E-02  0.1490380E+00
          2   -1    0    0  502    0  0.00000000000E+00  0.00000000000E+00  0.10282192176E+04  0.10282192176E+04  0.00000000000E+00 0. -1.
          1   -1    0    0  501    0 -0.00000000000E+00 -0.00000000000E+00 -0.89424653956E+03  0.89424653956E+03  0.00000000000E+00 0. -1.
         25    2    1    2    0    0 -0.71615506703E+02  0.16291281430E+02  0.46512932951E+03  0.48720878417E+03  0.12503167421E+03 0.  0.
          2    1    1    2  501    0  0.13880395298E+02 -0.26823109103E+02 -0.88138767326E+03  0.88190496944E+03  0.00000000000E+00 0. -1.
          1    1    1    2  502    0  0.57735111405E+02  0.10531827673E+02  0.55023102180E+03  0.55335200356E+03  0.00000000000E+00 0. -1.
         22    1    3    3    0    0  0.30974793348E+02  0.24050805437E+02  0.17611507124E+03  0.18042837189E+03  0.00000000000E+00 0. -1.
         22    1    3    3    0    0 -0.10259030005E+03 -0.77595240066E+01  0.28901425827E+03  0.30678041228E+03  0.00000000000E+00 0. -1.
</event>
<event>
 7    1  0.4915160E-006  0.6414899E+02  0.7818608E-02  0.1432090E+00
          2   -1    0    0  502    0  0.00000000000E+00  0.00000000000E+00  0.11670096982E+04  0.11670096982E+04  0.00000000000E+00 0. -1.
          1   -1    0    0  501    0 -0.00000000000E+00 -0.00000000000E+00 -0.22845345453E+03  0.22845345453E+03  0.00000000000E+00 0. -1.
         25    2    1    2    0    0 -0.66459365774E+02  0.73691350430E+02  0.11154843759E+03  0.19470540151E+03  0.12497950641E+03 0.  0.
          2    1    1    2  501    0  0.39910321259E+02 -0.16102733927E+02 -0.18338995233E+03  0.18837198942E+03  0.00000000000E+00 0. -1.
          1    1    1    2  502    0  0.26549044515E+02 -0.57588616503E+02  0.10103977584E+04  0.10123857618E+04  0.00000000000E+00 0. -1.
         22    1    3    3    0    0  0.17790418205E+02 -0.22898390184E+02  0.84145155474E+01  0.30193365576E+02  0.00000000000E+00 0.  1.
         22    1    3    3    0    0 -0.84249783979E+02  0.96589740613E+02  0.10313392205E+03  0.16451203594E+03  0.00000000000E+00 0.  1.
</event>
<event>
 7    1  0.4915160E-006  0.9373545E+02  0.7818608E-02  0.1420784E+00
          2   -1    0    0  502    0  0.00000000000E+00  0.00000000000E+00  0.27382553843E+04  0.27382553843E+04  0.00000000000E+00 0. -1.
          1   -1    0    0  501    0 -0.00000000000E+00 -0.00000000000E+00 -0.92334926296E+02  0.92334926296E+02  0.00000000000E+00 0. -1.
         25    2    1    2    0    0  0.11268518555E+03 -0.29925225893E+02  0.37528077359E+03  0.41237582291E+03  0.12499876042E+03 0.  0.
          2    1    1    2  501    0 -0.92065975814E+02  0.53204854382E+01 -0.44818589037E+02  0.10253368906E+03  0.00000000000E+00 0. -1.
          1    1    1    2  502    0 -0.20619209740E+02  0.24604740455E+02  0.23154582734E+04  0.23156807986E+04  0.00000000000E+00 0. -1.
         22    1    3    3    0    0 -0.19241328446E+02  0.19956411570E+02  0.40305456658E+02  0.48918472171E+02  0.00000000000E+00 0. -1.
         22    1    3    3    0    0  0.13192651400E+03 -0.49881637463E+02  0.33497531693E+03  0.36345735073E+03  0.00000000000E+00 0. -1.
</event>
<event>
 7    1  0.6060189E-006  0.1578351E+03  0.7818608E-02  0.1274741E+00
          2   -1    0    0  502    0  0.00000000000E+00  0.00000000000E+00  0.91773263943E+03  0.91773263943E+03  0.00000000000E+00 0. -1.
          1   -1    0    0  501    0 -0.00000000000E+00 -0.00000000000E+00 -0.16837820778E+04  0.16837820778E+04  0.00000000000E+00 0. -1.
         25    2    1    2    0    0 -0.13991228156E+02  0.16046605601E+03 -0.30976550988E+03  0.37084369340E+03  0.12500105688E+03 0.  0.
          2    1    1    2  501    0  0.65870261950E+02 -0.11168935083E+02 -0.13355965029E+04  0.13372664862E+04  0.00000000000E+00 0. -1.
          1    1    1    2  502    0 -0.51879033795E+02 -0.14929712093E+03  0.87931257438E+03  0.89340453767E+03  0.00000000000E+00 0. -1.
         22    1    3    3    0    0  0.38148464098E+02  0.17228959229E+02 -0.12207533211E+03  0.12905242756E+03  0.00000000000E+00 0.  1.
         22    1    3    3    0    0 -0.52139692254E+02  0.14323709678E+03 -0.18769017777E+03  0.24179126584E+03  0.00000000000E+00 0.  1.
</event>
<event>
 7    1  0.4915160E-006  0.2428381E+02  0.7818608E-02  0.1673309E+00
          2   -1    0    0  502    0  0.00000000000E+00  0.00000000000E+00  0.88192803619E+03  0.88192803619E+03  0.00000000000E+00 0. -1.
          1   -1    0    0  501    0 -0.00000000000E+00 -0.00000000000E+00 -0.79202247503E+02  0.79202247503E+02  0.00000000000E+00 0. -1.
         25    2    1    2    0    0 -0.28440267219E+02  0.84331082149E+01 -0.10623461983E+01  0.12846845824E+03  0.12499220003E+03 0.  0.
          2    1    1    2  501    0  0.19446294201E+02  0.14141639489E+02 -0.41142320548E+01  0.24394081884E+02  0.00000000000E+00 0. -1.
          1    1    1    2  502    0  0.89939730179E+01 -0.22574747704E+02  0.80790236695E+03  0.80826774357E+03  0.00000000000E+00 0. -1.
         22    1    3    3    0    0  0.22953275026E+02 -0.47031779950E+02 -0.60859637710E+01  0.52686621781E+02  0.00000000000E+00 0. -1.
         22    1    3    3    0    0 -0.51393542244E+02  0.55464888165E+02  0.50236175727E+01  0.75781836459E+02  0.00000000000E+00 0. -1.
</event>
<event>
 7    1  0.4915160E-006  0.5865240E+02  0.7818608E-02  0.1406958E+00
          2   -1    0    0  502    0  0.00000000000E+00  0.00000000000E+00  0.38787625755E+03  0.38787625755E+03  0.00000000000E+00 0. -1.
          1   -1    0    0  501    0 -0.00000000000E+00 -0.00000000000E+00 -0.25693305871E+04  0.25693305871E+04  0.00000000000E+00 0. -1.
         25    2    1    2    0    0  0.59341895061E+02  0.28206258166E+02 -0.67957984047E+03  0.69409681332E+03  0.12499829271E+03 0.  0.
          2    1    1    2  501    0 -0.48863437802E+02  0.29570409825E+02 -0.18797912451E+04  0.18806587064E+04  0.00000000000E+00 0. -1.
          1    1    1    2  502    0 -0.10478457259E+02 -0.57776667991E+02  0.37791675606E+03  0.38245132493E+03  0.00000000000E+00 0. -1.
         22    1    3    3    0    0  0.82922668943E+02  0.34092786377E+02 -0.64837072015E+03  0.65454035617E+03  0.00000000000E+00 0. -1.
         22    1    3    3    0    0 -0.23580773882E+02 -0.58865282106E+01 -0.31209120325E+02  0.39556457156E+02  0.00000000000E+00 0. -1.
</event>
<event>
 7    1  0.4915160E-006  0.1551050E+03  0.7818608E-02  0.1195226E+00
          2   -1    0    0  502    0  0.00000000000E+00  0.00000000000E+00  0.21695101608E+04  0.21695101608E+04  0.00000000000E+00 0. -1.
          1   -1    0    0  501    0 -0.00000000000E+00 -0.00000000000E+00 -0.56130632314E+03  0.56130632314E+03  0.00000000000E+00 0. -1.
         25    2    1    2    0    0 -0.82993449357E+02  0.88506698462E+02  0.54726960067E+02  0.18259607544E+03  0.12499975319E+03 0.  0.
          2    1    1    2  501    0 -0.54443968317E+02 -0.15709579285E+03 -0.48049993986E+03  0.50845198989E+03  0.00000000000E+00 0. -1.
          1    1    1    2  502    0  0.13743741767E+03  0.68589094387E+02  0.20339768175E+04  0.20397684186E+04  0.00000000000E+00 0. -1.
         22    1    3    3    0    0 -0.27142840096E+02  0.15842127607E+02 -0.39947701326E+02  0.50828393805E+02  0.00000000000E+00 0.  1.
         22    1    3    3    0    0 -0.55850609261E+02  0.72664570856E+02  0.94674661393E+02  0.13176768163E+03  0.00000000000E+00 0.  1.
</event>
<event>
 7    1  0.4915160E-006  0.5795466E+02  0.7818608E-02  0.1552914E+00
          2   -1    0    0  502    0  0.00000000000E+00  0.00000000000E+00  0.16854034079E+03  0.16854034079E+03  0.00000000000E+00 0. -1.
          1   -1    0    0  501    0 -0.00000000000E+00 -0.00000000000E+00 -0.84287605862E+03  0.84287605862E+03  0.00000000000E+00 0. -1.
         25    2    1    2    0    0 -0.28985701861E+02  0.31660176634E+02 -0.75287854836E+03  0.76439142630E+03  0.12500242528E+03 0.  0.
          2    1    1    2  501    0 -0.20518682087E+02 -0.13058601264E+01 -0.77682023521E+02  0.80356819024E+02  0.00000000000E+00 0. -1.
          1    1    1    2  502    0  0.49504383948E+02 -0.30354316508E+02  0.15622485406E+03  0.16666815409E+03  0.00000000000E+00 0. -1.
         22    1    3    3    0    0 -0.56870524967E+02 -0.13909305129E+02 -0.59170290431E+03  0.59459234131E+03  0.00000000000E+00 0. -1.
         22    1    3    3    0    0  0.27884823107E+02  0.45569481763E+02 -0.16117564405E+03  0.16979908499E+03  0.00000000000E+00 0. -1.
</event>
<event>
 7    1  0.4915160E-006  0.8052402E+02  0.7818608E-02  0.1470541E+00
          2   -1    0    0  502    0  0.00000000000E+00  0.00000000000E+00  0.38087251664E+02  0.38087251664E+02  0.00000000000E+00 0. -1.
          1   -1    0    0  501    0 -0.00000000000E+00 -0.00000000000E+00 -0.14553734506E+04  0.14553734506E+04  0.00000000000E+00 0. -1.
         25    2    1    2    0    0 -0.61907370781E+02  0.11633038053E+02 -0.39173338609E+03  0.41599083760E+03  0.12500192420E+03 0.  0.
          2    1    1    2  501    0 -0.15195519467E+02  0.20899014009E+02 -0.98345187529E+03  0.98379127035E+03  0.00000000000E+00 0. -1.
          1    1    1    2  502    0  0.77102890248E+02 -0.32532052063E+02 -0.42100937601E+02  0.93678594369E+02  0.00000000000E+00 0. -1.
         22    1    3    3    0    0 -0.98669804760E+02  0.12472610145E+02 -0.23847440543E+03  0.25838215577E+03  0.00000000000E+00 0.  1.
         22    1    3    3    0    0  0.36762433980E+02 -0.83957209194E+00 -0.15325898066E+03  0.15760868183E+03  0.00000000000E+00 0.  1.
</event>
<event>
 7    1  0.4915160E-006  0.1684694E+03  0.7818608E-02  0.1336271E+00
          2   -1    0    0  502    0  0.00000000000E+00  0.00000000000E+00  0.10278542016E+04  0.10278542016E+04  0.00000000000E+00 0. -1.
          1   -1    0    0  501    0 -0.00000000000E+00 -0.00000000000E+00 -0.17280684531E+04  0.17280684531E+04  0.00000000000E+00 0. -1.
         25    2    1    2    0    0  0.81503393546E+02  0.11062354223E+03  0.33850805234E+03  0.38611013071E+03  0.12495183184E+03 0.  0.
          2    1    1    2  501    0 -0.11454434375E+03 -0.12403929024E+03 -0.16996039424E+04  0.17079694708E+04  0.00000000000E+00 0. -1.
          1    1    1    2  502    0  0.33040950202E+02  0.13415748007E+02  0.66088163858E+03  0.66184305307E+03  0.00000000000E+00 0. -1.
         22    1    3    3    0    0  0.53306462128E+02 -0.12670696959E+02  0.14426467277E+03  0.15431921875E+03  0.00000000000E+00 0. -1.
         22    1    3    3    0    0  0.28196931418E+02  0.12329423919E+03  0.19424337957E+03  0.23179091196E+03  0.00000000000E+00 0. -1.
</event>
<event>
 7    1  0.4915160E-006  0.1113835E+03  0.7818608E-02  0.1357781E+00
          2   -1    0    0  502    0  0.00000000000E+00  0.00000000000E+00  0.14403430149E+04  0.14403430149E+04  0.00000000000E+00 0. -1.
          1   -1    0    0  501    0 -0.00000000000E+00 -0.00000000000E+00 -0.35259754711E+03  0.35259754711E+03  0.00000000000E+00 0. -1.
         25    2    1    2    0    0 -0.86762546319E+02 -0.90542028687E+02  0.12219824030E+03  0.21513448718E+03  0.12499935696E+03 0.  0.
          2    1    1    2  501    0 -0.13494332486E+02  0.42778649818E+02 -0.30204542889E+03  0.30535807014E+03  0.00000000000E+00 0. -1.
          1    1    1    2  502    0  0.10025687881E+03  0.47763378869E+02  0.12675926564E+04  0.12724480047E+04  0.00000000000E+00 0. -1.
         22    1    3    3    0    0 -0.29706023300E+02 -0.11088170169E+03  0.65494139639E+02  0.13216157504E+03  0.00000000000E+00 0.  1.
         22    1    3    3    0    0 -0.57056523019E+02  0.20339673007E+02  0.56704100657E+02  0.82972912136E+02  0.00000000000E+00 0.  1.
</event>
<event>
 7    1  0.4915160E-006  0.1871288E+03  0.7818608E-02  0.1379687E+00
          2   -1    0    0  502    0  0.00000000000E+00  0.00000000000E+00  0.19736820621E+04  0.19736820621E+04  0.00000000000E+00 0. -1.
          1   -1    0    0  501    0 -0.00000000000E+00 -0.00000000000E+00 -0.70886086105E+02  0.70886086105E+02  0.00000000000E+00 0. -1.
         25    2    1    2    0    0 -0.16950527938E+03 -0.10172966495E+02  0.59850058976E+03  0.63455818716E+03  0.12500243180E+03 0.  0.
          2    1    1    2  501    0  0.19176914631E+03  0.10180989952E+02  0.12202156110E+03  0.22752652462E+03  0.00000000000E+00 0. -1.
          1    1    1    2  502    0 -0.22263866923E+02 -0.80234572344E-02  0.11822738251E+04  0.11824834364E+04  0.00000000000E+00 0. -1.
         22    1    3    3    0    0 -0.35538593216E+02  0.80920714934E+01  0.34795475416E+03  0.34985852023E+03  0.00000000000E+00 0. -1.
         22    1    3    3    0    0 -0.13396668617E+03 -0.18265037988E+02  0.25054583560E+03  0.28469966693E+03  0.00000000000E+00 0. -1.
</event>
<event>
 7    1  0.4915160E-006  0.5826489E+02  0.7818608E-02  0.1484107E+00
          2   -1    0    0  502    0  0.00000000000E+00  0.00000000000E+00  0.36506318815E+03  0.36506318815E+03  0.00000000000E+00 0. -1.
          1   -1    0    0  501    0 -0.00000000000E+00 -0.00000000000E+00 -0.11626526763E+04  0.11626526763E+04  0.00000000000E+00 0. -1.
         25    2    1    2    0    0  0.40668713040E+02 -0.22178699695E+02  0.13337880766E+01  0.13331594234E+03  0.12500209019E+03 0.  0.
          2    1    1    2  501    0 -0.27298754697E+02  0.51731175361E+02 -0.10949952893E+04  0.10965564372E+04  0.00000000000E+00 0. -1.
          1    1    1    2  502    0 -0.13369958344E+02 -0.29552475667E+02  0.29607201302E+03  0.29784348490E+03  0.00000000000E+00 0. -1.
         22    1    3    3    0    0  0.82343556464E+01  0.51256000997E+02  0.89419079676E+01  0.52677698974E+02  0.00000000000E+00 0.  1.
         22    1    3    3    0    0  0.32434357394E+02 -0.73434700691E+02 -0.76081198910E+01  0.80638243368E+02  0.00000000000E+00 0.  1.
</event>
<event>
 7    1  0.4915160E-006  0.3243559E+02  0.7818608E-02  0.1630503E+00
          2   -1    0    0  502    0  0.00000000000E+00  0.00000000000E+00  0.39858730390E+02  0.39858730390E+02  0.00000000000E+00 0. -1.
          1   -1    0    0  501    0 -0.00000000000E+00 -0.00000000000E+00 -0.33696461374E+03  0.33696461374E+03  0.00000000000E+00 0. -1.
         25    2    1    2    0    0  0.29748430927E+02 -0.44683968375E+02 -0.19853044735E+03  0.24066742177E+03  0.12499937281E+03 0.  0.
          2    1    1    2  501    0 -0.10081568407E+02  0.20574291801E+02 -0.10228702119E+03  0.10482163044E+03  0.00000000000E+00 0. -1.
          1    1    1    2  502    0 -0.19666862520E+02  0.24109676573E+02  0.37115851817E+01  0.31334291924E+02  0.00000000000E+00 0. -1.
         22    1    3    3    0    0 -0.39089281518E+01 -0.75782958923E+02 -0.66459468838E+02  0.10087218438E+03  0.00000000000E+00 0.  1.
         22    1    3    3    0    0  0.33657359078E+02  0.31098990548E+02 -0.13207097851E+03  0.13979523739E+03  0.00000000000E+00 0.  1.
</event>
<event>
 7    1  0.4915160E-006  0.1271343E+03  0.7818608E-02  0.1346338E+00
          2   -1    0    0  502    0  0.00000000000E+00  0.00000000000E+00  0.94893625262E+03  0.94893625262E+03  0.00000000000E+00 0. -1.
          1   -1    0    0  501    0 -0.00000000000E+00 -0.00000000000E+00 -0.30169843406E+03  0.30169843406E+03  0.00000000000E+00 0. -1.
         25    2    1    2    0    0  0.98144490223E+02  0.10318008379E+03 -0.44964143092E+02  0.19472436884E+03  0.12496933626E+03 0.  0.
          2    1    1    2  501    0 -0.42022629793E+02  0.10506531322E+02 -0.17459609776E+03  0.17988909352E+03  0.00000000000E+00 0. -1.
          1    1    1    2  502    0 -0.56121860430E+02 -0.11368661511E+03  0.86679805941E+03  0.87602122433E+03  0.00000000000E+00 0. -1.
         22    1    3    3    0    0  0.38964783376E+02 -0.16972090129E+02 -0.43450095940E+02  0.60780070944E+02  0.00000000000E+00 0. -1.
         22    1    3    3    0    0  0.59179706847E+02  0.12015217392E+03 -0.15140471520E+01  0.13394429790E+03  0.00000000000E+00 0. -1.
</event>
<event>
 7    1  0.4915160E-006  0.4914550E+03  0.7818608E-02  0.1148630E+00
          2   -1    0    0  502    0  0.00000000000E+00  0.00000000000E+00  0.19216646856E+04  0.19216646856E+04  0.00000000000E+00 0. -1.
          1   -1    0    0  501    0 -0.00000000000E+00 -0.00000000000E+00 -0.12205720315E+04  0.12205720315E+04  0.00000000000E+00 0. -1.
         25    2    1    2    0    0  0.37630204615E+03 -0.36817632418E+03  0.69221560685E+03  0.87860377223E+03  0.12500042635E+03 0.  0.
          2    1    1    2  501    0  0.22416665039E+01  0.82438272982E+02 -0.10762397475E+04  0.10793947786E+04  0.00000000000E+00 0. -1.
          1    1    1    2  502    0 -0.37854371265E+03  0.28573805120E+03  0.10851167947E+04  0.11842381663E+04  0.00000000000E+00 0. -1.
         22    1    3    3    0    0  0.27385177631E+03 -0.20901244342E+03  0.51297451335E+03  0.61791896575E+03  0.00000000000E+00 0.  1.
         22    1    3    3    0    0  0.10245026984E+03 -0.15916388076E+03  0.17924109351E+03  0.26068480648E+03  0.00000000000E+00 0.  1.
</event>
<event>
 7    1  0.4915160E-006  0.6422931E+02  0.7818608E-02  0.1434322E+00
          2   -1    0    0  502    0  0.00000000000E+00  0.00000000000E+00  0.18344799888E+04  0.18344799888E+04  0.00000000000E+00 0. -1.
          1   -1    0    0  501    0 -0.00000000000E+00 -0.00000000000E+00 -0.23530468251E+03  0.23530468251E+03  0.00000000000E+00 0. -1.
         25    2    1    2    0    0  0.38160946110E+02 -0.30748985820E+02  0.61109856022E+03  0.62567323398E+03  0.12499514980E+03 0.  0.
          2    1    1    2  501    0 -0.64385110330E+02 -0.23961453141E+01 -0.22308998171E+03  0.23220750178E+03  0.00000000000E+00 0. -1.
          1    1    1    2  502    0  0.26224164220E+02  0.33145131134E+02  0.12111667278E+04  0.12119039356E+04  0.00000000000E+00 0. -1.
         22    1    3    3    0    0  0.11560233017E+02 -0.60808097282E+02  0.54381619151E+03  0.54732742836E+03  0.00000000000E+00 0. -1.
         22    1    3    3    0    0  0.26600713093E+02  0.30059111463E+02  0.67282368705E+02  0.78345805616E+02  0.00000000000E+00 0. -1.
</event>
<event>
 7    1  0.4915160E-006  0.1226006E+03  0.7818608E-02  0.1310343E+00
          2   -1    0    0  502    0  0.00000000000E+00  0.00000000000E+00  0.59767647862E+03  0.59767647862E+03  0.00000000000E+00 0. -1.
          1   -1    0    0  501    0 -0.00000000000E+00 -0.00000000000E+00 -0.52828387188E+03  0.52828387188E+03  0.00000000000E+00 0. -1.
         25    2    1    2    0    0 -0.20573026199E+02  0.17325070990E+03 -0.43654345020E+02  0.21901954357E+03  0.12499920295E+03 0.  0.
          2    1    1    2  501    0  0.33198770373E+02 -0.11285229709E+03 -0.38629089815E+03  0.40380497435E+03  0.00000000000E+00 0. -1.
          1    1    1    2  502    0 -0.12625744174E+02 -0.60398412808E+02  0.49933784991E+03  0.50313583259E+03  0.00000000000E+00 0. -1.
         22    1    3    3    0    0  0.50780824748E+02  0.96798519778E+02 -0.13233856753E+02  0.11010804039E+03  0.00000000000E+00 0. -1.
         22    1    3    3    0    0 -0.71353850947E+02  0.76452190120E+02 -0.30420488267E+02  0.10891150318E+03  0.00000000000E+00 0. -1.
</event>
<event>
 7    1  0.4915160E-006  0.5616834E+02  0.7818608E-02  0.1442329E+00
          2   -1    0    0  502    0  0.00000000000E+00  0.00000000000E+00  0.90592376559E+03  0.90592376559E+03  0.00000000000E+00 0. -1.
          1   -1    0    0  501    0 -0.00000000000E+00 -0.00000000000E+00 -0.62116850821E+03  0.62116850821E+03  0.00000000000E+00 0. -1.
         25    2    1    2    0    0  0.11860448267E+02  0.22394519785E+02  0.37691879333E+03  0.39791342378E+03  0.12500052526E+03 0.  0.
          2    1    1    2  501    0  0.23355010439E+02 -0.51232661935E+02 -0.60836979036E+03  0.61096975701E+03  0.00000000000E+00 0. -1.
          1    1    1    2  502    0 -0.35215458706E+02  0.28838142150E+02  0.51620625442E+03  0.51820909301E+03  0.00000000000E+00 0. -1.
         22    1    3    3    0    0 -0.38138752976E+02 -0.25444577037E+02  0.72898370666E+02  0.86117149424E+02  0.00000000000E+00 0.  1.
         22    1    3    3    0    0  0.49999201243E+02  0.47839096822E+02  0.30402042266E+03  0.31179627436E+03  0.00000000000E+00 0.  1.
</event>
<event>
 7    1  0.4915160E-006  0.1696185E+04  0.7818608E-02  0.1115435E+00
          2   -1    0    0  502    0  0.00000000000E+00  0.00000000000E+00  0.37212418759E+04  0.37212418759E+04  0.00000000000E+00 0. -1.
          1   -1    0    0  501    0 -0.00000000000E+00 -0.00000000000E+00 -0.43621736863E+04  0.43621736863E+04  0.00000000000E+00 0. -1.
         25    2    1    2    0    0 -0.16244925437E+04  0.37471233186E+03  0.23320097632E+03  0.16880146026E+04  0.12500098839E+03 0.  0.
          2    1    1    2  501    0  0.16569249673E+04 -0.39003340924E+03 -0.34353419569E+04  0.38339406318E+04  0.00000000000E+00 0. -1.
          1    1    1    2  502    0 -0.32432423558E+02  0.15321077381E+02  0.25612091702E+04  0.25614603278E+04  0.00000000000E+00 0. -1.
         22    1    3    3    0    0 -0.95579314590E+03  0.16667777552E+03  0.16823553683E+03  0.98469549326E+03  0.00000000000E+00 0.  1.
         22    1    3    3    0    0 -0.66869939783E+03  0.20803455634E+03  0.64965439488E+02  0.70331910938E+03  0.00000000000E+00 0.  1.
</event>
<event>
 7    1  0.4915160E-006  0.2357336E+03  0.7818608E-02  0.1296116E+00
          2   -1    0    0  502    0  0.00000000000E+00  0.00000000000E+00  0.58577244540E+02  0.58577244540E+02  0.00000000000E+00 0. -1.
          1   -1    0    0  501    0 -0.00000000000E+00 -0.00000000000E+00 -0.24923312527E+04  0.24923312527E+04  0.00000000000E+00 0. -1.
         25    2    1    2    0    0  0.21551916255E+03  0.15326444672E+02 -0.96079971543E+03  0.99269551055E+03  0.12499949663E+03 0.  0.
          2    1    1    2  501    0 -0.24609660043E+03 -0.35374809450E+02 -0.14949895675E+04  0.15155225900E+04  0.00000000000E+00 0. -1.
          1    1    1    2  502    0  0.30577437880E+02  0.20048364778E+02  0.22035274750E+02  0.42690396706E+02  0.00000000000E+00 0. -1.
         22    1    3    3    0    0 -0.15097591954E+02  0.57116900159E+01 -0.34787567796E+02  0.38350170258E+02  0.00000000000E+00 0. -1.
         22    1    3    3    0    0  0.23061675451E+03  0.96147546558E+01 -0.92601214764E+03  0.95434534029E+03  0.00000000000E+00 0. -1.
</event>
<event>
 7    1  0.4915160E-006  0.6948462E+02  0.7818608E-02  0.1436619E+00
          2   -1    0    0  502    0  0.00000000000E+00  0.00000000000E+00  0.23829593986E+03  0.23829593986E+03  0.00000000000E+00 0. -1.
          1   -1    0    0  501    0 -0.00000000000E+00 -0.00000000000E+00 -0.18797925301E+03  0.18797925301E+03  0.00000000000E+00 0. -1.
         25    2    1    2    0    0 -0.12025750829E+02  0.39296843064E+02  0.21915652766E+02  0.13339180755E+03  0.12499687167E+03 0.  0.
          2    1    1    2  501    0  0.45683617196E+02 -0.57779801911E+02 -0.11933606921E+03  0.14023764046E+03  0.00000000000E+00 0. -1.
          1    1    1    2  502    0 -0.33657866367E+02  0.18482958847E+02  0.14773710329E+03  0.15264574486E+03  0.00000000000E+00 0. -1.
         22    1    3    3    0    0  0.60667573244E+01  0.62770068929E+02 -0.32861734916E+02  0.71111044989E+02  0.00000000000E+00 0.  1.
         22    1    3    3    0    0 -0.18092508153E+02 -0.23473225865E+02  0.54777387682E+02  0.62280762560E+02  0.00000000000E+00 0.  1.
</event>
<event>
 7    1  0.4915160E-006  0.2807031E+02  0.7818608E-02  0.1669163E+00
          2   -1    0    0  502    0  0.00000000000E+00  0.00000000000E+00  0.14527237802E+04  0.14527237802E+04  0.00000000000E+00 0. -1.
          1   -1    0    0  501    0 -0.00000000000E+00 -0.00000000000E+00 -0.60318079052E+03  0.60318079052E+03  0.00000000000E+00 0. -1.
         25    2    1    2    0    0  0.18586918776E+02 -0.19625730819E+01  0.28327644238E+03  0.31019950506E+03  0.12501545861E+03 0.  0.
          2    1    1    2  501    0 -0.20468496597E+02 -0.19235054718E+02 -0.58928677434E+03  0.58995580266E+03  0.00000000000E+00 0. -1.
          1    1    1    2  502    0  0.18815778212E+01  0.21197627800E+02  0.11555533216E+04  0.11557492630E+04  0.00000000000E+00 0. -1.
         22    1    3    3    0    0  0.32912157291E+02  0.15173539552E+02  0.28546595997E+03  0.28775729479E+03  0.00000000000E+00 0. -1.
         22    1    3    3    0    0 -0.14325238515E+02 -0.17136112634E+02 -0.21895175939E+01  0.22442210274E+02  0.00000000000E+00 0. -1.
</event>
<event>
 7    1  0.4915160E-006  0.7928232E+02  0.7818608E-02  0.1500861E+00
          2   -1    0    0  502    0  0.00000000000E+00  0.00000000000E+00  0.51447691433E+02  0.51447691433E+02  0.00000000000E+00 0. -1.
          1   -1    0    0  501    0 -0.00000000000E+00 -0.00000000000E+00 -0.12434938162E+04  0.12434938162E+04  0.00000000000E+00 0. -1.
         25    2    1    2    0    0  0.52622934708E+02  0.30022817813E+02 -0.36144059248E+03  0.38721596942E+03  0.12500544881E+03 0.  0.
          2    1    1    2  501    0  0.20239473421E+02  0.63756450680E+01 -0.82586724815E+03  0.82613981668E+03  0.00000000000E+00 0. -1.
          1    1    1    2  502    0 -0.72862408129E+02 -0.36398462881E+02 -0.47382841127E+01  0.81585721513E+02  0.00000000000E+00 0. -1.
         22    1    3    3    0    0 -0.21715941157E+02 -0.11751180663E+02 -0.22479202546E+03  0.22614404051E+03  0.00000000000E+00 0. -1.
         22    1    3    3    0    0  0.74338875865E+02  0.41773998477E+02 -0.13664856702E+03  0.16107192891E+03  0.00000000000E+00 0. -1.
</event>
<event>
 7    1  0.4915160E-006  0.8168216E+02  0.7818608E-02  0.1425900E+00
          2   -1    0    0  502    0  0.00000000000E+00  0.00000000000E+00  0.93308997228E+03  0.93308997228E+03  0.00000000000E+00 0. -1.
          1   -1    0    0  501    0 -0.00000000000E+00 -0.00000000000E+00 -0.18223289573E+03  0.18223289573E+03  0.00000000000E+00 0. -1.
         25    2    1    2    0    0 -0.15418480008E+02  0.47314700945E+02 -0.26200973668E+02  0.13706652166E+03  0.12499731952E+03 0.  0.
          2    1    1    2  501    0 -0.26122347288E+02  0.23927541018E+02 -0.95474777594E+02  0.10183485358E+03  0.00000000000E+00 0. -1.
          1    1    1    2  502    0  0.41540827296E+02 -0.71242241963E+02  0.87253282781E+03  0.87642149277E+03  0.00000000000E+00 0. -1.
         22    1    3    3    0    0 -0.17615407903E+02 -0.33754080092E+02 -0.39525299425E+02  0.54880687069E+02  0.00000000000E+00 0.  1.
         22    1    3    3    0    0  0.21969278952E+01  0.81068781037E+02  0.13324325757E+02  0.82185834594E+02  0.00000000000E+00 0.  1.
</event>
<event>
 7    1  0.4915160E-006  0.1297820E+03  0.7818608E-02  0.1240137E+00
          2   -1    0    0  502    0  0.00000000000E+00  0.00000000000E+00  0.21886574595E+04  0.21886574595E+04  0.00000000000E+00 0. -1.
          1   -1    0    0  501    0 -0.00000000000E+00 -0.00000000000E+00 -0.87981494831E+03  0.87981494831E+03  0.00000000000E+00 0. -1.
         25    2    1    2    0    0  0.56760204557E+02 -0.74933304758E+02  0.15392285675E+03  0.21944017040E+03  0.12500008629E+03 0.  0.
          2    1    1    2  501    0 -0.13145335316E+03 -0.11626705974E+02 -0.84026987417E+03  0.85056958903E+03  0.00000000000E+00 0. -1.
          1    1    1    2  502    0  0.74693148601E+02  0.86560010732E+02  0.19951895286E+04  0.19984626484E+04  0.00000000000E+00 0. -1.
         22    1    3    3    0    0  0.86266244106E+02 -0.55887685486E+02  0.15298493702E+03  0.18430867916E+03  0.00000000000E+00 0.  1.
         22    1    3    3    0    0 -0.29506039549E+02 -0.19045619272E+02  0.93791973790E+00  0.35131491240E+02  0.00000000000E+00 0.  1.
</event>
<event>
 7    1  0.4915160E-006  0.7775655E+02  0.7818608E-02  0.1471274E+00
          2   -1    0    0  502    0  0.00000000000E+00  0.00000000000E+00  0.13848407232E+04  0.13848407232E+04  0.00000000000E+00 0. -1.
          1   -1    0    0  501    0 -0.00000000000E+00 -0.00000000000E+00 -0.17841017372E+03  0.17841017372E+03  0.00000000000E+00 0. -1.
         25    2    1    2    0    0 -0.10576493401E+02  0.84000499480E+02  0.40465494181E+03  0.43190191621E+03  0.12500278864E+03 0.  0.
          2    1    1    2  501    0 -0.14890953790E+02 -0.76255807192E+02 -0.15543302780E+03  0.17377029311E+03  0.00000000000E+00 0. -1.
          1    1    1    2  502    0  0.25467447191E+02 -0.77446922874E+01  0.95720863550E+03  0.95757868763E+03  0.00000000000E+00 0. -1.
         22    1    3    3    0    0  0.12492500522E+02  0.10682043230E+03  0.36578434110E+03  0.38126742782E+03  0.00000000000E+00 0.  1.
         22    1    3    3    0    0 -0.23068993923E+02 -0.22819932821E+02  0.38870600716E+02  0.50634488391E+02  0.00000000000E+00 0.  1.
</event>
<event>
 7    1  0.4915160E-006  0.6627303E+02  0.7818608E-02  0.1379729E+00
          2   -1    0    0  502    0  0.00000000000E+00  0.00000000000E+00  0.87182620393E+03  0.87182620393E+03  0.00000000000E+00 0. -1.
          1   -1    0    0  501    0 -0.00000000000E+00 -0.00000000000E+00 -0.23206709757E+02  0.23206709757E+02  0.00000000000E+00 0. -1.
         25    2    1    2    0    0  0.16074082753E+01  0.55091408944E+02  0.45739616338E+03  0.47735957398E+03  0.12499306182E+03 0.  0.
          2    1    1    2  501    0  0.62308205494E+02 -0.37572613634E+02  0.13903950378E+03  0.15692672614E+03  0.00000000000E+00 0. -1.
          1    1    1    2  502    0 -0.63915613769E+02 -0.17518795310E+02  0.25218382702E+03  0.26074661356E+03  0.00000000000E+00 0. -1.
         22    1    3    3    0    0  0.58481399892E+02  0.36518454861E+02  0.16362687971E+03  0.17755964474E+03  0.00000000000E+00 0.  1.
         22    1    3    3    0    0 -0.56873991616E+02  0.18572954083E+02  0.29376928367E+03  0.29979992924E+03  0.00000000000E+00 0.  1.
</event>
<event>
 7    1  0.4915160E-006  0.7720798E+02  0.7818608E-02  0.1366831E+00
          2   -1    0    0  502    0  0.00000000000E+00  0.00000000000E+00  0.12743153532E+04  0.12743153532E+04  0.00000000000E+00 0. -1.
          1   -1    0    0  501    0 -0.00000000000E+00 -0.00000000000E+00 -0.62831948275E+02  0.62831948275E+02  0.00000000000E+00 0. -1.
         25    2    1    2    0    0  0.29615800423E+02 -0.20974128415E+01  0.23117980328E+03  0.26448021289E+03  0.12499674713E+03 0.  0.
          2    1    1    2  501    0 -0.74192910696E+02  0.42241588835E+02 -0.50164906933E+01  0.85522540910E+02  0.00000000000E+00 0. -1.
          1    1    1    2  502    0  0.44577110273E+02 -0.40144175993E+02  0.98532009233E+03  0.98714454766E+03  0.00000000000E+00 0. -1.
         22    1    3    3    0    0  0.35387126454E+02 -0.58469165805E+02  0.95438017033E+02  0.11738529364E+03  0.00000000000E+00 0. -1.
         22    1    3    3    0    0 -0.57713260312E+01  0.56371752964E+02  0.13574178624E+03  0.14709491925E+03  0.00000000000E+00 0. -1.
</event>
<event>
 7    1  0.4915160E-006  0.1657001E+03  0.7818608E-02  0.1244007E+00
          2   -1    0    0  502    0  0.00000000000E+00  0.00000000000E+00  0.42540372784E+04  0.42540372784E+04  0.00000000000E+00 0. -1.
          1   -1    0    0  501    0 -0.00000000000E+00 -0.00000000000E+00 -0.81137945575E+02  0.81137945575E+02  0.00000000000E+00 0. -1.
         25    2    1    2    0    0  0.79314662098E+02 -0.13664627645E+03  0.92783556328E+02  0.22180384125E+03  0.12500054071E+03 0.  0.
          2    1    1    2  501    0 -0.31747046792E+02  0.20842512030E+03  0.67482384916E+03  0.70699090033E+03  0.00000000000E+00 0. -1.
          1    1    1    2  502    0 -0.47567615306E+02 -0.71778843858E+02  0.34052919274E+04  0.34063804824E+04  0.00000000000E+00 0. -1.
         22    1    3    3    0    0  0.72922105847E+02 -0.10513347916E+02  0.47378684996E+02  0.87595112863E+02  0.00000000000E+00 0.  1.
         22    1    3    3    0    0  0.63925562513E+01 -0.12613292853E+03  0.45404871331E+02  0.13420872839E+03  0.00000000000E+00 0.  1.
</event>
<event>
 7    1  0.4915160E-006  0.7251857E+02  0.7818608E-02  0.1463474E+00
          2   -1    0    0  502    0  0.00000000000E+00  0.00000000000E+00  0.18870439611E+03  0.18870439611E+03  0.00000000000E+00 0. -1.
          1   -1    0    0  501    0 -0.00000000000E+00 -0.00000000000E+00 -0.67912220869E+03  0.67912220869E+03  0.00000000000E+00 0. -1.
         25    2    1    2    0    0  0.48377674928E+02 -0.36659907054E+02 -0.24305792728E+03  0.27998148898E+03  0.12501251912E+03 0.  0.
          2    1    1    2  501    0 -0.72977848265E+02  0.19162909371E+02 -0.41281749624E+03  0.41965613142E+03  0.00000000000E+00 0. -1.
          1    1    1    2  502    0  0.24600173337E+02  0.17496997683E+02  0.16545761094E+03  0.16818898441E+03  0.00000000000E+00 0. -1.
         22    1    3    3    0    0  0.22281745616E+02 -0.61804945318E+02 -0.47442865562E+02  0.81037972249E+02  0.00000000000E+00 0. -1.
         22    1    3    3    0    0  0.26095929311E+02  0.25145038264E+02 -0.19561506172E+03  0.19894351673E+03  0.00000000000E+00 0. -1.
</event>
<event>
 7    1  0.4915160E-006  0.3771258E+02  0.7818608E-02  0.1621140E+00
          2   -1    0    0  502    0  0.00000000000E+00  0.00000000000E+00  0.82699997302E+03  0.82699997302E+03  0.00000000000E+00 0. -1.
          1   -1    0    0  501    0 -0.00000000000E+00 -0.00000000000E+00 -0.45773333923E+03  0.45773333923E+03  0.00000000000E+00 0. -1.
         25    2    1    2    0    0  0.13208331450E+02  0.24219839736E+02 -0.30027076690E+03  0.32642013472E+03  0.12500604081E+03 0.  0.
          2    1    1    2  501    0 -0.15907077490E+02  0.13416359847E+02 -0.14319811395E+03  0.14470222412E+03  0.00000000000E+00 0. -1.
          1    1    1    2  502    0  0.26987460395E+01 -0.37636199583E+02  0.81273551464E+03  0.81361095341E+03  0.00000000000E+00 0. -1.
         22    1    3    3    0    0 -0.35477897258E+02  0.40527300414E+02 -0.24552767772E+03  0.25136623441E+03  0.00000000000E+00 0. -1.
         22    1    3    3    0    0  0.48686228708E+02 -0.16307460678E+02 -0.54743089183E+02  0.75053900317E+02  0.00000000000E+00 0. -1.
</event>
<event>
 7    1  0.4915160E-006  0.1211381E+03  0.7818608E-02  0.1395364E+00
          2   -1    0    0  502    0  0.00000000000E+00  0.00000000000E+00  0.19819332782E+03  0.19819332782E+03  0.00000000000E+00 0. -1.
          1   -1    0    0  501    0 -0.00000000000E+00 -0.00000000000E+00 -0.13055088694E+04  0.13055088694E+04  0.00000000000E+00 0. -1.
         25    2    1    2    0    0 -0.11022487480E+02 -0.92444756348E+02 -0.41381702208E+03  0.44219525321E+03  0.12499834394E+03 0.  0.
          2    1    1    2  501    0  0.49974647389E+01 -0.29892688249E+02 -0.85682137535E+03  0.85735722819E+03  0.00000000000E+00 0. -1.
          1    1    1    2  502    0  0.60250227413E+01  0.12233744460E+03  0.16332285582E+03  0.20414971586E+03  0.00000000000E+00 0. -1.
         22    1    3    3    0    0 -0.94895598078E+01  0.30934445107E+02 -0.92990834256E+02  0.98459569850E+02  0.00000000000E+00 0. -1.
         22    1    3    3    0    0 -0.15329276725E+01 -0.12337920146E+03 -0.32082618782E+03  0.34373568336E+03  0.00000000000E+00 0. -1.
</event>
<event>
 7    1  0.4915160E-006  0.1607390E+03  0.7818608E-02  0.1270365E+00
          2   -1    0    0  502    0  0.00000000000E+00  0.00000000000E+00  0.83550438007E+03  0.83550438007E+03  0.00000000000E+00 0. -1.
          1   -1    0    0  501    0 -0.00000000000E+00 -0.00000000000E+00 -0.62582594436E+03  0.62582594436E+03  0.00000000000E+00 0. -1.
         25    2    1    2    0    0 -0.86275777794E+01 -0.15801519978E+03 -0.24483524433E+03  0.31719720062E+03  0.12500611487E+03 0.  0.
          2    1    1    2  501    0 -0.59775429610E+02  0.15619637442E+03 -0.32293861157E+03  0.36367534452E+03  0.00000000000E+00 0. -1.
          1    1    1    2  502    0  0.68403007390E+02  0.18188253575E+01  0.77745229160E+03  0.78045777930E+03  0.00000000000E+00 0. -1.
         22    1    3    3    0    0 -0.63693287499E+02 -0.11170170219E+03 -0.17269285136E+03  0.21530658619E+03  0.00000000000E+00 0. -1.
         22    1    3    3    0    0  0.55065709720E+02 -0.46313497588E+02 -0.72142392965E+02  0.10189061443E+03  0.00000000000E+00 0. -1.
</event>
<event>
 7    1  0.4915160E-006  0.9975282E+02  0.7818608E-02  0.1394693E+00
          2   -1    0    0  502    0  0.00000000000E+00  0.00000000000E+00  0.15104066710E+04  0.15104066710E+04  0.00000000000E+00 0. -1.
          1   -1    0    0  501    0 -0.00000000000E+00 -0.00000000000E+00 -0.31770112223E+03  0.31770112223E+03  0.00000000000E+00 0. -1.
         25    2    1    2    0    0 -0.16847609598E+02 -0.13402204422E+03  0.33304818981E+02  0.18703122801E+03  0.12500287596E+03 0.  0.
          2    1    1    2  501    0  0.11348438858E+02  0.35219247665E+02 -0.23765614001E+03  0.24051948643E+03  0.00000000000E+00 0. -1.
          1    1    1    2  502    0  0.54991707396E+01  0.98802796553E+02  0.13970568698E+04  0.14005570788E+04  0.00000000000E+00 0. -1.
         22    1    3    3    0    0  0.45490525184E+02 -0.10512819087E+03  0.12426807113E+02  0.11522044060E+03  0.00000000000E+00 0. -1.
         22    1    3    3    0    0 -0.62338134782E+02 -0.28893853347E+02  0.20878011867E+02  0.71810787413E+02  0.00000000000E+00 0. -1.
</event>
<event>
 7    1  0.4915160E-006  0.1153208E+03  0.7818608E-02  0.1291394E+00
          2   -1    0    0  502    0  0.00000000000E+00  0.00000000000E+00  0.52159971102E+03  0.52159971102E+03  0.00000000000E+00 0. -1.
          1   -1    0    0  501    0 -0.00000000000E+00 -0.00000000000E+00 -0.51375501803E+03  0.51375501803E+03  0.00000000000E+00 0. -1.
         25    2    1    2    0    0  0.96516488940E+01  0.53004226074E+02 -0.13998438026E+03  0.19525181322E+03  0.12500016617E+03 0.  0.
          2    1    1    2  501    0 -0.53582370107E+02  0.56821315730E+02 -0.33449215348E+03  0.34348905812E+03  0.00000000000E+00 0. -1.
          1    1    1    2  502    0  0.43930721213E+02 -0.10982554180E+03  0.48232122674E+03  0.49661385770E+03  0.00000000000E+00 0. -1.
         22    1    3    3    0    0  0.44029991295E+02  0.73783747170E+02 -0.12641594034E+03  0.15285179571E+03  0.00000000000E+00 0. -1.
         22    1    3    3    0    0 -0.34378342401E+02 -0.20779521096E+02 -0.13568439923E+02  0.42400017514E+02  0.00000000000E+00 0. -1.
</event>
<event>
 7    1  0.4915160E-006  0.6563006E+02  0.7818608E-02  0.1408687E+00
          2   -1    0    0  502    0  0.00000000000E+00  0.00000000000E+00  0.24495519555E+04  0.24495519555E+04  0.00000000000E+00 0. -1.
          1   -1    0    0  501    0 -0.00000000000E+00 -0.00000000000E+00 -0.82599956861E+03  0.82599956861E+03  0.00000000000E+00 0. -1.
         25    2    1    2    0    0  0.46617539830E+02  0.11151456981E+02  0.51472718188E+02  0.14343081013E+03  0.12500162625E+03 0.  0.
          2    1    1    2  501    0  0.67828393740E+01 -0.49896816391E+02 -0.77874452671E+03  0.78037089712E+03  0.00000000000E+00 0. -1.
          1    1    1    2  502    0 -0.53400379204E+02  0.38745359409E+02  0.23508241954E+04  0.23517498169E+04  0.00000000000E+00 0. -1.
         22    1    3    3    0    0 -0.21108060897E+02 -0.42513580269E+02  0.18554052894E+02  0.50962806250E+02  0.00000000000E+00 0. -1.
         22    1    3    3    0    0  0.67725600727E+02  0.53665037250E+02  0.32918665294E+02  0.92468003880E+02  0.00000000000E+00 0. -1.
</event>
<event>
 7    1  0.4915160E-006  0.3919330E+02  0.7818608E-02  0.1545177E+00
          2   -1    0    0  502    0  0.00000000000E+00  0.00000000000E+00  0.21050617762E+04  0.21050617762E+04  0.00000000000E+00 0. -1.
          1   -1    0    0  501    0 -0.00000000000E+00 -0.00000000000E+00 -0.48256465727E+02  0.48256465727E+02  0.00000000000E+00 0. -1.
         25    2    1    2    0    0 -0.33353404420E+02 -0.96461909477E+01  0.50836790463E+03  0.52466019158E+03  0.12499956634E+03 0.  0.
          2    1    1    2  501    0  0.50374425223E+00  0.31949123456E+02 -0.33457740946E+02  0.46264680666E+02  0.00000000000E+00 0. -1.
          1    1    1    2  502    0  0.32849660168E+02 -0.22302932508E+02  0.15818951468E+04  0.15823933697E+04  0.00000000000E+00 0. -1.
         22    1    3    3    0    0 -0.68117243393E+02 -0.28876658230E+02  0.19122461148E+03  0.20503822150E+03  0.00000000000E+00 0. -1.
         22    1    3    3    0    0  0.34763838973E+02  0.19230467283E+02  0.31714329315E+03  0.31962197008E+03  0.00000000000E+00 0. -1.
</event>
<event>
 7    1  0.4915160E-006  0.4815335E+02  0.7818608E-02  0.1481838E+00
          2   -1    0    0  502    0  0.00000000000E+00  0.00000000000E+00  0.12776504694E+04  0.12776504694E+04  0.00000000000E+00 0. -1.
          1   -1    0    0  501    0 -0.00000000000E+00 -0.00000000000E+00 -0.21172845849E+03  0.21172845849E+03  0.00000000000E+00 0. -1.
         25    2    1    2    0    0 -0.10117511015E+02 -0.19746478214E+02  0.54154842227E+02  0.13800971403E+03  0.12498658647E+03 0.  0.
          2    1    1    2  501    0 -0.37898002733E+02  0.12412115068E+02 -0.16695248112E+03  0.17164920671E+03  0.00000000000E+00 0. -1.
          1    1    1    2  502    0  0.48015513749E+02  0.73343631459E+01  0.11787196498E+04  0.11797200071E+04  0.00000000000E+00 0. -1.
         22    1    3    3    0    0  0.28644756193E+02 -0.45517050201E+02  0.70504438936E+02  0.88674685373E+02  0.00000000000E+00 0.  1.
         22    1    3    3    0    0 -0.38762267208E+02  0.25770571987E+02 -0.16349596709E+02  0.49335028653E+02  0.00000000000E+00 0.  1.
</event>
<event>
 7    1  0.4915160E-006  0.5031417E+02  0.7818608E-02  0.1550687E+00
          2   -1    0    0  502    0  0.00000000000E+00  0.00000000000E+00  0.43905538387E+03  0.43905538387E+03  0.00000000000E+00 0. -1.
          1   -1    0    0  501    0 -0.00000000000E+00 -0.00000000000E+00 -0.14732605947E+03  0.14732605947E+03  0.00000000000E+00 0. -1.
         25    2    1    2    0    0  0.29417244543E+02  0.15420903644E+02  0.17926661122E+03  0.22105308733E+03  0.12499908389E+03 0.  0.
          2    1    1    2  501    0  0.22905184390E+02 -0.72422040656E+01 -0.12231513943E+03  0.12465187654E+03  0.00000000000E+00 0. -1.
          1    1    1    2  502    0 -0.52322428933E+02 -0.81786995780E+01  0.23477785260E+03  0.24067647947E+03  0.00000000000E+00 0. -1.
         22    1    3    3    0    0 -0.13744248622E+02 -0.44296864018E+02  0.31896711769E+02  0.56289579442E+02  0.00000000000E+00 0.  1.
         22    1    3    3    0    0  0.43161493166E+02  0.59717767662E+02  0.14736989945E+03  0.16476350789E+03  0.00000000000E+00 0.  1.
</event>
<event>
 7    1  0.4915160E-006  0.2028959E+03  0.7818608E-02  0.1238507E+00
          2   -1    0    0  502    0  0.00000000000E+00  0.00000000000E+00  0.13681518998E+04  0.13681518998E+04  0.00000000000E+00 0. -1.
          1   -1    0    0  501    0 -0.00000000000E+00 -0.00000000000E+00 -0.42962374132E+03  0.42962374132E+03  0.00000000000E+00 0. -1.
         25    2    1    2    0    0 -0.90353738421E+02 -0.25344212794E+03 -0.13127677553E+03  0.32444742249E+03  0.12504330412E+03 0.  0.
          2    1    1    2  501    0  0.47147965855E+02  0.57494204710E+02 -0.18666941872E+03  0.20093279012E+03  0.00000000000E+00 0. -1.
          1    1    1    2  502    0  0.43205772566E+02  0.19594792323E+03  0.12564743527E+04  0.12723954285E+04  0.00000000000E+00 0. -1.
         22    1    3    3    0    0 -0.85335424995E+01  0.89803929571E+01  0.95021371471E+01  0.15612796534E+02  0.00000000000E+00 0. -1.
         22    1    3    3    0    0 -0.81820195922E+02 -0.26242252089E+03 -0.14077891268E+03  0.30883462595E+03  0.00000000000E+00 0. -1.
</event>
<event>
 7    1  0.4915160E-006  0.5335323E+02  0.7818608E-02  0.1461170E+00
          2   -1    0    0  502    0  0.00000000000E+00  0.00000000000E+00  0.17441182869E+03  0.17441182869E+03  0.00000000000E+00 0. -1.
          1   -1    0    0  501    0 -0.00000000000E+00 -0.00000000000E+00 -0.11218420538E+04  0.11218420538E+04  0.00000000000E+00 0. -1.
         25    2    1    2    0    0 -0.12678688850E+02  0.12960309795E+02  0.10060801690E+03  0.16147642261E+03  0.12499577279E+03 0.  0.
          2    1    1    2  501    0  0.15150901607E+02  0.51156787264E+02 -0.10666378080E+04  0.10679713387E+04  0.00000000000E+00 0. -1.
          1    1    1    2  502    0 -0.24722127571E+01 -0.64117097059E+02  0.18599566036E+02  0.66806121186E+02  0.00000000000E+00 0. -1.
         22    1    3    3    0    0  0.31816737195E+02  0.33638565913E+02  0.10239634472E+03  0.11237824208E+03  0.00000000000E+00 0. -1.
         22    1    3    3    0    0 -0.44495426045E+02 -0.20678256118E+02 -0.17883278167E+01  0.49098180531E+02  0.00000000000E+00 0. -1.
</event>
<event>
 7    1  0.4915160E-006  0.1679112E+03  0.7818608E-02  0.1287166E+00
          2   -1    0    0  502    0  0.00000000000E+00  0.00000000000E+00  0.19217570566E+04  0.19217570566E+04  0.00000000000E+00 0. -1.
          1   -1    0    0  501    0 -0.00000000000E+00 -0.00000000000E+00 -0.90109884101E+03  0.90109884101E+03  0.00000000000E+00 0. -1.
         25    2    1    2    0    0 -0.16522059823E+03 -0.30553139165E+02 -0.46186564647E+03  0.50712635222E+03  0.12500368530E+03 0.  0.
          2    1    1    2  501    0  0.14981700242E+03  0.84193363095E+02 -0.39844844606E+03  0.43392951130E+03  0.00000000000E+00 0. -1.
          1    1    1    2  502    0  0.15403595811E+02 -0.53640223930E+02  0.18809723081E+04  0.18818000341E+04  0.00000000000E+00 0. -1.
         22    1    3    3    0    0 -0.23069174387E+02  0.43422004243E+02 -0.10974233528E+03  0.12025405362E+03  0.00000000000E+00 0.  1.
         22    1    3    3    0    0 -0.14215142384E+03 -0.73975143408E+02 -0.35212331119E+03  0.38687229860E+03  0.00000000000E+00 0.  1.
</event>
<event>
 7    1  0.4915160E-006  0.3990091E+02  0.7818608E-02  0.1582977E+00
          2   -1    0    0  502    0  0.00000000000E+00  0.00000000000E+00  0.32346400459E+03  0.32346400459E+03  0.00000000000E+00 0. -1.
          1   -1    0    0  501    0 -0.00000000000E+00 -0.00000000000E+00 -0.40983580470E+03  0.40983580470E+03  0.00000000000E+00 0. -1.
         25    2    1    2    0    0 -0.37523553391E+02  0.29846992318E+02 -0.91668514195E+02  0.16225409858E+03  0.12499766399E+03 0.  0.
          2    1    1    2  501    0  0.39501429259E+02 -0.51958136289E+01 -0.28093578450E+03  0.28374684915E+03  0.00000000000E+00 0. -1.
          1    1    1    2  502    0 -0.19778758683E+01 -0.24651178689E+02  0.28623249859E+03  0.28729886155E+03  0.00000000000E+00 0. -1.
         22    1    3    3    0    0 -0.80282903132E+02  0.31295298445E+02 -0.39510382537E+02  0.94793515434E+02  0.00000000000E+00 0.  1.
         22    1    3    3    0    0  0.42759349741E+02 -0.14483061275E+01 -0.52158131658E+02  0.67460583150E+02  0.00000000000E+00 0.  1.
</event>
<event>
 7    1  0.4915160E-006  0.5302473E+02  0.7818608E-02  0.1503763E+00
          2   -1    0    0  502    0  0.00000000000E+00  0.00000000000E+00  0.11764179132E+04  0.11764179132E+04  0.00000000000E+00 0. -1.
          1   -1    0    0  501    0 -0.00000000000E+00 -0.00000000000E+00 -0.32171417244E+03  0.32171417244E+03  0.00000000000E+00 0. -1.
         25    2    1    2    0    0  0.23334591402E+02  0.51257398400E+02  0.45998142391E+03  0.47997710404E+03  0.12499314386E+03 0.  0.
          2    1    1    2  501    0  0.77446012922E+01 -0.52483714405E+02 -0.30911310977E+03  0.31363264141E+03  0.00000000000E+00 0. -1.
          1    1    1    2  502    0 -0.31079192694E+02  0.12263160049E+01  0.70383542665E+03  0.70452234022E+03  0.00000000000E+00 0. -1.
         22    1    3    3    0    0  0.11491556652E+02 -0.40751697633E+02  0.18446874147E+03  0.18926561577E+03  0.00000000000E+00 0. -1.
         22    1    3    3    0    0  0.11843034750E+02  0.92009096033E+02  0.27551268244E+03  0.29071148827E+03  0.00000000000E+00 0. -1.
</event>
<event>
 7    1  0.7385432E-006  0.9444014E+02  0.7818608E-02  0.1451230E+00
          2   -1    0    0  502    0  0.00000000000E+00  0.00000000000E+00  0.81781666722E+03  0.81781666722E+03  0.00000000000E+00 0. -1.
          1   -1    0    0  501    0 -0.00000000000E+00 -0.00000000000E+00 -0.17962871674E+04  0.17962871674E+04  0.00000000000E+00 0. -1.
         25    2    1    2    0    0 -0.10339207356E+03 -0.54552806911E+02 -0.12735449686E+04  0.12849922650E+04  0.12498961694E+03 0.  0.
          2    1    1    2  501    0  0.15541711682E+02  0.20020997912E+02 -0.51396226506E+03  0.51458681975E+03  0.00000000000E+00 0. -1.
          1    1    1    2  502    0  0.87850361881E+02  0.34531809000E+02  0.80903673354E+03  0.81452474985E+03  0.00000000000E+00 0. -1.
         22    1    3    3    0    0 -0.11971416664E+03 -0.20767164263E+02 -0.72024806765E+03  0.73042455856E+03  0.00000000000E+00 0. -1.
         22    1    3    3    0    0  0.16322093074E+02 -0.33785642649E+02 -0.55329690098E+03  0.55456770643E+03  0.00000000000E+00 0. -1.
</event>
<event>
 7    1  0.4915160E-006  0.2242983E+03  0.7818608E-02  0.1248640E+00
          2   -1    0    0  502    0  0.00000000000E+00  0.00000000000E+00  0.20347515764E+04  0.20347515764E+04  0.00000000000E+00 0. -1.
          1   -1    0    0  501    0 -0.00000000000E+00 -0.00000000000E+00 -0.81432747513E+02  0.81432747513E+02  0.00000000000E+00 0. -1.
         25    2    1    2    0    0 -0.16101447169E+03 -0.21061030773E+03  0.87157098804E+03  0.91953483468E+03  0.12500385269E+03 0.  0.
          2    1    1    2  501    0  0.20365656486E+02  0.57202256639E+02 -0.28490961465E+02  0.67071551450E+02  0.00000000000E+00 0. -1.
          1    1    1    2  502    0  0.14064881520E+03  0.15340805109E+03  0.11102388023E+04  0.11295779378E+04  0.00000000000E+00 0. -1.
         22    1    3    3    0    0 -0.11372917452E+03 -0.12655267558E+03  0.35052193185E+03  0.38963512360E+03  0.00000000000E+00 0. -1.
         22    1    3    3    0    0 -0.47285297163E+02 -0.84057632154E+02  0.52104905619E+03  0.52989971108E+03  0.00000000000E+00 0. -1.
</event>
<event>
 7    1  0.4915160E-006  0.2046375E+03  0.7818608E-02  0.1267349E+00
          2   -1    0    0  502    0  0.00000000000E+00  0.00000000000E+00  0.55951508188E+03  0.55951508188E+03  0.00000000000E+00 0. -1.
          1   -1    0    0  501    0 -0.00000000000E+00 -0.00000000000E+00 -0.70504391775E+03  0.70504391775E+03  0.00000000000E+00 0. -1.
         25    2    1    2    0    0 -0.19958314596E+03 -0.12902859197E+03  0.16999265189E+03  0.31781058045E+03  0.12499701457E+03 0.  0.
          2    1    1    2  501    0  0.18838955292E+03  0.74830521913E+02 -0.61223388814E+03  0.64491903713E+03  0.00000000000E+00 0. -1.
          1    1    1    2  502    0  0.11193593038E+02  0.54198070059E+02  0.29671240039E+03  0.30182938205E+03  0.00000000000E+00 0. -1.
         22    1    3    3    0    0 -0.13332737992E+03 -0.13893160782E+02  0.10290312679E+03  0.16899190411E+03  0.00000000000E+00 0.  1.
         22    1    3    3    0    0 -0.66255766042E+02 -0.11513543119E+03  0.67089525102E+02  0.14881867634E+03  0.00000000000E+00 0.  1.
</event>
<event>
 7    1  0.4915160E-006  0.4720755E+02  0.7818608E-02  0.1467565E+00
          2   -1    0    0  502    0  0.00000000000E+00  0.00000000000E+00  0.20364631087E+03  0.20364631087E+03  0.00000000000E+00 0. -1.
          1   -1    0    0  501    0 -0.00000000000E+00 -0.00000000000E+00 -0.59726667628E+03  0.59726667628E+03  0.00000000000E+00 0. -1.
         25    2    1    2    0    0 -0.23913456448E+02  0.80827130176E+02  0.24538876165E+02  0.15274823194E+03  0.12499995018E+03 0.  0.
          2    1    1    2  501    0  0.29761710421E+02 -0.36182347668E+02 -0.52767680965E+03  0.52975252443E+03  0.00000000000E+00 0. -1.
          1    1    1    2  502    0 -0.58482539730E+01 -0.44644782507E+02  0.10951756808E+03  0.11841223078E+03  0.00000000000E+00 0. -1.
         22    1    3    3    0    0 -0.24188324503E+02  0.99848859481E+02  0.55228477453E+02  0.11664070689E+03  0.00000000000E+00 0.  1.
         22    1    3    3    0    0  0.27486805494E+00 -0.19021729305E+02 -0.30689601287E+02  0.36107525052E+02  0.00000000000E+00 0.  1.
</event>
<event>
 7    1  0.4915160E-006  0.5808390E+02  0.7818608E-02  0.1497474E+00
          2   -1    0    0  502    0  0.00000000000E+00  0.00000000000E+00  0.90631659603E+02  0.90631659603E+02  0.00000000000E+00 0. -1.
          1   -1    0    0  501    0 -0.00000000000E+00 -0.00000000000E+00 -0.31642935255E+04  0.31642935255E+04  0.00000000000E+00 0. -1.
         25    2    1    2    0    0 -0.48626347894E+02 -0.48784975626E+02 -0.29239320755E+03  0.32537181292E+03  0.12501413228E+03 0.  0.
          2    1    1    2  501    0  0.19557007087E+02  0.54609438038E+02 -0.28521405586E+04  0.28527303471E+04  0.00000000000E+00 0. -1.
          1    1    1    2  502    0  0.29069340807E+02 -0.58244624127E+01  0.70871900250E+02  0.76823025079E+02  0.00000000000E+00 0. -1.
         22    1    3    3    0    0  0.35971878480E+01  0.31615399793E+01  0.11616911393E+02  0.12565338268E+02  0.00000000000E+00 0. -1.
         22    1    3    3    0    0 -0.52223535742E+02 -0.51946515605E+02 -0.30401011894E+03  0.31280647466E+03  0.00000000000E+00 0. -1.
</event>
<event>
 7    1  0.4915160E-006  0.1467953E+03  0.7818608E-02  0.1240141E+00
          2   -1    0    0  502    0  0.00000000000E+00  0.00000000000E+00  0.17381725553E+04  0.17381725553E+04  0.00000000000E+00 0. -1.
          1   -1    0    0  501    0 -0.00000000000E+00 -0.00000000000E+00 -0.29405051145E+03  0.29405051145E+03  0.00000000000E+00 0. -1.
         25    2    1    2    0    0 -0.78665840713E+02  0.16546872876E+03  0.76198900082E+02  0.23451984278E+03  0.12500027837E+03 0.  0.
          2    1    1    2  501    0 -0.46659454929E+02 -0.89663298825E+02 -0.19939780549E+03  0.22355334201E+03  0.00000000000E+00 0. -1.
          1    1    1    2  502    0  0.12532529564E+03 -0.75805429935E+02  0.15673209493E+04  0.15741498820E+04  0.00000000000E+00 0. -1.
         22    1    3    3    0    0 -0.31342824624E+01 -0.20675026472E+02  0.71636898813E+01  0.22104273318E+02  0.00000000000E+00 0.  1.
         22    1    3    3    0    0 -0.75531558251E+02  0.18614375523E+03  0.69035210201E+02  0.21241556946E+03  0.00000000000E+00 0.  1.
</event>
<event>
 7    1  0.4915160E-006  0.9987628E+02  0.7818608E-02  0.1319989E+00
          2   -1    0    0  502    0  0.00000000000E+00  0.00000000000E+00  0.12930651098E+03  0.12930651098E+03  0.00000000000E+00 0. -1.
          1   -1    0    0  501    0 -0.00000000000E+00 -0.00000000000E+00 -0.13894750526E+04  0.13894750526E+04  0.00000000000E+00 0. -1.
         25    2    1    2    0    0  0.16858232901E+02 -0.28828780401E+02 -0.44074800285E+02  0.13666576133E+03  0.12497857298E+03 0.  0.
          2    1    1    2  501    0 -0.50382387883E+02  0.89644609438E+02 -0.12821534100E+04  0.12862705422E+04  0.00000000000E+00 0. -1.
          1    1    1    2  502    0  0.33524154982E+02 -0.60815829037E+02  0.66059668718E+02  0.95845259976E+02  0.00000000000E+00 0. -1.
         22    1    3    3    0    0 -0.38809202969E+01  0.45763082588E+02  0.30528790179E+01  0.46028701270E+02  0.00000000000E+00 0. -1.
         22    1    3    3    0    0  0.20739153198E+02 -0.74591862989E+02 -0.47127679303E+02  0.90637060058E+02  0.00000000000E+00 0. -1.
</event>
<event>
 7    1  0.4915160E-006  0.3119550E+03  0.7818608E-02  0.1177155E+00
          2   -1    0    0  502    0  0.00000000000E+00  0.00000000000E+00  0.20680468938E+04  0.20680468938E+04  0.00000000000E+00 0. -1.
          1   -1    0    0  501    0 -0.00000000000E+00 -0.00000000000E+00 -0.15159149546E+04  0.15159149546E+04  0.00000000000E+00 0. -1.
         25    2    1    2    0    0  0.30845733957E+03  0.37220250986E+02 -0.33106978339E+02  0.33652021965E+03  0.12497403251E+03 0.  0.
          2    1    1    2  501    0 -0.30855454581E+03  0.56149176006E+02 -0.13114638505E+04  0.13484420896E+04  0.00000000000E+00 0. -1.
          1    1    1    2  502    0  0.97206243163E-01 -0.93369426992E+02  0.18967027681E+04  0.18989995392E+04  0.00000000000E+00 0. -1.
         22    1    3    3    0    0  0.40601789276E+01  0.24100743369E+01 -0.29748337517E+02  0.30120708761E+02  0.00000000000E+00 0. -1.
         22    1    3    3    0    0  0.30439716064E+03  0.34810176649E+02 -0.33586408211E+01  0.30639951089E+03  0.00000000000E+00 0. -1.
</event>
<event>
 7    1  0.4915160E-006  0.1382302E+03  0.7818608E-02  0.1294372E+00
          2   -1    0    0  502    0  0.00000000000E+00  0.00000000000E+00  0.52823658169E+03  0.52823658169E+03  0.00000000000E+00 0. -1.
          1   -1    0    0  501    0 -0.00000000000E+00 -0.00000000000E+00 -0.15600365361E+04  0.15600365361E+04  0.00000000000E+00 0. -1.
         25    2    1    2    0    0  0.10487034512E+03  0.59491566161E+02 -0.39243137924E+03  0.42914434084E+03  0.12500176852E+03 0.  0.
          2    1    1    2  501    0  0.33938891907E+02 -0.53519048103E+02 -0.11388865731E+04  0.11406483960E+04  0.00000000000E+00 0. -1.
          1    1    1    2  502    0 -0.13880923703E+03 -0.59725180578E+01  0.49951799789E+03  0.51848038099E+03  0.00000000000E+00 0. -1.
         22    1    3    3    0    0  0.54953016638E+02  0.58991313359E+02 -0.82992293290E+02  0.11570449358E+03  0.00000000000E+00 0. -1.
         22    1    3    3    0    0  0.49917328482E+02  0.50025280266E+00 -0.30943908595E+03  0.31343984726E+03  0.00000000000E+00 0. -1.
</event>
<event>
 7    1  0.4915160E-006  0.7918014E+02  0.7818608E-02  0.1437934E+00
          2   -1    0    0  502    0  0.00000000000E+00  0.00000000000E+00  0.47799907622E+03  0.47799907622E+03  0.00000000000E+00 0. -1.
          1   -1    0    0  501    0 -0.00000000000E+00 -0.00000000000E+00 -0.78275698528E+03  0.78275698528E+03  0.00000000000E+00 0. -1.
         25    2    1    2    0    0  0.50459722943E+02  0.87964931892E+02  0.86862641969E+02  0.18290457076E+03  0.12499980221E+03 0.  0.
          2    1    1    2  501    0 -0.56423766814E+02 -0.55136051233E+02 -0.73179980875E+03  0.73603979899E+03  0.00000000000E+00 0. -1.
          1    1    1    2  502    0  0.59640438713E+01 -0.32828880660E+02  0.34017925772E+03  0.34181169174E+03  0.00000000000E+00 0. -1.
         22    1    3    3    0    0  0.65828172643E+02 -0.40863126074E+01  0.49119075824E+02  0.82235818680E+02  0.00000000000E+00 0. -1.
         22    1    3    3    0    0 -0.15368449700E+02  0.92051244500E+02  0.37743566145E+02  0.10066875208E+03  0.00000000000E+00 0. -1.
</event>
<event>
 7    1  0.4915160E-006  0.1662812E+03  0.7818608E-02  0.1350904E+00
          2   -1    0    0  502    0  0.00000000000E+00  0.00000000000E+00  0.80382102586E+03  0.80382102586E+03  0.00000000000E+00 0. -1.
          1   -1    0    0  501    0 -0.00000000000E+00 -0.00000000000E+00 -0.13927017833E+04  0.13927017833E+04  0.00000000000E+00 0. -1.
         25    2    1    2    0    0  0.84273499124E+02 -0.13628309396E+03  0.12492584159E+03  0.23855011482E+03  0.12499834810E+03 0.  0.
          2    1    1    2  501    0 -0.59040162870E+02  0.15571860090E+03 -0.13302867524E+04  0.13406703051E+04  0.00000000000E+00 0. -1.
          1    1    1    2  502    0 -0.25233336254E+02 -0.19435506939E+02  0.61648015337E+03  0.61730238919E+03  0.00000000000E+00 0. -1.
         22    1    3    3    0    0  0.55884316208E+02 -0.52633844340E+02  0.12900691592E+03  0.15012049401E+03  0.00000000000E+00 0. -1.
         22    1    3    3    0    0  0.28389182916E+02 -0.83649249616E+02 -0.40810743256E+01  0.88429620804E+02  0.00000000000E+00 0. -1.
</event>
<event>
 7    1  0.4915160E-006  0.6889287E+02  0.7818608E-02  0.1480758E+00
          2   -1    0    0  502    0  0.00000000000E+00  0.00000000000E+00  0.77580881951E+03  0.77580881951E+03  0.00000000000E+00 0. -1.
          1   -1    0    0  501    0 -0.00000000000E+00 -0.00000000000E+00 -0.11247302393E+04  0.11247302393E+04  0.00000000000E+00 0. -1.
         25    2    1    2    0    0  0.49353495419E+02  0.79702216686E+02 -0.16701266513E+03  0.22870485484E+03  0.12499787780E+03 0.  0.
          2    1    1    2  501    0 -0.27438242390E+02 -0.62135785026E+02 -0.92536151773E+03  0.92785109335E+03  0.00000000000E+00 0. -1.
          1    1    1    2  502    0 -0.21915253029E+02 -0.17566431661E+02  0.74345276312E+03  0.74398311058E+03  0.00000000000E+00 0. -1.
         22    1    3    3    0    0 -0.12223845689E+02  0.92325793089E+02 -0.10608053426E+03  0.14116144736E+03  0.00000000000E+00 0. -1.
         22    1    3    3    0    0  0.61577341108E+02 -0.12623576402E+02 -0.60932130876E+02  0.87543407474E+02  0.00000000000E+00 0. -1.
</event>
<event>
 7    1  0.4915160E-006  0.1112911E+03  0.7818608E-02  0.1399574E+00
          2   -1    0    0  502    0  0.00000000000E+00  0.00000000000E+00  0.51868447459E+02  0.51868447459E+02  0.00000000000E+00 0. -1.
          1   -1    0    0  501    0 -0.00000000000E+00 -0.00000000000E+00 -0.18292763659E+04  0.18292763659E+04  0.00000000000E+00 0. -1.
         25    2    1    2    0    0 -0.12056986430E+03  0.53439314000E+02 -0.79080346712E+03  0.81141099729E+03  0.12499932177E+03 0.  0.
          2    1    1    2  501    0  0.13762280557E+02 -0.28782640390E+02 -0.95516496492E+03  0.95569762528E+03  0.00000000000E+00 0. -1.
          1    1    1    2  502    0  0.10680758375E+03 -0.24656673610E+02 -0.31439486357E+02  0.11403619075E+03  0.00000000000E+00 0. -1.
         22    1    3    3    0    0 -0.10279866379E+03  0.48438744002E+02 -0.78327178486E+03  0.79147240392E+03  0.00000000000E+00 0. -1.
         22    1    3    3    0    0 -0.17771200512E+02  0.50005699976E+01 -0.75316822613E+01  0.19938593371E+02  0.00000000000E+00 0. -1.
</event>
<event>
 7    1  0.4915160E-006  0.8865531E+02  0.7818608E-02  0.1456319E+00
          2   -1    0    0  502    0  0.00000000000E+00  0.00000000000E+00  0.12481283344E+03  0.12481283344E+03  0.00000000000E+00 0. -1.
          1   -1    0    0  501    0 -0.00000000000E+00 -0.00000000000E+00 -0.32794965602E+04  0.32794965602E+04  0.00000000000E+00 0. -1.
         25    2    1    2    0    0  0.32783117959E+02 -0.71056530239E+02  0.21059692921E+02  0.14896799987E+03  0.12499676398E+03 0.  0.
          2    1    1    2  501    0 -0.12888345214E+02  0.87812433283E+02 -0.32106127762E+04  0.32118392755E+04  0.00000000000E+00 0. -1.
          1    1    1    2  502    0 -0.19894772745E+02 -0.16755903043E+02  0.34869356534E+02  0.43502118275E+02  0.00000000000E+00 0. -1.
         22    1    3    3    0    0 -0.86285016009E+01 -0.74950010108E+02 -0.31657280950E+02  0.81817715027E+02  0.00000000000E+00 0. -1.
         22    1    3    3    0    0  0.41411619560E+02  0.38934798689E+01  0.52716973871E+02  0.67150284840E+02  0.00000000000E+00 0. -1.
</event>
<event>
 7    1  0.4915160E-006  0.4087110E+03  0.7818608E-02  0.1146175E+00
          2   -1    0    0  502    0  0.00000000000E+00  0.00000000000E+00  0.13777426733E+04  0.13777426733E+04  0.00000000000E+00 0. -1.
          1   -1    0    0  501    0 -0.00000000000E+00 -0.00000000000E+00 -0.20865156813E+04  0.20865156813E+04  0.00000000000E+00 0. -1.
         25    2    1    2    0    0 -0.26773630390E+03  0.17236569348E+03  0.59728601741E+03  0.68830742810E+03  0.12499547299E+03 0.  0.
          2    1    1    2  501    0  0.36940948171E+03 -0.18174805489E+03 -0.20165568597E+04  0.20581538546E+04  0.00000000000E+00 0. -1.
          1    1    1    2  502    0 -0.10167317781E+03  0.93823614101E+01  0.71049783438E+03  0.71779707191E+03  0.00000000000E+00 0. -1.
         22    1    3    3    0    0 -0.26406634060E+01  0.49509669595E+02  0.97476643959E+02  0.10936122075E+03  0.00000000000E+00 0.  1.
         22    1    3    3    0    0 -0.26509564050E+03  0.12285602389E+03  0.49980937345E+03  0.57894620735E+03  0.00000000000E+00 0.  1.
</event>
<event>
 7    1  0.4915160E-006  0.5186665E+02  0.7818608E-02  0.1513995E+00
          2   -1    0    0  502    0  0.00000000000E+00  0.00000000000E+00  0.23736483929E+03  0.23736483929E+03  0.00000000000E+00 0. -1.
          1   -1    0    0  501    0 -0.00000000000E+00 -0.00000000000E+00 -0.42008547276E+03  0.42008547276E+03  0.00000000000E+00 0. -1.
         25    2    1    2    0    0 -0.53371270122E+02  0.56381081665E+02 -0.52365163718E+02  0.15618800437E+03  0.12500105397E+03 0.  0.
          2    1    1    2  501    0  0.41786990222E+02 -0.29072229625E+02 -0.31255015107E+03  0.31666850810E+03  0.00000000000E+00 0. -1.
          1    1    1    2  502    0  0.11584279900E+02 -0.27308852040E+02  0.18219468132E+03  0.18459379958E+03  0.00000000000E+00 0. -1.
         22    1    3    3    0    0  0.19293940633E+01  0.63260569037E+02 -0.73133612047E+02  0.96716841178E+02  0.00000000000E+00 0. -1.
         22    1    3    3    0    0 -0.55300664185E+02 -0.68794873727E+01  0.20768448329E+02  0.59471163195E+02  0.00000000000E+00 0. -1.
</event>
<event>
 7    1  0.4915160E-006  0.3610299E+02  0.7818608E-02  0.1608465E+00
          2   -1    0    0  502    0  0.00000000000E+00  0.00000000000E+00  0.13683949447E+04  0.13683949447E+04  0.00000000000E+00 0. -1.
          1   -1    0    0  501    0 -0.00000000000E+00 -0.00000000000E+00 -0.78149342466E+03  0.78149342466E+03  0.00000000000E+00 0. -1.
         25    2    1    2    0    0 -0.10391347560E+02  0.80585361665E+01  0.89511170771E+02  0.15431866947E+03  0.12501632672E+03 0.  0.
          2    1    1    2  501    0  0.32357231570E+02 -0.16200274318E+02 -0.74854249471E+03  0.74941664361E+03  0.00000000000E+00 0. -1.
          1    1    1    2  502    0 -0.21965884010E+02  0.81417381517E+01  0.12459328440E+04  0.12461530563E+04  0.00000000000E+00 0. -1.
         22    1    3    3    0    0 -0.45530533036E+02  0.14324791365E+02  0.10505329347E+03  0.11538814304E+03  0.00000000000E+00 0.  1.
         22    1    3    3    0    0  0.35139185477E+02 -0.62662551988E+01 -0.15542122697E+02  0.38930526430E+02  0.00000000000E+00 0.  1.
</event>
<event>
 7    1  0.4915160E-006  0.1189668E+03  0.7818608E-02  0.1324998E+00
          2   -1    0    0  502    0  0.00000000000E+00  0.00000000000E+00  0.43465691855E+03  0.43465691855E+03  0.00000000000E+00 0. -1.
          1   -1    0    0  501    0 -0.00000000000E+00 -0.00000000000E+00 -0.42349042890E+04  0.42349042890E+04  0.00000000000E+00 0. -1.
         25    2    1    2    0    0 -0.70190168843E+02 -0.66135515378E+02 -0.68188396010E+03  0.69992270990E+03  0.12500199435E+03 0.  0.
          2    1    1    2  501    0  0.43096836962E+02  0.11486927166E+03 -0.35411079210E+04  0.35432326476E+04  0.00000000000E+00 0. -1.
          1    1    1    2  502    0  0.27093331880E+02 -0.48733756278E+02  0.42274451067E+03  0.42640585003E+03  0.00000000000E+00 0. -1.
         22    1    3    3    0    0 -0.32614935005E+02 -0.38369651795E+02 -0.62168200452E+03  0.62371826886E+03  0.00000000000E+00 0. -1.
         22    1    3    3    0    0 -0.37575233837E+02 -0.27765863583E+02 -0.60201955585E+02  0.76204441043E+02  0.00000000000E+00 0. -1.
</event>
<event>
 7    1  0.4915160E-006  0.7391543E+02  0.7818608E-02  0.1477988E+00
          2   -1    0    0  502    0  0.00000000000E+00  0.00000000000E+00  0.50651725065E+02  0.50651725065E+02  0.00000000000E+00 0. -1.
          1   -1    0    0  501    0 -0.00000000000E+00 -0.00000000000E+00 -0.10161771315E+04  0.10161771315E+04  0.00000000000E+00 0. -1.
         25    2    1    2    0    0 -0.82501598393E+02  0.48493859614E+02 -0.16893393017E+03  0.23091517545E+03  0.12499990933E+03 0.  0.
          2    1    1    2  501    0  0.55864917949E+02 -0.46717076326E+02 -0.80471943506E+03  0.80800788575E+03  0.00000000000E+00 0. -1.
          1    1    1    2  502    0  0.26636680444E+02 -0.17767832881E+01  0.81279587509E+01  0.27905795408E+02  0.00000000000E+00 0. -1.
         22    1    3    3    0    0 -0.64366021596E+02 -0.66854945020E+01 -0.15056932156E+02  0.66440889359E+02  0.00000000000E+00 0.  1.
         22    1    3    3    0    0 -0.18135576797E+02  0.55179354116E+02 -0.15387699802E+03  0.16447428609E+03  0.00000000000E+00 0.  1.
</event>
<event>
 7    1  0.7064034E-006  0.8425271E+02  0.7818608E-02  0.1434569E+00
          2   -1    0    0  502    0  0.00000000000E+00  0.00000000000E+00  0.12231426838E+04  0.12231426838E+04  0.00000000000E+00 0. -1.
          1   -1    0    0  501    0 -0.00000000000E+00 -0.00000000000E+00 -0.16048956532E+04  0.16048956532E+04  0.00000000000E+00 0. -1.
         25    2    1    2    0    0  0.19268204225E+02  0.54969011190E+02 -0.51525468589E+03  0.53339051231E+03  0.12500076559E+03 0.  0.
          2    1    1    2  501    0 -0.21307936931E+02 -0.87064492606E+02 -0.10785005886E+04  0.10822189121E+04  0.00000000000E+00 0. -1.
          1    1    1    2  502    0  0.20397327055E+01  0.32095481415E+02  0.12120023051E+04  0.12124289126E+04  0.00000000000E+00 0. -1.
         22    1    3    3    0    0  0.27416095161E+02  0.58047278570E+02 -0.51967359862E+03  0.52362369878E+03  0.00000000000E+00 0.  1.
         22    1    3    3    0    0 -0.81478909354E+01 -0.30782673795E+01  0.44189127269E+01  0.97668135255E+01  0.00000000000E+00 0.  1.
</event>
<event>
 7    1  0.4915160E-006  0.7698240E+02  0.7818608E-02  0.1398074E+00
          2   -1    0    0  502    0  0.00000000000E+00  0.00000000000E+00  0.12889433752E+04  0.12889433752E+04  0.00000000000E+00 0. -1.
          1   -1    0    0  501    0 -0.00000000000E+00 -0.00000000000E+00 -0.33348097569E+03  0.33348097569E+03  0.00000000000E+00 0. -1.
         25    2    1    2    0    0  0.64630777454E+02  0.32284550768E+02 -0.15176501607E+01  0.14438597587E+03  0.12500230859E+03 0.  0.
          2    1    1    2  501    0 -0.29201603766E+02  0.36410853911E+02 -0.25719995099E+03  0.26140064793E+03  0.00000000000E+00 0. -1.
          1    1    1    2  502    0 -0.35429173688E+02 -0.68695404678E+02  0.12141800006E+04  0.12166377271E+04  0.00000000000E+00 0. -1.
         22    1    3    3    0    0  0.65574328795E+02  0.12179590938E+02 -0.55503876514E+02  0.86769898816E+02  0.00000000000E+00 0.  1.
         22    1    3    3    0    0 -0.94355134135E+00  0.20104959830E+02  0.53986226354E+02  0.57616077052E+02  0.00000000000E+00 0.  1.
</event>
<event>
 7    1  0.4915160E-006  0.3736584E+02  0.7818608E-02  0.1564357E+00
          2   -1    0    0  502    0  0.00000000000E+00  0.00000000000E+00  0.78632117222E+03  0.78632117222E+03  0.00000000000E+00 0. -1.
          1   -1    0    0  501    0 -0.00000000000E+00 -0.00000000000E+00 -0.17625023910E+04  0.17625023910E+04  0.00000000000E+00 0. -1.
         25    2    1    2    0    0 -0.20671291723E+02  0.54655991291E+02  0.22627044589E+03  0.26502215765E+03  0.12499539862E+03 0.  0.
          2    1    1    2  501    0  0.23628167296E+02 -0.17918593479E+02 -0.17423721295E+04  0.17426244587E+04  0.00000000000E+00 0. -1.
          1    1    1    2  502    0 -0.29568755733E+01 -0.36737397811E+02  0.53992046483E+03  0.54117694690E+03  0.00000000000E+00 0. -1.
         22    1    3    3    0    0 -0.36530885897E+02  0.16928527609E+02  0.56727308358E+01  0.40660306770E+02  0.00000000000E+00 0. -1.
         22    1    3    3    0    0  0.15859594175E+02  0.37727463682E+02  0.22059771505E+03  0.22436185088E+03  0.00000000000E+00 0. -1.
</event>
<event>
 7    1  0.4915160E-006  0.2865926E+02  0.7818608E-02  0.1666566E+00
          2   -1    0    0  502    0  0.00000000000E+00  0.00000000000E+00  0.13757008075E+04  0.13757008075E+04  0.00000000000E+00 0. -1.
          1   -1    0    0  501    0 -0.00000000000E+00 -0.00000000000E+00 -0.60943947815E+02  0.60943947815E+02  0.00000000000E+00 0. -1.
         25    2    1    2    0    0  0.43457962200E+02 -0.94931572540E+01  0.96530388335E+03  0.97437936524E+03  0.12499938272E+03 0.  0.
          2    1    1    2  501    0 -0.16431567139E+02  0.13307976665E+02 -0.53947110033E+02  0.57942983376E+02  0.00000000000E+00 0. -1.
          1    1    1    2  502    0 -0.27026395061E+02 -0.38148194106E+01  0.40340008635E+03  0.40432240668E+03  0.00000000000E+00 0. -1.
         22    1    3    3    0    0  0.61372681249E+02 -0.15114713446E+02  0.22158382702E+03  0.23042233608E+03  0.00000000000E+00 0. -1.
         22    1    3    3    0    0 -0.17914719049E+02  0.56215561917E+01  0.74372005633E+03  0.74395702917E+03  0.00000000000E+00 0. -1.
</event>
<event>
 7    1  0.4915160E-006  0.1322066E+03  0.7818608E-02  0.1356127E+00
          2   -1    0    0  502    0  0.00000000000E+00  0.00000000000E+00  0.26985927881E+04  0.26985927881E+04  0.00000000000E+00 0. -1.
          1   -1    0    0  501    0 -0.00000000000E+00 -0.00000000000E+00 -0.13983560384E+04  0.13983560384E+04  0.00000000000E+00 0. -1.
         25    2    1    2    0    0 -0.80787566737E+02 -0.56680007388E+02  0.39799371043E+03  0.42867644236E+03  0.12500097809E+03 0.  0.
          2    1    1    2  501    0  0.11908663459E+03  0.58030574911E+02 -0.13796811468E+04  0.13860264215E+04  0.00000000000E+00 0. -1.
          1    1    1    2  502    0 -0.38299067856E+02 -0.13505675223E+01  0.22819241861E+04  0.22822459626E+04  0.00000000000E+00 0. -1.
         22    1    3    3    0    0  0.79948604764E+01 -0.12524342969E+02 -0.33782964870E+01  0.15237777003E+02  0.00000000000E+00 0. -1.
         22    1    3    3    0    0 -0.88782427214E+02 -0.44155664419E+02  0.40137200691E+03  0.41343866536E+03  0.00000000000E+00 0. -1.
</event>
<event>
 7    1  0.4915160E-006  0.2455079E+03  0.7818608E-02  0.1333879E+00
          2   -1    0    0  502    0  0.00000000000E+00  0.00000000000E+00  0.32541949426E+03  0.32541949426E+03  0.00000000000E+00 0. -1.
          1   -1    0    0  501    0 -0.00000000000E+00 -0.00000000000E+00 -0.96138439575E+03  0.96138439575E+03  0.00000000000E+00 0. -1.
         25    2    1    2    0    0 -0.62497063644E+02  0.25579742203E+03  0.40027897592E+02  0.29421990172E+03  0.12499965560E+03 0.  0.
          2    1    1    2  501    0  0.72119757693E+02 -0.23273772479E+03 -0.81536354671E+03  0.85099108179E+03  0.00000000000E+00 0. -1.
          1    1    1    2  502    0 -0.96226940494E+01 -0.23059697234E+02  0.13937074763E+03  0.14159290651E+03  0.00000000000E+00 0. -1.
         22    1    3    3    0    0 -0.25400777072E+02  0.22819412623E+03 -0.50286525258E+01  0.22965854234E+03  0.00000000000E+00 0. -1.
         22    1    3    3    0    0 -0.37096286572E+02  0.27603295793E+02  0.45056550118E+02  0.64561359377E+02  0.00000000000E+00 0. -1.
</event>
<event>
 7    1  0.4915160E-006  0.3563270E+02  0.7818608E-02  0.1622522E+00
          2   -1    0    0  502    0  0.00000000000E+00  0.00000000000E+00  0.60221758812E+02  0.60221758812E+02  0.00000000000E+00 0. -1.
          1   -1    0    0  501    0 -0.00000000000E+00 -0.00000000000E+00 -0.68568166918E+03  0.68568166918E+03  0.00000000000E+00 0. -1.
         25    2    1    2    0    0  0.10844086409E+02  0.10308206773E+02 -0.30966291092E+03  0.33427535822E+03  0.12500017352E+03 0.  0.
          2    1    1    2  501    0  0.86110755878E+01  0.20078188029E+02 -0.35653810289E+03  0.35720680714E+03  0.00000000000E+00 0. -1.
          1    1    1    2  502    0 -0.19455161997E+02 -0.30386394802E+02  0.40741103434E+02  0.54421262632E+02  0.00000000000E+00 0. -1.
         22    1    3    3    0    0  0.51751601555E+02  0.46715001302E+02 -0.19781211935E+03  0.20973829925E+03  0.00000000000E+00 0.  1.
         22    1    3    3    0    0 -0.40907515146E+02 -0.36406794529E+02 -0.11185079157E+03  0.12453705897E+03  0.00000000000E+00 0.  1.
</event>
<event>
 7    1  0.4915160E-006  0.3444708E+02  0.7818608E-02  0.1556305E+00
          2   -1    0    0  502    0  0.00000000000E+00  0.00000000000E+00  0.77672796655E+01  0.77672796655E+01  0.00000000000E+00 0. -1.
          1   -1    0    0  501    0 -0.00000000000E+00 -0.00000000000E+00 -0.21333583407E+04  0.21333583407E+04  0.00000000000E+00 0. -1.
         25    2    1    2    0    0  0.31352887024E+02  0.20115268243E+02 -0.13619775761E+04  0.13682090884E+04  0.12500225708E+03 0.  0.
          2    1    1    2  501    0 -0.31290751549E+02  0.14404515484E+02 -0.69735300904E+03  0.69820328015E+03  0.00000000000E+00 0. -1.
          1    1    1    2  502    0 -0.62135475129E-01 -0.34519783727E+02 -0.66260475935E+02  0.74713251840E+02  0.00000000000E+00 0. -1.
         22    1    3    3    0    0  0.26040393289E+02 -0.33555371959E+02 -0.17775983030E+03  0.18276384308E+03  0.00000000000E+00 0. -1.
         22    1    3    3    0    0  0.53124937350E+01  0.53670640203E+02 -0.11842177458E+04  0.11854452453E+04  0.00000000000E+00 0. -1.
</event>
<event>
 7    1  0.4915160E-006  0.8560557E+02  0.7818608E-02  0.1319819E+00
          2   -1    0    0  502    0  0.00000000000E+00  0.00000000000E+00  0.15011688452E+04  0.15011688452E+04  0.00000000000E+00 0. -1.
          1   -1    0    0  501    0 -0.00000000000E+00 -0.00000000000E+00 -0.14011739734E+04  0.14011739734E+04  0.00000000000E+00 0. -1.
         25    2    1    2    0    0  0.66915853296E+01  0.16017561422E+03  0.30115452843E+03  0.36334623874E+03  0.12500173801E+03 0.  0.
          2    1    1    2  501    0  0.12455358561E+02 -0.80182175822E+02 -0.13674269380E+04  0.13698323796E+04  0.00000000000E+00 0. -1.
          1    1    1    2  502    0 -0.19146943891E+02 -0.79993438399E+02  0.11662672814E+04  0.11691642003E+04  0.00000000000E+00 0. -1.
         22    1    3    3    0    0 -0.37306459775E+02  0.78952393603E+02  0.23219075303E+03  0.24806813216E+03  0.00000000000E+00 0.  1.
         22    1    3    3    0    0  0.43998045105E+02  0.81223220618E+02  0.68963775397E+02  0.11527810658E+03  0.00000000000E+00 0.  1.
</event>
<event>
 7    1  0.4915160E-006  0.6649253E+02  0.7818608E-02  0.1481027E+00
          2   -1    0    0  502    0  0.00000000000E+00  0.00000000000E+00  0.16213992565E+04  0.16213992565E+04  0.00000000000E+00 0. -1.
          1   -1    0    0  501    0 -0.00000000000E+00 -0.00000000000E+00 -0.59368930674E+03  0.59368930674E+03  0.00000000000E+00 0. -1.
         25    2    1    2    0    0 -0.17305040487E+02 -0.93146048549E+02  0.60538876741E+02  0.16812262037E+03  0.12499843638E+03 0.  0.
          2    1    1    2  501    0  0.12142240658E+01  0.29019939016E+02 -0.53878098183E+03  0.53956332120E+03  0.00000000000E+00 0. -1.
          1    1    1    2  502    0  0.16090816421E+02  0.64126109532E+02  0.15059520548E+04  0.15074026217E+04  0.00000000000E+00 0. -1.
         22    1    3    3    0    0  0.15282450254E+02 -0.28077674693E+01  0.69923366614E+02  0.71629002803E+02  0.00000000000E+00 0.  1.
         22    1    3    3    0    0 -0.32587490741E+02 -0.90338281079E+02 -0.93844898723E+01  0.96493617568E+02  0.00000000000E+00 0.  1.
</event>
<event>
 7    1  0.4915160E-006  0.1130541E+03  0.7818608E-02  0.1407449E+00
          2   -1    0    0  502    0  0.00000000000E+00  0.00000000000E+00  0.23337938028E+04  0.23337938028E+04  0.00000000000E+00 0. -1.
          1   -1    0    0  501    0 -0.00000000000E+00 -0.00000000000E+00 -0.18471020331E+03  0.18471020331E+03  0.00000000000E+00 0. -1.
         25    2    1    2    0    0  0.48472307606E+02 -0.78957968199E+02  0.72978542836E+03  0.74618733320E+03  0.12499935772E+03 0.  0.
          2    1    1    2  501    0 -0.77731738569E+02  0.82850038278E+02 -0.15807687099E+03  0.19466548016E+03  0.00000000000E+00 0. -1.
          1    1    1    2  502    0  0.29259430964E+02 -0.38920700791E+01  0.15773750421E+04  0.15776511927E+04  0.00000000000E+00 0. -1.
         22    1    3    3    0    0  0.54129399909E+02  0.14903763933E+02  0.18448693509E+03  0.19284072011E+03  0.00000000000E+00 0.  1.
         22    1    3    3    0    0 -0.56570923029E+01 -0.93861732132E+02  0.54529849327E+03  0.55334661309E+03  0.00000000000E+00 0.  1.
</event>
<event>
 7    1  0.4915160E-006  0.4729909E+02  0.7818608E-02  0.1486446E+00
          2   -1    0    0  502    0  0.00000000000E+00  0.00000000000E+00  0.25968818910E+04  0.25968818910E+04  0.00000000000E+00 0. -1.
          1   -1    0    0  501    0 -0.00000000000E+00 -0.00000000000E+00 -0.14706684846E+03  0.14706684846E+03  0.00000000000E+00 0. -1.
         25    2    1    2    0    0 -0.85248960968E+02 -0.21471933802E+01  0.24104613449E+03  0.28460602697E+03  0.12500142340E+03 0.  0.
          2    1    1    2  501    0  0.38631521678E+02  0.72506259639E+01 -0.12196236002E+03  0.12813970230E+03  0.00000000000E+00 0. -1.
          1    1    1    2  502    0  0.46617439289E+02 -0.51034325837E+01  0.23307312681E+04  0.23312030102E+04  0.00000000000E+00 0. -1.
         22    1    3    3    0    0 -0.10772095184E+03 -0.28710792505E+00  0.11908308370E+03  0.16057604653E+03  0.00000000000E+00 0. -1.
         22    1    3    3    0    0  0.22471990868E+02 -0.18600854552E+01  0.12196305079E+03  0.12402998044E+03  0.00000000000E+00 0. -1.
</event>
<event>
 7    1  0.4915160E-006  0.5877413E+02  0.7818608E-02  0.1428686E+00
          2   -1    0    0  502    0  0.00000000000E+00  0.00000000000E+00  0.21507267335E+04  0.21507267335E+04  0.00000000000E+00 0. -1.
          1   -1    0    0  501    0 -0.00000000000E+00 -0.00000000000E+00 -0.59937252696E+03  0.59937252696E+03  0.00000000000E+00 0. -1.
         25    2    1    2    0    0  0.79441935794E+02 -0.20024958477E+02  0.38807645032E+02  0.15441216388E+03  0.12500025167E+03 0.  0.
          2    1    1    2  501    0 -0.24741711958E+02  0.41364480091E+02 -0.54007720896E+03  0.54222372150E+03  0.00000000000E+00 0. -1.
          1    1    1    2  502    0 -0.54700223836E+02 -0.21339521614E+02  0.20526237705E+04  0.20534633751E+04  0.00000000000E+00 0. -1.
         22    1    3    3    0    0  0.11078593626E+03 -0.96927054985E+00  0.18009788701E+02  0.11224444595E+03  0.00000000000E+00 0. -1.
         22    1    3    3    0    0 -0.31344000464E+02 -0.19055687927E+02  0.20797856331E+02  0.42167717930E+02  0.00000000000E+00 0. -1.
</event>
<event>
 7    1  0.4915160E-006  0.3074215E+03  0.7818608E-02  0.1214161E+00
          2   -1    0    0  502    0  0.00000000000E+00  0.00000000000E+00  0.23984131175E+04  0.23984131175E+04  0.00000000000E+00 0. -1.
          1   -1    0    0  501    0 -0.00000000000E+00 -0.00000000000E+00 -0.25062148202E+03  0.25062148202E+03  0.00000000000E+00 0. -1.
         25    2    1    2    0    0  0.28061334129E+03 -0.34278658731E+02  0.91174949665E+02  0.32226876941E+03  0.12500165815E+03 0.  0.
          2    1    1    2  501    0  0.14462634067E+02 -0.61518804675E+02 -0.11600721196E+03  0.13210376353E+03  0.00000000000E+00 0. -1.
          1    1    1    2  502    0 -0.29507597535E+03  0.95797463406E+02  0.21726238977E+04  0.21946620665E+04  0.00000000000E+00 0. -1.
         22    1    3    3    0    0  0.25292300365E+03  0.10814324358E+02  0.57678305940E+02  0.25964164220E+03  0.00000000000E+00 0.  1.
         22    1    3    3    0    0  0.27690337633E+02 -0.45092983090E+02  0.33496643724E+02  0.62627127213E+02  0.00000000000E+00 0.  1.
</event>
<event>
 7    1  0.5234079E-006  0.5937938E+02  0.7818608E-02  0.1539042E+00
          2   -1    0    0  502    0  0.00000000000E+00  0.00000000000E+00  0.18841661514E+04  0.18841661514E+04  0.00000000000E+00 0. -1.
          1   -1    0    0  501    0 -0.00000000000E+00 -0.00000000000E+00 -0.45188772091E+03  0.45188772091E+03  0.00000000000E+00 0. -1.
         25    2    1    2    0    0 -0.65488691052E+02  0.38670119312E+02 -0.15439719272E+03  0.21271391395E+03  0.12499827712E+03 0.  0.
          2    1    1    2  501    0  0.21890058982E+02  0.15849774959E+01 -0.26740791016E+03  0.26830705778E+03  0.00000000000E+00 0. -1.
          1    1    1    2  502    0  0.43598632070E+02 -0.40255096808E+02  0.18540835333E+04  0.18550329005E+04  0.00000000000E+00 0. -1.
         22    1    3    3    0    0 -0.55681904092E+02 -0.38387407396E+02 -0.84356737258E+02  0.10812088887E+03  0.00000000000E+00 0.  1.
         22    1    3    3    0    0 -0.98067869600E+01  0.77057526708E+02 -0.70040455462E+02  0.10459302507E+03  0.00000000000E+00 0.  1.
</event>
<event>
 7    1  0.4915160E-006  0.6494815E+02  0.7818608E-02  0.1394850E+00
          2   -1    0    0  502    0  0.00000000000E+00  0.00000000000E+00  0.97895622244E+02  0.97895622244E+02  0.00000000000E+00 0. -1.
          1   -1    0    0  501    0 -0.00000000000E+00 -0.00000000000E+00 -0.36763566435E+04  0.36763566435E+04  0.00000000000E+00 0. -1.
         25    2    1    2    0    0 -0.66488040507E+02  0.16965877072E+02 -0.59868511185E+02  0.15465403220E+03  0.12500052212E+03 0.  0.
          2    1    1    2  501    0  0.28045876982E+02 -0.58725976386E+02 -0.35527545670E+04  0.35533505773E+04  0.00000000000E+00 0. -1.
          1    1    1    2  502    0  0.38442163525E+02  0.41760099314E+02  0.34162056924E+02  0.66247656294E+02  0.00000000000E+00 0. -1.
         22    1    3    3    0    0 -0.14979978820E+02  0.52508774050E+02  0.15432549911E+02  0.56742706266E+02  0.00000000000E+00 0.  1.
         22    1    3    3    0    0 -0.51508061686E+02 -0.35542896978E+02 -0.75301061097E+02  0.97911325936E+02  0.00000000000E+00 0.  1.
</event>
<event>
 7    1  0.4915160E-006  0.7577317E+02  0.7818608E-02  0.1351144E+00
          2   -1    0    0  502    0  0.00000000000E+00  0.00000000000E+00  0.10889575117E+04  0.10889575117E+04  0.00000000000E+00 0. -1.
          1   -1    0    0  501    0 -0.00000000000E+00 -0.00000000000E+00 -0.19854850202E+03  0.19854850202E+03  0.00000000000E+00 0. -1.
         25    2    1    2    0    0 -0.23478799854E+02  0.14097538727E+03  0.27739175697E+03  0.33614877661E+03  0.12499799726E+03 0.  0.
          2    1    1    2  501    0  0.19739722686E+02 -0.71323811125E+02 -0.15942910502E+03  0.17576797835E+03  0.00000000000E+00 0. -1.
          1    1    1    2  502    0  0.37390771679E+01 -0.69651576143E+02  0.77244635773E+03  0.77558925877E+03  0.00000000000E+00 0. -1.
         22    1    3    3    0    0  0.40774187925E+02  0.11144681737E+03  0.18523173003E+03  0.21998572979E+03  0.00000000000E+00 0.  1.
         22    1    3    3    0    0 -0.64252987779E+02  0.29528569899E+02  0.92160026942E+02  0.11616304681E+03  0.00000000000E+00 0.  1.
</event>
<event>
 7    1  0.4915160E-006  0.6155239E+02  0.7818608E-02  0.1392423E+00
          2   -1    0    0  502    0  0.00000000000E+00  0.00000000000E+00  0.85435352567E+03  0.85435352567E+03  0.00000000000E+00 0. -1.
          1   -1    0    0  501    0 -0.00000000000E+00 -0.00000000000E+00 -0.12299785012E+03  0.12299785012E+03  0.00000000000E+00 0. -1.
         25    2    1    2    0    0 -0.45957556393E+02 -0.41969036057E+02  0.11472303198E+03  0.18072129595E+03  0.12500126306E+03 0.  0.
          2    1    1    2  501    0 -0.12268449314E+02  0.61929730635E+02 -0.77394657687E+02  0.99878623456E+02  0.00000000000E+00 0. -1.
          1    1    1    2  502    0  0.58226005707E+02 -0.19960694578E+02  0.69402730126E+03  0.69675145638E+03  0.00000000000E+00 0. -1.
         22    1    3    3    0    0 -0.43889883108E+02 -0.13642953507E+02  0.13707749682E+03  0.14457763366E+03  0.00000000000E+00 0. -1.
         22    1    3    3    0    0 -0.20676732853E+01 -0.28326082550E+02 -0.22354464843E+02  0.36143662292E+02  0.00000000000E+00 0. -1.
</event>
<event>
 7    1  0.4915160E-006  0.1495181E+03  0.7818608E-02  0.1311505E+00
          2   -1    0    0  502    0  0.00000000000E+00  0.00000000000E+00  0.14449715286E+04  0.14449715286E+04  0.00000000000E+00 0. -1.
          1   -1    0    0  501    0 -0.00000000000E+00 -0.00000000000E+00 -0.35210138221E+03  0.35210138221E+03  0.00000000000E+00 0. -1.
         25    2    1    2    0    0  0.67966294778E+02  0.18331603219E+03  0.22061296507E+03  0.32018687001E+03  0.12500146595E+03 0.  0.
          2    1    1    2  501    0 -0.42483931965E+02 -0.14022058278E+03 -0.28398889320E+03  0.31955654863E+03  0.00000000000E+00 0. -1.
          1    1    1    2  502    0 -0.25482362813E+02 -0.43095449409E+02  0.11562460745E+04  0.11573294922E+04  0.00000000000E+00 0. -1.
         22    1    3    3    0    0  0.42413485084E+02  0.14335545838E+03  0.75424894889E+02  0.16744732286E+03  0.00000000000E+00 0. -1.
         22    1    3    3    0    0  0.25552809694E+02  0.39960573815E+02  0.14518807018E+03  0.15273954715E+03  0.00000000000E+00 0. -1.
</event>
<event>
 7    1  0.4915160E-006  0.6029255E+02  0.7818608E-02  0.1419647E+00
          2   -1    0    0  502    0  0.00000000000E+00  0.00000000000E+00  0.16703801674E+04  0.16703801674E+04  0.00000000000E+00 0. -1.
          1   -1    0    0  501    0 -0.00000000000E+00 -0.00000000000E+00 -0.16283815533E+02  0.16283815533E+02  0.00000000000E+00 0. -1.
         25    2    1    2    0    0 -0.20647490352E+02  0.30055779261E+02  0.33688586009E+03  0.36117372359E+03  0.12499882865E+03 0.  0.
          2    1    1    2  501    0 -0.90783398686E+01 -0.82511154827E+02  0.59418797106E+03  0.59995820844E+03  0.00000000000E+00 0. -1.
          1    1    1    2  502    0  0.29725830220E+02  0.52455375566E+02  0.72302252070E+03  0.72553205088E+03  0.00000000000E+00 0. -1.
         22    1    3    3    0    0  0.45300993857E+02  0.31021695051E+02  0.22212318768E+03  0.22880829556E+03  0.00000000000E+00 0. -1.
         22    1    3    3    0    0 -0.65948484209E+02 -0.96591578975E+00  0.11476267240E+03  0.13236542804E+03  0.00000000000E+00 0. -1.
</event>
<event>
 7    1  0.4915160E-006  0.1887661E+03  0.7818608E-02  0.1204152E+00
          2   -1    0    0  502    0  0.00000000000E+00  0.00000000000E+00  0.68537785242E+03  0.68537785242E+03  0.00000000000E+00 0. -1.
          1   -1    0    0  501    0 -0.00000000000E+00 -0.00000000000E+00 -0.10432146460E+04  0.10432146460E+04  0.00000000000E+00 0. -1.
         25    2    1    2    0    0  0.15952708754E+03 -0.78488953839E+02  0.87741750906E+02  0.23437826908E+03  0.12500060253E+03 0.  0.
          2    1    1    2  501    0  0.36568313831E+02  0.10855072099E+03 -0.94755714507E+03  0.95445536500E+03  0.00000000000E+00 0. -1.
          1    1    1    2  502    0 -0.19609540137E+03 -0.30061767148E+02  0.50197860053E+03  0.53975886438E+03  0.00000000000E+00 0. -1.
         22    1    3    3    0    0  0.13604813156E+03 -0.15430497854E+02  0.19081402715E+02  0.13824360489E+03  0.00000000000E+00 0. -1.
         22    1    3    3    0    0  0.23478955986E+02 -0.63058455985E+02  0.68660348191E+02  0.96134664191E+02  0.00000000000E+00 0. -1.
</event>
<event>
 7    1  0.4915160E-006  0.1203458E+03  0.7818608E-02  0.1309422E+00
          2   -1    0    0  502    0  0.00000000000E+00  0.00000000000E+00  0.24493645160E+04  0.24493645160E+04  0.00000000000E+00 0. -1.
          1   -1    0    0  501    0 -0.00000000000E+00 -0.00000000000E+00 -0.10991996461E+04  0.10991996461E+04  0.00000000000E+00 0. -1.
         25    2    1    2    0    0 -0.70060836764E+02 -0.13592017200E+03  0.10053359171E+04  0.10245531530E+04  0.12500417260E+03 0.  0.
          2    1    1    2  501    0  0.59521855554E+02  0.21798148476E+02 -0.10863764660E+04  0.10882241665E+04  0.00000000000E+00 0. -1.
          1    1    1    2  502    0  0.10538981210E+02  0.11412202353E+03  0.14312054189E+04  0.14357868426E+04  0.00000000000E+00 0. -1.
         22    1    3    3    0    0 -0.65291892255E+02 -0.45934234574E+01  0.29649773855E+03  0.30363636096E+03  0.00000000000E+00 0.  1.
         22    1    3    3    0    0 -0.47689445089E+01 -0.13132674855E+03  0.70883817853E+03  0.72091679205E+03  0.00000000000E+00 0.  1.
</event>
<event>
 7    1  0.4915160E-006  0.8426209E+02  0.7818608E-02  0.1349807E+00
          2   -1    0    0  502    0  0.00000000000E+00  0.00000000000E+00  0.10435931179E+04  0.10435931179E+04  0.00000000000E+00 0. -1.
          1   -1    0    0  501    0 -0.00000000000E+00 -0.00000000000E+00 -0.26612177547E+02  0.26612177547E+02  0.00000000000E+00 0. -1.
         25    2    1    2    0    0 -0.61928000302E+02 -0.27851168048E+02  0.33731613676E+03  0.36608426509E+03  0.12499899298E+03 0.  0.
          2    1    1    2  501    0 -0.25633792564E+02  0.58034638574E+02  0.11006988569E+03  0.12704522947E+03  0.00000000000E+00 0. -1.
          1    1    1    2  502    0  0.87561792866E+02 -0.30183470526E+02  0.56959491791E+03  0.57707580089E+03  0.00000000000E+00 0. -1.
         22    1    3    3    0    0 -0.49553418448E+02 -0.71419612560E+02  0.27910700915E+03  0.29233033523E+03  0.00000000000E+00 0.  1.
         22    1    3    3    0    0 -0.12374581854E+02  0.43568444512E+02  0.58209127605E+02  0.73753929860E+02  0.00000000000E+00 0.  1.
</event>
<event>
 7    1  0.4915160E-006  0.1164362E+03  0.7818608E-02  0.1275959E+00
          2   -1    0    0  502    0  0.00000000000E+00  0.00000000000E+00  0.25648838622E+03  0.25648838622E+03  0.00000000000E+00 0. -1.
          1   -1    0    0  501    0 -0.00000000000E+00 -0.00000000000E+00 -0.48968856433E+03  0.48968856433E+03  0.00000000000E+00 0. -1.
         25    2    1    2    0    0  0.47071271453E+02  0.97848749586E+02  0.99481664571E+02  0.19316245482E+03  0.12500019989E+03 0.  0.
          2    1    1    2  501    0  0.79516346842E+02 -0.41107427303E+02 -0.39203740152E+03  0.40212683843E+03  0.00000000000E+00 0. -1.
          1    1    1    2  502    0 -0.12658761830E+03 -0.56741322283E+02  0.59355558845E+02  0.15088765730E+03  0.00000000000E+00 0. -1.
         22    1    3    3    0    0  0.17460927301E+02 -0.14465598022E+02 -0.17248465182E+02  0.28489420132E+02  0.00000000000E+00 0. -1.
         22    1    3    3    0    0  0.29610344152E+02  0.11231434761E+03  0.11673012975E+03  0.16467303468E+03  0.00000000000E+00 0. -1.
</event>
<event>
 7    1  0.4915160E-006  0.8215454E+02  0.7818608E-02  0.1452055E+00
          2   -1    0    0  502    0  0.00000000000E+00  0.00000000000E+00  0.30725405514E+03  0.30725405514E+03  0.00000000000E+00 0. -1.
          1   -1    0    0  501    0 -0.00000000000E+00 -0.00000000000E+00 -0.12614501405E+04  0.12614501405E+04  0.00000000000E+00 0. -1.
         25    2    1    2    0    0 -0.72766769245E+02  0.44648420975E+02 -0.17706944021E+03  0.23295002203E+03  0.12499456750E+03 0.  0.
          2    1    1    2  501    0  0.21389654423E+02  0.19522391761E+02 -0.10501881747E+04  0.10505873802E+04  0.00000000000E+00 0. -1.
          1    1    1    2  502    0  0.51377114822E+02 -0.64170812736E+02  0.27306152958E+03  0.28516679342E+03  0.00000000000E+00 0. -1.
         22    1    3    3    0    0 -0.16045034463E+02  0.26182250834E+02  0.13292156260E+02  0.33460944513E+02  0.00000000000E+00 0. -1.
         22    1    3    3    0    0 -0.56721734782E+02  0.18466170140E+02 -0.19036159647E+03  0.19948907752E+03  0.00000000000E+00 0. -1.
</event>
<event>
 7    1  0.4915160E-006  0.1104795E+03  0.7818608E-02  0.1315582E+00
          2   -1    0    0  502    0  0.00000000000E+00  0.00000000000E+00  0.74915687813E+03  0.74915687813E+03  0.00000000000E+00 0. -1.
          1   -1    0    0  501    0 -0.00000000000E+00 -0.00000000000E+00 -0.25410182078E+04  0.25410182078E+04  0.00000000000E+00 0. -1.
         25    2    1    2    0    0  0.23401719256E+02  0.17015309568E+03  0.57072437823E+02  0.21995898173E+03  0.12499989621E+03 0.  0.
          2    1    1    2  501    0 -0.15302436302E+02 -0.63490962373E+02 -0.24544526484E+04  0.24553213782E+04  0.00000000000E+00 0. -1.
          1    1    1    2  502    0 -0.80992829549E+01 -0.10666213331E+03  0.60551888086E+03  0.61489472607E+03  0.00000000000E+00 0. -1.
         22    1    3    3    0    0 -0.42073817866E+02  0.32220658915E+02  0.39852814813E+02  0.66307042305E+02  0.00000000000E+00 0. -1.
         22    1    3    3    0    0  0.65475537123E+02  0.13793243677E+03  0.17219623011E+02  0.15365193943E+03  0.00000000000E+00 0. -1.
</event>
<event>
 7    1  0.4915160E-006  0.6296250E+02  0.7818608E-02  0.1432299E+00
          2   -1    0    0  502    0  0.00000000000E+00  0.00000000000E+00  0.18008728445E+04  0.18008728445E+04  0.00000000000E+00 0. -1.
          1   -1    0    0  501    0 -0.00000000000E+00 -0.00000000000E+00 -0.16993503332E+04  0.16993503332E+04  0.00000000000E+00 0. -1.
         25    2    1    2    0    0  0.21502403412E+02  0.52215569293E+02  0.23302386507E+03  0.27039429644E+03  0.12499653924E+03 0.  0.
          2    1    1    2  501    0 -0.57076192714E+02 -0.26700038783E+02 -0.16797649783E+04  0.16809464495E+04  0.00000000000E+00 0. -1.
          1    1    1    2  502    0  0.35573789302E+02 -0.25515530510E+02  0.15482636245E+04  0.15488824318E+04  0.00000000000E+00 0. -1.
         22    1    3    3    0    0 -0.49943339976E+01  0.70725481518E+02  0.22660926368E+03  0.23744219400E+03  0.00000000000E+00 0.  1.
         22    1    3    3    0    0  0.26496737410E+02 -0.18509912225E+02  0.64146013995E+01  0.32952102437E+02  0.00000000000E+00 0.  1.
</event>
<event>
 7    1  0.4915160E-006  0.1055832E+03  0.7818608E-02  0.1444542E+00
          2   -1    0    0  502    0  0.00000000000E+00  0.00000000000E+00  0.36730799081E+04  0.36730799081E+04  0.00000000000E+00 0. -1.
          1   -1    0    0  501    0 -0.00000000000E+00 -0.00000000000E+00 -0.14344104410E+03  0.14344104410E+03  0.00000000000E+00 0. -1.
         25    2    1    2    0    0 -0.46496400077E+02  0.11643205752E+03  0.21509269043E+04  0.21582006618E+04  0.12500083954E+03 0.  0.
          2    1    1    2  501    0  0.49886460196E+02 -0.92855580191E+02 -0.11982752414E+03  0.15959151990E+03  0.00000000000E+00 0. -1.
          1    1    1    2  502    0 -0.33900601183E+01 -0.23576477328E+02  0.14985394839E+04  0.14987287705E+04  0.00000000000E+00 0. -1.
         22    1    3    3    0    0 -0.56438227734E+02  0.65585081457E+02  0.57989240488E+03  0.58631209922E+03  0.00000000000E+00 0.  1.
         22    1    3    3    0    0  0.99418276571E+01  0.50846976062E+02  0.15710344994E+04  0.15718885626E+04  0.00000000000E+00 0.  1.
</event>
<event>
 7    1  0.4915160E-006  0.1920022E+03  0.7818608E-02  0.1203507E+00
          2   -1    0    0  502    0  0.00000000000E+00  0.00000000000E+00  0.63917420938E+03  0.63917420938E+03  0.00000000000E+00 0. -1.
          1   -1    0    0  501    0 -0.00000000000E+00 -0.00000000000E+00 -0.15881626337E+04  0.15881626337E+04  0.00000000000E+00 0. -1.
         25    2    1    2    0    0  0.15497012870E+03  0.17085815380E+03 -0.33326611520E+03  0.42414766748E+03  0.12500676292E+03 0.  0.
          2    1    1    2  501    0 -0.42443783960E+02 -0.18490981834E+03 -0.11964981550E+04  0.12114458100E+04  0.00000000000E+00 0. -1.
          1    1    1    2  502    0 -0.11252634474E+03  0.14051664531E+02  0.58077584588E+03  0.59174336557E+03  0.00000000000E+00 0. -1.
         22    1    3    3    0    0  0.21349327184E+02  0.60129069069E+02 -0.18568312009E+03  0.19634031630E+03  0.00000000000E+00 0. -1.
         22    1    3    3    0    0  0.13362080152E+03  0.11072908474E+03 -0.14758299511E+03  0.22780735118E+03  0.00000000000E+00 0. -1.
</event>
<event>
 7    1  0.4915160E-006  0.1138508E+03  0.7818608E-02  0.1367780E+00
          2   -1    0    0  502    0  0.00000000000E+00  0.00000000000E+00  0.27649052672E+04  0.27649052672E+04  0.00000000000E+00 0. -1.
          1   -1    0    0  501    0 -0.00000000000E+00 -0.00000000000E+00 -0.13589835152E+03  0.13589835152E+03  0.00000000000E+00 0. -1.
         25    2    1    2    0    0 -0.56104403258E+02 -0.61960394267E+02  0.64258068839E+03  0.65994140995E+03  0.12500371576E+03 0.  0.
          2    1    1    2  501    0  0.53081246835E+02  0.10220905656E+03 -0.10091675264E+03  0.15312903374E+03  0.00000000000E+00 0. -1.
          1    1    1    2  502    0  0.30231564233E+01 -0.40248662296E+02  0.20873429799E+04  0.20877331750E+04  0.00000000000E+00 0. -1.
         22    1    3    3    0    0  0.14191505638E+01 -0.34560724347E+02  0.52557630360E+03  0.52671330775E+03  0.00000000000E+00 0. -1.
         22    1    3    3    0    0 -0.57523553822E+02 -0.27399669920E+02  0.11700438479E+03  0.13322810220E+03  0.00000000000E+00 0. -1.
</event>
<event>
 7    1  0.4915160E-006  0.5804143E+02  0.7818608E-02  0.1463591E+00
          2   -1    0    0  502    0  0.00000000000E+00  0.00000000000E+00  0.23502961575E+03  0.23502961575E+03  0.00000000000E+00 0. -1.
          1   -1    0    0  501    0 -0.00000000000E+00 -0.00000000000E+00 -0.36127027632E+03  0.36127027632E+03  0.00000000000E+00 0. -1.
         25    2    1    2    0    0 -0.77511661563E+02  0.54883166878E+02  0.82649624169E+02  0.17741585753E+03  0.12500082577E+03 0.  0.
          2    1    1    2  501    0  0.46603337824E+02 -0.33321876626E+02 -0.30777488158E+03  0.31306164935E+03  0.00000000000E+00 0. -1.
          1    1    1    2  502    0  0.30908323739E+02 -0.21561290251E+02  0.98884596842E+02  0.10582238519E+03  0.00000000000E+00 0. -1.
         22    1    3    3    0    0 -0.75072475477E+02  0.48371501670E+02  0.11427639753E+03  0.14503369878E+03  0.00000000000E+00 0.  1.
         22    1    3    3    0    0 -0.24391860859E+01  0.65116652076E+01 -0.31626773361E+02  0.32382158757E+02  0.00000000000E+00 0.  1.
</event>
<event>
 7    1  0.4915160E-006  0.3148724E+03  0.7818608E-02  0.1271751E+00
          2   -1    0    0  502    0  0.00000000000E+00  0.00000000000E+00  0.23445680663E+04  0.23445680663E+04  0.00000000000E+00 0. -1.
          1   -1    0    0  501    0 -0.00000000000E+00 -0.00000000000E+00 -0.29609441754E+03  0.29609441754E+03  0.00000000000E+00 0. -1.
         25    2    1    2    0    0  0.83833070386E+02  0.32826986835E+03  0.83618862716E+03  0.91083519762E+03  0.12498098608E+03 0.  0.
          2    1    1    2  501    0 -0.35180938951E+01 -0.34287093014E+02 -0.24175171188E+03  0.24419637985E+03  0.00000000000E+00 0. -1.
          1    1    1    2  502    0 -0.80314976491E+02 -0.29398277534E+03  0.14540367335E+04  0.14856309064E+04  0.00000000000E+00 0. -1.
         22    1    3    3    0    0  0.40540015738E+02  0.24191030737E+03  0.44741797773E+03  0.51024203716E+03  0.00000000000E+00 0. -1.
         22    1    3    3    0    0  0.43293054648E+02  0.86359560982E+02  0.38877064943E+03  0.40059316046E+03  0.00000000000E+00 0. -1.
</event>
<event>
 7    1  0.4915160E-006  0.7958823E+02  0.7818608E-02  0.1460071E+00
          2   -1    0    0  502    0  0.00000000000E+00  0.00000000000E+00  0.24995495777E+03  0.24995495777E+03  0.00000000000E+00 0. -1.
          1   -1    0    0  501    0 -0.00000000000E+00 -0.00000000000E+00 -0.33480416778E+03  0.33480416778E+03  0.00000000000E+00 0. -1.
         25    2    1    2    0    0 -0.36775380947E+02  0.86953769806E+02 -0.63668797812E+02  0.16909108618E+03  0.12499877152E+03 0.  0.
          2    1    1    2  501    0 -0.12353594278E+02 -0.25342498227E+02 -0.20957197572E+03  0.21145984611E+03  0.00000000000E+00 0. -1.
          1    1    1    2  502    0  0.49128975225E+02 -0.61611271579E+02  0.18839156352E+03  0.20420819327E+03  0.00000000000E+00 0. -1.
         22    1    3    3    0    0 -0.51443057977E+02  0.45859702971E+02  0.22506795001E+02  0.72498664759E+02  0.00000000000E+00 0. -1.
         22    1    3    3    0    0  0.14667677030E+02  0.41094066836E+02 -0.86175592813E+02  0.96592421417E+02  0.00000000000E+00 0. -1.
</event>
<event>
 7    1  0.4915160E-006  0.1106247E+03  0.7818608E-02  0.1436782E+00
          2   -1    0    0  502    0  0.00000000000E+00  0.00000000000E+00  0.11001856746E+04  0.11001856746E+04  0.00000000000E+00 0. -1.
          1   -1    0    0  501    0 -0.00000000000E+00 -0.00000000000E+00 -0.15348020021E+03  0.15348020021E+03  0.00000000000E+00 0. -1.
         25    2    1    2    0    0  0.10093006749E+03 -0.72968736355E+02  0.37782808375E+02  0.18045340704E+03  0.12499830597E+03 0.  0.
          2    1    1    2  501    0 -0.23499486153E+02 -0.52978510145E+01 -0.77247155589E+02  0.80916105451E+02  0.00000000000E+00 0. -1.
          1    1    1    2  502    0 -0.77430581341E+02  0.78266587369E+02  0.98616982156E+03  0.99229636228E+03  0.00000000000E+00 0. -1.
         22    1    3    3    0    0  0.17558307622E+02 -0.24442526612E+02 -0.44459718733E+02  0.53687967587E+02  0.00000000000E+00 0. -1.
         22    1    3    3    0    0  0.83371759871E+02 -0.48526209742E+02  0.82242527108E+02  0.12676543946E+03  0.00000000000E+00 0. -1.
</event>
<event>
 7    1  0.4915160E-006  0.3423571E+02  0.7818608E-02  0.1569166E+00
          2   -1    0    0  502    0  0.00000000000E+00  0.00000000000E+00  0.17622194531E+04  0.17622194531E+04  0.00000000000E+00 0. -1.
          1   -1    0    0  501    0 -0.00000000000E+00 -0.00000000000E+00 -0.53763929199E+03  0.53763929199E+03  0.00000000000E+00 0. -1.
         25    2    1    2    0    0 -0.13491110696E+02  0.56080115394E+01 -0.36725833462E+03  0.38821977956E+03  0.12498981171E+03 0.  0.
          2    1    1    2  501    0  0.14864777231E+02 -0.36980008840E+02 -0.15727356130E+03  0.16224504843E+03  0.00000000000E+00 0. -1.
          1    1    1    2  502    0 -0.13736665342E+01  0.31371997301E+02  0.17491120571E+04  0.17493939171E+04  0.00000000000E+00 0. -1.
         22    1    3    3    0    0  0.41032706077E+02 -0.91786976676E+01 -0.47192562001E+02  0.63206561108E+02  0.00000000000E+00 0.  1.
         22    1    3    3    0    0 -0.54523816774E+02  0.14786709207E+02 -0.32006577262E+03  0.32501321845E+03  0.00000000000E+00 0.  1.
</event>
<event>
 7    1  0.4915160E-006  0.7437940E+02  0.7818608E-02  0.1350676E+00
          2   -1    0    0  502    0  0.00000000000E+00  0.00000000000E+00  0.43512565297E+03  0.43512565297E+03  0.00000000000E+00 0. -1.
          1   -1    0    0  501    0 -0.00000000000E+00 -0.00000000000E+00 -0.20689495497E+03  0.20689495497E+03  0.00000000000E+00 0. -1.
         25    2    1    2    0    0 -0.33671794241E+01  0.81152842368E+01  0.12559674091E+03  0.17742031741E+03  0.12500492778E+03 0.  0.
          2    1    1    2  501    0  0.66951815240E+02 -0.40470018387E+02 -0.16767884826E+03  0.18503125170E+03  0.00000000000E+00 0. -1.
          1    1    1    2  502    0 -0.63584635816E+02  0.32354734150E+02  0.27031280535E+03  0.27956903883E+03  0.00000000000E+00 0. -1.
         22    1    3    3    0    0  0.23029787037E+01 -0.35886485048E+02 -0.78369185530E+01  0.36804358607E+02  0.00000000000E+00 0. -1.
         22    1    3    3    0    0 -0.56701581278E+01  0.44001769285E+02  0.13343365946E+03  0.14061595881E+03  0.00000000000E+00 0. -1.
</event>
<event>
 7    1  0.4915160E-006  0.3153837E+02  0.7818608E-02  0.1600726E+00
          2   -1    0    0  502    0  0.00000000000E+00  0.00000000000E+00  0.13019193760E+03  0.13019193760E+03  0.00000000000E+00 0. -1.
          1   -1    0    0  501    0 -0.00000000000E+00 -0.00000000000E+00 -0.55675513708E+03  0.55675513708E+03  0.00000000000E+00 0. -1.
         25    2    1    2    0    0 -0.28427136811E+02 -0.41334611290E+02 -0.53231308726E+02  0.14483454382E+03  0.12500728242E+03 0.  0.
          2    1    1    2  501    0  0.28467541929E+02  0.13247475355E+02 -0.45482883968E+03  0.45591136195E+03  0.00000000000E+00 0. -1.
          1    1    1    2  502    0 -0.40405117726E-01  0.28087135934E+02  0.81496948922E+02  0.86201168908E+02  0.00000000000E+00 0. -1.
         22    1    3    3    0    0  0.15391486737E+01  0.38992691477E+02  0.75415155960E+01  0.39745105670E+02  0.00000000000E+00 0. -1.
         22    1    3    3    0    0 -0.29966285485E+02 -0.80327302767E+02 -0.60772824322E+02  0.10508943815E+03  0.00000000000E+00 0. -1.
</event>
<event>
 7    1  0.4915160E-006  0.1146300E+03  0.7818608E-02  0.1329730E+00
          2   -1    0    0  502    0  0.00000000000E+00  0.00000000000E+00  0.11503732426E+04  0.11503732426E+04  0.00000000000E+00 0. -1.
          1   -1    0    0  501    0 -0.00000000000E+00 -0.00000000000E+00 -0.94075507231E+02  0.94075507231E+02  0.00000000000E+00 0. -1.
         25    2    1    2    0    0 -0.87306168925E+02 -0.19196194869E+02  0.53922231852E+02  0.16286454166E+03  0.12500556313E+03 0.  0.
          2    1    1    2  501    0 -0.24854939878E+01 -0.55443360897E+02 -0.15031772083E+02  0.57498679288E+02  0.00000000000E+00 0. -1.
          1    1    1    2  502    0  0.89791662913E+02  0.74639555766E+02  0.10174072756E+04  0.10240855289E+04  0.00000000000E+00 0. -1.
         22    1    3    3    0    0 -0.11059895407E+03  0.78563410873E+01  0.60883228542E+02  0.12649355025E+03  0.00000000000E+00 0. -1.
         22    1    3    3    0    0  0.23292785147E+02 -0.27052535956E+02 -0.69609966903E+01  0.36370991415E+02  0.00000000000E+00 0. -1.
</event>
<event>
 7    1  0.6259555E-006  0.1261112E+03  0.7818608E-02  0.1301612E+00
          2   -1    0    0  502    0  0.00000000000E+00  0.00000000000E+00  0.22646257584E+04  0.22646257584E+04  0.00000000000E+00 0. -1.
          1   -1    0    0  501    0 -0.00000000000E+00 -0.00000000000E+00 -0.59776142642E+03  0.59776142642E+03  0.00000000000E+00 0. -1.
         25    2    1    2    0    0 -0.32521562872E+02 -0.17646969615E+03 -0.53441422640E+02  0.22512262152E+03  0.12500001342E+03 0.  0.
          2    1    1    2  501    0 -0.19098605977E+02  0.62093577280E+02 -0.45436028309E+03  0.45898108452E+03  0.00000000000E+00 0. -1.
          1    1    1    2  502    0  0.51620168849E+02  0.11437611887E+03  0.21746660377E+04  0.21782834787E+04  0.00000000000E+00 0. -1.
         22    1    3    3    0    0 -0.98571227483E+00 -0.13821799900E+03  0.16703643234E+02  0.13922714740E+03  0.00000000000E+00 0. -1.
         22    1    3    3    0    0 -0.31535850597E+02 -0.38251697156E+02 -0.70145065874E+02  0.85895474122E+02  0.00000000000E+00 0. -1.
</event>
<event>
 7    1  0.4915160E-006  0.4567392E+02  0.7818608E-02  0.1543438E+00
          2   -1    0    0  502    0  0.00000000000E+00  0.00000000000E+00  0.18313943060E+04  0.18313943060E+04  0.00000000000E+00 0. -1.
          1   -1    0    0  501    0 -0.00000000000E+00 -0.00000000000E+00 -0.12487604685E+02  0.12487604685E+02  0.00000000000E+00 0. -1.
         25    2    1    2    0    0 -0.24007061259E+02  0.29098359183E+01  0.11380071596E+04  0.11451070502E+04  0.12500021992E+03 0.  0.
          2    1    1    2  501    0 -0.26806504368E+02  0.70955089891E+01  0.16310332446E+02  0.32170823252E+02  0.00000000000E+00 0. -1.
          1    1    1    2  502    0  0.50813565627E+02 -0.10005344907E+02  0.66458920920E+03  0.66660403716E+03  0.00000000000E+00 0. -1.
         22    1    3    3    0    0 -0.41788169363E+02  0.49974354342E+02  0.38942118096E+03  0.39483229778E+03  0.00000000000E+00 0.  1.
         22    1    3    3    0    0  0.17781108103E+02 -0.47064518424E+02  0.74858597868E+03  0.75027475246E+03  0.00000000000E+00 0.  1.
</event>
<event>
 7    1  0.4915160E-006  0.8402767E+02  0.7818608E-02  0.1335123E+00
          2   -1    0    0  502    0  0.00000000000E+00  0.00000000000E+00  0.11088683844E+04  0.11088683844E+04  0.00000000000E+00 0. -1.
          1   -1    0    0  501    0 -0.00000000000E+00 -0.00000000000E+00 -0.34464216539E+03  0.34464216539E+03  0.00000000000E+00 0. -1.
         25    2    1    2    0    0  0.13511170958E+03  0.65876718738E+02  0.86807142880E+02  0.21390718309E+03  0.12500354709E+03 0.  0.
          2    1    1    2  501    0 -0.55114720566E+02 -0.46664404009E+02 -0.27465030840E+03  0.28398589917E+03  0.00000000000E+00 0. -1.
          1    1    1    2  502    0 -0.79996989010E+02 -0.19212314730E+02  0.95206938451E+03  0.95561746751E+03  0.00000000000E+00 0. -1.
         22    1    3    3    0    0  0.43957353197E+01  0.14452141978E+02  0.70958188768E+02  0.72548269793E+02  0.00000000000E+00 0. -1.
         22    1    3    3    0    0  0.13071597426E+03  0.51424576760E+02  0.15848954112E+02  0.14135891329E+03  0.00000000000E+00 0. -1.
</event>
<event>
 7    1  0.4915160E-006  0.9294567E+02  0.7818608E-02  0.1399911E+00
          2   -1    0    0  502    0  0.00000000000E+00  0.00000000000E+00  0.47513495548E+03  0.47513495548E+03  0.00000000000E+00 0. -1.
          1   -1    0    0  501    0 -0.00000000000E+00 -0.00000000000E+00 -0.15680053731E+03  0.15680053731E+03  0.00000000000E+00 0. -1.
         25    2    1    2    0    0 -0.11055048341E+03  0.30371157926E+01  0.13460028154E+03  0.21441462176E+03  0.12500304307E+03 0.  0.
          2    1    1    2  501    0  0.25435880768E+02  0.28364497992E+02 -0.10667318503E+03  0.11327266741E+03  0.00000000000E+00 0. -1.
          1    1    1    2  502    0  0.85114602643E+02 -0.31401613784E+02  0.29040732167E+03  0.30424820362E+03  0.00000000000E+00 0. -1.
         22    1    3    3    0    0 -0.13188647859E+03  0.21088460293E+02  0.12944244601E+03  0.18599492795E+03  0.00000000000E+00 0. -1.
         22    1    3    3    0    0  0.21335995182E+02 -0.18051344500E+02  0.51578355283E+01  0.28419693806E+02  0.00000000000E+00 0. -1.
</event>
<event>
 7    1  0.4915160E-006  0.7892043E+02  0.7818608E-02  0.1361447E+00
          2   -1    0    0  502    0  0.00000000000E+00  0.00000000000E+00  0.12533245216E+04  0.12533245216E+04  0.00000000000E+00 0. -1.
          1   -1    0    0  501    0 -0.00000000000E+00 -0.00000000000E+00 -0.96666234069E+02  0.96666234069E+02  0.00000000000E+00 0. -1.
         25    2    1    2    0    0 -0.25340745661E+02  0.15211423278E+02  0.10067771875E+03  0.16320161213E+03  0.12500088944E+03 0.  0.
          2    1    1    2  501    0  0.75871336722E+02 -0.50067650064E+02 -0.32531087894E+02  0.96547920736E+02  0.00000000000E+00 0. -1.
          1    1    1    2  502    0 -0.50530591060E+02  0.34856226787E+02  0.10885116567E+04  0.10902412228E+04  0.00000000000E+00 0. -1.
         22    1    3    3    0    0 -0.28315925890E+02 -0.52255119087E+02  0.59534962841E+02  0.84123723945E+02  0.00000000000E+00 0. -1.
         22    1    3    3    0    0  0.29751802285E+01  0.67466542365E+02  0.41142755908E+02  0.79077888185E+02  0.00000000000E+00 0. -1.
</event>
<event>
 7    1  0.4915160E-006  0.5747146E+02  0.7818608E-02  0.1521350E+00
          2   -1    0    0  502    0  0.00000000000E+00  0.00000000000E+00  0.16363221324E+04  0.16363221324E+04  0.00000000000E+00 0. -1.
          1   -1    0    0  501    0 -0.00000000000E+00 -0.00000000000E+00 -0.30636822911E+04  0.30636822911E+04  0.00000000000E+00 0. -1.
         25    2    1    2    0    0 -0.39065962452E+02  0.63596769502E+02  0.11932472027E+04  0.12020975263E+04  0.12501550858E+03 0.  0.
          2    1    1    2  501    0  0.14903290368E+02 -0.55502212169E+02 -0.30586168944E+04  0.30591567319E+04  0.00000000000E+00 0. -1.
          1    1    1    2  502    0  0.24162672084E+02 -0.80945573329E+01  0.43800953294E+03  0.43875016528E+03  0.00000000000E+00 0. -1.
         22    1    3    3    0    0 -0.13687381184E+02 -0.24393018826E+01  0.10980962814E+02  0.17716549937E+02  0.00000000000E+00 0. -1.
         22    1    3    3    0    0 -0.25378581268E+02  0.66036071384E+02  0.11822662399E+04  0.11843809763E+04  0.00000000000E+00 0. -1.
</event>
<event>
 7    1  0.4915160E-006  0.4266346E+02  0.7818608E-02  0.1502023E+00
          2   -1    0    0  502    0  0.00000000000E+00  0.00000000000E+00  0.11804737478E+04  0.11804737478E+04  0.00000000000E+00 0. -1.
          1   -1    0    0  501    0 -0.00000000000E+00 -0.00000000000E+00 -0.24873288679E+02  0.24873288679E+02  0.00000000000E+00 0. -1.
         25    2    1    2    0    0  0.46736126145E+02 -0.16443721749E+02  0.30977087348E+03  0.33769752715E+03  0.12500785700E+03 0.  0.
          2    1    1    2  501    0 -0.94411772421E+01  0.37964059239E+02  0.26641306819E+02  0.47330379786E+02  0.00000000000E+00 0. -1.
          1    1    1    2  502    0 -0.37294948903E+02 -0.21520337490E+02  0.81918827878E+03  0.82031912950E+03  0.00000000000E+00 0. -1.
         22    1    3    3    0    0  0.44339782307E+02 -0.56678632721E+02  0.27564936123E+03  0.28488779203E+03  0.00000000000E+00 0.  1.
         22    1    3    3    0    0  0.23963438383E+01  0.40234910972E+02  0.34121512251E+02  0.52809735116E+02  0.00000000000E+00 0.  1.
</event>
<event>
 7    1  0.4915160E-006  0.7920841E+02  0.7818608E-02  0.1440236E+00
          2   -1    0    0  502    0  0.00000000000E+00  0.00000000000E+00  0.20285910679E+04  0.20285910679E+04  0.00000000000E+00 0. -1.
          1   -1    0    0  501    0 -0.00000000000E+00 -0.00000000000E+00 -0.27916938403E+03  0.27916938403E+03  0.00000000000E+00 0. -1.
         25    2    1    2    0    0  0.62314799174E+02 -0.39708528062E+02  0.84520021722E+03  0.85758308626E+03  0.12500176499E+03 0.  0.
          2    1    1    2  501    0 -0.43304247318E+02  0.66418744909E+02 -0.26698619994E+03  0.27851093061E+03  0.00000000000E+00 0. -1.
          1    1    1    2  502    0 -0.19010551856E+02 -0.26710216847E+02  0.11712076666E+04  0.11716664351E+04  0.00000000000E+00 0. -1.
         22    1    3    3    0    0  0.31287873144E+02 -0.48936135808E+02  0.13908050039E+03  0.15072180327E+03  0.00000000000E+00 0.  1.
         22    1    3    3    0    0  0.31026926030E+02  0.92276077460E+01  0.70611971683E+03  0.70686128298E+03  0.00000000000E+00 0.  1.
</event>
<event>
 7    1  0.4915160E-006  0.5730187E+02  0.7818608E-02  0.1519464E+00
          2   -1    0    0  502    0  0.00000000000E+00  0.00000000000E+00  0.19934190669E+03  0.19934190669E+03  0.00000000000E+00 0. -1.
          1   -1    0    0  501    0 -0.00000000000E+00 -0.00000000000E+00 -0.10411851078E+04  0.10411851078E+04  0.00000000000E+00 0. -1.
         25    2    1    2    0    0  0.39235065655E+02  0.91735578876E+01 -0.96679961094E+02  0.16311368025E+03  0.12504204600E+03 0.  0.
          2    1    1    2  501    0 -0.46886667899E+02 -0.33898825378E+02 -0.90935520952E+03  0.91119393494E+03  0.00000000000E+00 0. -1.
          1    1    1    2  502    0  0.76516022441E+01  0.24725267491E+02  0.16419196948E+03  0.16621939932E+03  0.00000000000E+00 0. -1.
         22    1    3    3    0    0  0.25063477932E+02  0.67153370626E+02 -0.51801825079E+02  0.88437447917E+02  0.00000000000E+00 0.  1.
         22    1    3    3    0    0  0.14171587723E+02 -0.57979812738E+02 -0.44878136015E+02  0.74676232336E+02  0.00000000000E+00 0.  1.
</event>
<event>
 7    1  0.4915160E-006  0.2556761E+03  0.7818608E-02  0.1178558E+00
          2   -1    0    0  502    0  0.00000000000E+00  0.00000000000E+00  0.13496297663E+04  0.13496297663E+04  0.00000000000E+00 0. -1.
          1   -1    0    0  501    0 -0.00000000000E+00 -0.00000000000E+00 -0.18144090843E+04  0.18144090843E+04  0.00000000000E+00 0. -1.
         25    2    1    2    0    0  0.13869840468E+03  0.15115329597E+03 -0.37630101292E+03  0.44644381948E+03  0.12500026113E+03 0.  0.
          2    1    1    2  501    0 -0.10656277569E+03 -0.25858232607E+03 -0.13866580032E+04  0.14145815149E+04  0.00000000000E+00 0. -1.
          1    1    1    2  502    0 -0.32135628993E+02  0.10742903009E+03  0.12981796980E+04  0.13030135162E+04  0.00000000000E+00 0. -1.
         22    1    3    3    0    0  0.92841408542E+02  0.23165764289E+02 -0.21604750250E+03  0.23628944773E+03  0.00000000000E+00 0. -1.
         22    1    3    3    0    0  0.45856996142E+02  0.12798753168E+03 -0.16025351042E+03  0.21015437175E+03  0.00000000000E+00 0. -1.
</event>
<event>
 7    1  0.4915160E-006  0.1753990E+03  0.7818608E-02  0.1240527E+00
          2   -1    0    0  502    0  0.00000000000E+00  0.00000000000E+00  0.71760702507E+03  0.71760702507E+03  0.00000000000E+00 0. -1.
          1   -1    0    0  501    0 -0.00000000000E+00 -0.00000000000E+00 -0.17695175431E+04  0.17695175431E+04  0.00000000000E+00 0. -1.
         25    2    1    2    0    0  0.86171704096E+02 -0.94870479010E+02  0.62085252726E+02  0.18948036874E+03  0.12498904416E+03 0.  0.
          2    1    1    2  501    0  0.83320691241E+02  0.12565950626E+02 -0.16897467704E+04  0.16918464436E+04  0.00000000000E+00 0. -1.
          1    1    1    2  502    0 -0.16949239534E+03  0.82304528383E+02  0.57575099959E+03  0.60579775586E+03  0.00000000000E+00 0. -1.
         22    1    3    3    0    0 -0.98035259929E+00 -0.89287834036E+02  0.15929923413E+02  0.90703036653E+02  0.00000000000E+00 0.  1.
         22    1    3    3    0    0  0.87152056696E+02 -0.55826449735E+01  0.46155329313E+02  0.98777332092E+02  0.00000000000E+00 0.  1.
</event>
<event>
 7    1  0.4915160E-006  0.4363773E+02  0.7818608E-02  0.1509618E+00
          2   -1    0    0  502    0  0.00000000000E+00  0.00000000000E+00  0.50219291549E+03  0.50219291549E+03  0.00000000000E+00 0. -1.
          1   -1    0    0  501    0 -0.00000000000E+00 -0.00000000000E+00 -0.32650164005E+03  0.32650164005E+03  0.00000000000E+00 0. -1.
         25    2    1    2    0    0 -0.26077965058E+02 -0.39616880462E+00 -0.41183132177E+00  0.12769300239E+03  0.12500046417E+03 0.  0.
          2    1    1    2  501    0  0.15303595334E+01 -0.36284765566E+02 -0.26007378655E+03  0.26259722136E+03  0.00000000000E+00 0. -1.
          1    1    1    2  502    0  0.24547605525E+02  0.36680934370E+02  0.43617689331E+03  0.43840433180E+03  0.00000000000E+00 0. -1.
         22    1    3    3    0    0 -0.56307492207E+02  0.44316754421E+02 -0.11556855135E+02  0.72581466654E+02  0.00000000000E+00 0.  1.
         22    1    3    3    0    0  0.30229527149E+02 -0.44712923226E+02  0.11145023813E+02  0.55111535733E+02  0.00000000000E+00 0.  1.
</event>
<event>
 7    1  0.4915160E-006  0.9352703E+02  0.7818608E-02  0.1321999E+00
          2   -1    0    0  502    0  0.00000000000E+00  0.00000000000E+00  0.36088817644E+03  0.36088817644E+03  0.00000000000E+00 0. -1.
          1   -1    0    0  501    0 -0.00000000000E+00 -0.00000000000E+00 -0.57762516104E+03  0.57762516104E+03  0.00000000000E+00 0. -1.
         25    2    1    2    0    0  0.33091292053E+02  0.86616030760E+02 -0.16254911404E+03  0.22504274796E+03  0.12499861415E+03 0.  0.
          2    1    1    2  501    0  0.39669734219E+02 -0.90015166918E+02 -0.37335541672E+03  0.38609673047E+03  0.00000000000E+00 0. -1.
          1    1    1    2  502    0 -0.72761026272E+02  0.33991361576E+01  0.31916754616E+03  0.32737385905E+03  0.00000000000E+00 0. -1.
         22    1    3    3    0    0  0.36823173575E+02  0.11718575297E+03 -0.11421097571E+03  0.16772773707E+03  0.00000000000E+00 0. -1.
         22    1    3    3    0    0 -0.37318815213E+01 -0.30569722210E+02 -0.48338138334E+02  0.57315010890E+02  0.00000000000E+00 0. -1.
</event>
<event>
 7    1  0.4915160E-006  0.4885540E+02  0.7818608E-02  0.1471052E+00
          2   -1    0    0  502    0  0.00000000000E+00  0.00000000000E+00  0.35185242884E+04  0.35185242884E+04  0.00000000000E+00 0. -1.
          1   -1    0    0  501    0 -0.00000000000E+00 -0.00000000000E+00 -0.66280272251E+02  0.66280272251E+02  0.00000000000E+00 0. -1.
         25    2    1    2    0    0 -0.74851858063E+02  0.30690584125E+00  0.37189935555E+03  0.39942072422E+03  0.12499955771E+03 0.  0.
          2    1    1    2  501    0  0.33748179813E+02  0.25722278554E+02 -0.43728188402E+02  0.60932173074E+02  0.00000000000E+00 0. -1.
          1    1    1    2  502    0  0.41103678250E+02 -0.26029184395E+02  0.31240728490E+04  0.31244516634E+04  0.00000000000E+00 0. -1.
         22    1    3    3    0    0  0.15830934297E+02 -0.43641788011E+01 -0.17925804859E+00  0.16422444117E+02  0.00000000000E+00 0. -1.
         22    1    3    3    0    0 -0.90682792360E+02  0.46710846424E+01  0.37207861360E+03  0.38299828010E+03  0.00000000000E+00 0. -1.
</event>
<event>
 7    1  0.4915160E-006  0.9686445E+02  0.7818608E-02  0.1322775E+00
          2   -1    0    0  502    0  0.00000000000E+00  0.00000000000E+00  0.40508008454E+03  0.40508008454E+03  0.00000000000E+00 0. -1.
          1   -1    0    0  501    0 -0.00000000000E+00 -0.00000000000E+00 -0.75796346922E+03  0.75796346922E+03  0.00000000000E+00 0. -1.
         25    2    1    2    0    0 -0.12788711642E+03 -0.14367467833E+02 -0.26191666602E+03  0.31746906334E+03  0.12499891025E+03 0.  0.
          2    1    1    2  501    0  0.52516004128E+02 -0.46050012805E+02 -0.45940466569E+03  0.46468395844E+03  0.00000000000E+00 0. -1.
          1    1    1    2  502    0  0.75371112296E+02  0.60417480638E+02  0.36843794703E+03  0.38089053198E+03  0.00000000000E+00 0. -1.
         22    1    3    3    0    0  0.12339493579E+01  0.28772359318E+02 -0.88829976515E+01  0.30137666450E+02  0.00000000000E+00 0.  1.
         22    1    3    3    0    0 -0.12912106578E+03 -0.43139827151E+02 -0.25303366837E+03  0.28733139690E+03  0.00000000000E+00 0.  1.
</event>
<event>
 7    1  0.4915160E-006  0.2989818E+03  0.7818608E-02  0.1291517E+00
          2   -1    0    0  502    0  0.00000000000E+00  0.00000000000E+00  0.88515074232E+03  0.88515074232E+03  0.00000000000E+00 0. -1.
          1   -1    0    0  501    0 -0.00000000000E+00 -0.00000000000E+00 -0.14956494967E+04  0.14956494967E+04  0.00000000000E+00 0. -1.
         25    2    1    2    0    0  0.87427621287E+02 -0.26073784220E+03 -0.20210225538E+03  0.36345463359E+03  0.12500455085E+03 0.  0.
          2    1    1    2  501    0 -0.60478578773E+01 -0.29475761305E+02 -0.11844416161E+04  0.11848237586E+04  0.00000000000E+00 0. -1.
          1    1    1    2  502    0 -0.81379763410E+02  0.29021360350E+03  0.77604511712E+03  0.83252184677E+03  0.00000000000E+00 0. -1.
         22    1    3    3    0    0  0.56611317693E+02 -0.82151341534E+02 -0.13994228352E+03  0.17186485075E+03  0.00000000000E+00 0.  1.
         22    1    3    3    0    0  0.30816303594E+02 -0.17858650067E+03 -0.62159971854E+02  0.19158978284E+03  0.00000000000E+00 0.  1.
</event>
<event>
 7    1  0.4915160E-006  0.2179281E+03  0.7818608E-02  0.1203757E+00
          2   -1    0    0  502    0  0.00000000000E+00  0.00000000000E+00  0.28178113514E+04  0.28178113514E+04  0.00000000000E+00 0. -1.
          1   -1    0    0  501    0 -0.00000000000E+00 -0.00000000000E+00 -0.28449986554E+04  0.28449986554E+04  0.00000000000E+00 0. -1.
         25    2    1    2    0    0  0.26189558351E+03 -0.16929975540E+03 -0.29950937851E+02  0.33730385550E+03  0.12500051366E+03 0.  0.
          2    1    1    2  501    0 -0.93487673739E+02  0.34472708821E+02 -0.26560683323E+04  0.26579366618E+04  0.00000000000E+00 0. -1.
          1    1    1    2  502    0 -0.16840790977E+03  0.13482704658E+03  0.26588319662E+04  0.26675694894E+04  0.00000000000E+00 0. -1.
         22    1    3    3    0    0 -0.48635431445E+01 -0.32817431181E+02 -0.17240608892E+02  0.37388185784E+02  0.00000000000E+00 0. -1.
         22    1    3    3    0    0  0.26675912666E+03 -0.13648232422E+03 -0.12710328958E+02  0.29991566971E+03  0.00000000000E+00 0. -1.
</event>
<event>
 7    1  0.4915160E-006  0.1242691E+03  0.7818608E-02  0.1262688E+00
          2   -1    0    0  502    0  0.00000000000E+00  0.00000000000E+00  0.98855237667E+03  0.98855237667E+03  0.00000000000E+00 0. -1.
          1   -1    0    0  501    0 -0.00000000000E+00 -0.00000000000E+00 -0.60104021537E+03  0.60104021537E+03  0.00000000000E+00 0. -1.
         25    2    1    2    0    0 -0.13289381096E+02  0.15149331941E+03  0.18634853103E+03  0.27106779525E+03  0.12500056453E+03 0.  0.
          2    1    1    2  501    0  0.82421368084E+02 -0.47977512954E+02 -0.54944727291E+03  0.55766246904E+03  0.00000000000E+00 0. -1.
          1    1    1    2  502    0 -0.69131986988E+02 -0.10351580646E+03  0.75061090318E+03  0.76086232775E+03  0.00000000000E+00 0. -1.
         22    1    3    3    0    0  0.59854531200E+01  0.25188479550E+02 -0.16956382027E+02  0.30948409370E+02  0.00000000000E+00 0. -1.
         22    1    3    3    0    0 -0.19274834216E+02  0.12630483986E+03  0.20330491305E+03  0.24011938588E+03  0.00000000000E+00 0. -1.
</event>
<event>
 7    1  0.4915160E-006  0.3958878E+02  0.7818608E-02  0.1558212E+00
          2   -1    0    0  502    0  0.00000000000E+00  0.00000000000E+00  0.11336985774E+04  0.11336985774E+04  0.00000000000E+00 0. -1.
          1   -1    0    0  501    0 -0.00000000000E+00 -0.00000000000E+00 -0.13133673200E+02  0.13133673200E+02  0.00000000000E+00 0. -1.
         25    2    1    2    0    0  0.15077412426E+02 -0.29393570934E+02  0.43312834664E+03  0.45201443527E+03  0.12500229860E+03 0.  0.
          2    1    1    2  501    0 -0.27555888119E+02 -0.93494203329E+01  0.66982430041E+02  0.73030025091E+02  0.00000000000E+00 0. -1.
          1    1    1    2  502    0  0.12478475693E+02  0.38742991267E+02  0.62045412756E+03  0.62178779027E+03  0.00000000000E+00 0. -1.
         22    1    3    3    0    0  0.39178648258E+02  0.86471164682E+00  0.36657436703E+02  0.53660803863E+02  0.00000000000E+00 0. -1.
         22    1    3    3    0    0 -0.24101235832E+02 -0.30258282580E+02  0.39647090993E+03  0.39835363141E+03  0.00000000000E+00 0. -1.
</event>
<event>
 7    1  0.4915160E-006  0.6438499E+02  0.7818608E-02  0.1405204E+00
          2   -1    0    0  502    0  0.00000000000E+00  0.00000000000E+00  0.84621008461E+03  0.84621008461E+03  0.00000000000E+00 0. -1.
          1   -1    0    0  501    0 -0.00000000000E+00 -0.00000000000E+00 -0.23975223354E+04  0.23975223354E+04  0.00000000000E+00 0. -1.
         25    2    1    2    0    0 -0.10288769386E+02  0.11206157690E+02 -0.22299988931E+02  0.12788255317E+03  0.12500088461E+03 0.  0.
          2    1    1    2  501    0 -0.52154059803E+02  0.79071413298E+01 -0.23207871645E+04  0.23213865753E+04  0.00000000000E+00 0. -1.
          1    1    1    2  502    0  0.62442829189E+02 -0.19113299020E+02  0.79177490268E+03  0.79446329156E+03  0.00000000000E+00 0. -1.
         22    1    3    3    0    0  0.50587359132E+02 -0.11887309961E+02  0.13349436920E+02  0.53652553603E+02  0.00000000000E+00 0. -1.
         22    1    3    3    0    0 -0.60876128518E+02  0.23093467652E+02 -0.35649425851E+02  0.74229999562E+02  0.00000000000E+00 0. -1.
</event>
<event>
 7    1  0.4915160E-006  0.1495983E+03  0.7818608E-02  0.1278334E+00
          2   -1    0    0  502    0  0.00000000000E+00  0.00000000000E+00  0.16258575090E+04  0.16258575090E+04  0.00000000000E+00 0. -1.
          1   -1    0    0  501    0 -0.00000000000E+00 -0.00000000000E+00 -0.11505279000E+03  0.11505279000E+03  0.00000000000E+00 0. -1.
         25    2    1    2    0    0 -0.10219224565E+03 -0.16549532168E+03  0.43665577383E+03  0.49409222717E+03  0.12500762999E+03 0.  0.
          2    1    1    2  501    0  0.10664426225E+03  0.97534380852E+02 -0.24051800219E+02  0.14650748518E+03  0.00000000000E+00 0. -1.
          1    1    1    2  502    0 -0.44520166037E+01  0.67960940833E+02  0.10982007454E+04  0.11003105866E+04  0.00000000000E+00 0. -1.
         22    1    3    3    0    0 -0.92501524516E+02 -0.16393778709E+03  0.44372257888E+03  0.48199777705E+03  0.00000000000E+00 0.  1.
         22    1    3    3    0    0 -0.96907211308E+01 -0.15575345935E+01 -0.70668050470E+01  0.12094450116E+02  0.00000000000E+00 0.  1.
</event>
<event>
 7    1  0.4915160E-006  0.7209798E+02  0.7818608E-02  0.1364187E+00
          2   -1    0    0  502    0  0.00000000000E+00  0.00000000000E+00  0.14253254202E+03  0.14253254202E+03  0.00000000000E+00 0. -1.
          1   -1    0    0  501    0 -0.00000000000E+00 -0.00000000000E+00 -0.12087969598E+04  0.12087969598E+04  0.00000000000E+00 0. -1.
         25    2    1    2    0    0 -0.46664716842E+02  0.12169941191E+03 -0.17254340197E+03  0.24976927215E+03  0.12500048437E+03 0.  0.
          2    1    1    2  501    0  0.42380658970E+02 -0.56167463097E+02 -0.98588475467E+03  0.98839245933E+03  0.00000000000E+00 0. -1.
          1    1    1    2  502    0  0.42840578717E+01 -0.65531948812E+02  0.92163738899E+02  0.11316777030E+03  0.00000000000E+00 0. -1.
         22    1    3    3    0    0 -0.21644494680E+02  0.65112601958E+02 -0.23252649555E+01  0.68655239718E+02  0.00000000000E+00 0. -1.
         22    1    3    3    0    0 -0.25020222162E+02  0.56586809952E+02 -0.17021813701E+03  0.18111403244E+03  0.00000000000E+00 0. -1.
</event>
<event>
 7    1  0.4915160E-006  0.7292632E+02  0.7818608E-02  0.1354424E+00
          2   -1    0    0  502    0  0.00000000000E+00  0.00000000000E+00  0.10244855873E+04  0.10244855873E+04  0.00000000000E+00 0. -1.
          1   -1    0    0  501    0 -0.00000000000E+00 -0.00000000000E+00 -0.84764847560E+02  0.84764847560E+02  0.00000000000E+00 0. -1.
         25    2    1    2    0    0 -0.31039438511E+02  0.57876520334E+02  0.21377918270E+03  0.25620185335E+03  0.12499884941E+03 0.  0.
          2    1    1    2  501    0  0.72872540748E+02  0.28001810825E+01 -0.40266279635E+02  0.83304390549E+02  0.00000000000E+00 0. -1.
          1    1    1    2  502    0 -0.41833102237E+02 -0.60676701416E+02  0.76620783667E+03  0.76974419096E+03  0.00000000000E+00 0. -1.
         22    1    3    3    0    0 -0.76632599386E+02  0.41321819449E+02  0.16937170681E+03  0.19043850219E+03  0.00000000000E+00 0. -1.
         22    1    3    3    0    0  0.45593160876E+02  0.16554700884E+02  0.44407475899E+02  0.65763351159E+02  0.00000000000E+00 0. -1.
</event>
<event>
 7    1  0.4915160E-006  0.3000132E+02  0.7818608E-02  0.1652361E+00
          2   -1    0    0  502    0  0.00000000000E+00  0.00000000000E+00  0.22790146136E+02  0.22790146136E+02  0.00000000000E+00 0. -1.
          1   -1    0    0  501    0 -0.00000000000E+00 -0.00000000000E+00 -0.20201108350E+04  0.20201108350E+04  0.00000000000E+00 0. -1.
         25    2    1    2    0    0 -0.10218058313E+02 -0.11888708210E+02 -0.37645970001E+03  0.39697850095E+03  0.12499709752E+03 0.  0.
          2    1    1    2  501    0  0.30124234694E+02  0.28425632875E+01 -0.16236039403E+04  0.16238858657E+04  0.00000000000E+00 0. -1.
          1    1    1    2  502    0 -0.19906176381E+02  0.90461449221E+01  0.27429514785E+01  0.22036614506E+02  0.00000000000E+00 0. -1.
         22    1    3    3    0    0 -0.55949692151E+00 -0.52884199754E+02 -0.70493871220E+02  0.88127393585E+02  0.00000000000E+00 0.  1.
         22    1    3    3    0    0 -0.96585613913E+01  0.40995491545E+02 -0.30596582879E+03  0.30885110736E+03  0.00000000000E+00 0.  1.
</event>
<event>
 7    1  0.4915160E-006  0.4683303E+02  0.7818608E-02  0.1476483E+00
          2   -1    0    0  502    0  0.00000000000E+00  0.00000000000E+00  0.36098422617E+04  0.36098422617E+04  0.00000000000E+00 0. -1.
          1   -1    0    0  501    0 -0.00000000000E+00 -0.00000000000E+00 -0.18821132184E+02  0.18821132184E+02  0.00000000000E+00 0. -1.
         25    2    1    2    0    0  0.51741440924E+02 -0.43269384357E+02  0.66865306396E+03  0.68357158836E+03  0.12499512050E+03 0.  0.
          2    1    1    2  501    0 -0.42512901985E+02 -0.24837270583E+01  0.29402199847E+02  0.51749445322E+02  0.00000000000E+00 0. -1.
          1    1    1    2  502    0 -0.92285389395E+01  0.45753111416E+02  0.28929658657E+04  0.28933423602E+04  0.00000000000E+00 0. -1.
         22    1    3    3    0    0 -0.36096241831E+02 -0.37070438998E+02  0.30857795999E+03  0.31288578350E+03  0.00000000000E+00 0.  1.
         22    1    3    3    0    0  0.87837682755E+02 -0.61989453595E+01  0.36007510396E+03  0.37068580487E+03  0.00000000000E+00 0.  1.
</event>
<event>
 7    1  0.4915160E-006  0.5016261E+02  0.7818608E-02  0.1457684E+00
          2   -1    0    0  502    0  0.00000000000E+00  0.00000000000E+00  0.40146874837E+03  0.40146874837E+03  0.00000000000E+00 0. -1.
          1   -1    0    0  501    0 -0.00000000000E+00 -0.00000000000E+00 -0.10805340170E+04  0.10805340170E+04  0.00000000000E+00 0. -1.
         25    2    1    2    0    0  0.16419868487E+02 -0.22495101829E+02 -0.43520801043E+03  0.45365886451E+03  0.12499884527E+03 0.  0.
          2    1    1    2  501    0 -0.54440115490E+02 -0.25264879515E+01 -0.63360651756E+03  0.63594601061E+03  0.00000000000E+00 0. -1.
          1    1    1    2  502    0  0.38020247003E+02  0.25021589781E+02  0.38974925934E+03  0.39239789028E+03  0.00000000000E+00 0. -1.
         22    1    3    3    0    0  0.64324596815E+02 -0.40434055272E+02 -0.28629044760E+03  0.29620058570E+03  0.00000000000E+00 0.  1.
         22    1    3    3    0    0 -0.47904728328E+02  0.17938953443E+02 -0.14891756283E+03  0.15745827882E+03  0.00000000000E+00 0.  1.
</event>
<event>
 7    1  0.4915160E-006  0.1107278E+03  0.7818608E-02  0.1278448E+00
          2   -1    0    0  502    0  0.00000000000E+00  0.00000000000E+00  0.12325179642E+04  0.12325179642E+04  0.00000000000E+00 0. -1.
          1   -1    0    0  501    0 -0.00000000000E+00 -0.00000000000E+00 -0.33449694936E+03  0.33449694936E+03  0.00000000000E+00 0. -1.
         25    2    1    2    0    0  0.17189758311E+03  0.75827537124E+02  0.19656997282E+03  0.29927159402E+03  0.12500055323E+03 0.  0.
          2    1    1    2  501    0 -0.80049906182E+02 -0.72313210247E+02 -0.27062404017E+03  0.29133238572E+03  0.00000000000E+00 0. -1.
          1    1    1    2  502    0 -0.91847676932E+02 -0.35143268771E+01  0.97207508224E+03  0.97641093386E+03  0.00000000000E+00 0. -1.
         22    1    3    3    0    0  0.12905739969E+03  0.47347296290E+02  0.53982208787E+02  0.14768770343E+03  0.00000000000E+00 0. -1.
         22    1    3    3    0    0  0.42840183428E+02  0.28480240834E+02  0.14258776403E+03  0.15158389059E+03  0.00000000000E+00 0. -1.
</event>
<event>
 7    1  0.4915160E-006  0.4604599E+02  0.7818608E-02  0.1495706E+00
          2   -1    0    0  502    0  0.00000000000E+00  0.00000000000E+00  0.21275746888E+04  0.21275746888E+04  0.00000000000E+00 0. -1.
          1   -1    0    0  501    0 -0.00000000000E+00 -0.00000000000E+00 -0.68446197861E+03  0.68446197861E+03  0.00000000000E+00 0. -1.
         25    2    1    2    0    0  0.75288630269E+02  0.33509875780E+02  0.54802374346E+03  0.56810762653E+03  0.12499984921E+03 0.  0.
          2    1    1    2  501    0 -0.35934411346E+02 -0.11910816722E+02 -0.67356741883E+03  0.67463043008E+03  0.00000000000E+00 0. -1.
          1    1    1    2  502    0 -0.39354218923E+02 -0.21599059058E+02  0.15686563856E+04  0.15692986109E+04  0.00000000000E+00 0. -1.
         22    1    3    3    0    0 -0.31533557313E+01 -0.32474397685E+02  0.26675652589E+03  0.26874444043E+03  0.00000000000E+00 0. -1.
         22    1    3    3    0    0  0.78441986000E+02  0.65984273465E+02  0.28126721758E+03  0.29936318611E+03  0.00000000000E+00 0. -1.
</event>
<event>
 7    1  0.4915160E-006  0.1117819E+03  0.7818608E-02  0.1326001E+00
          2   -1    0    0  502    0  0.00000000000E+00  0.00000000000E+00  0.93106066056E+02  0.93106066056E+02  0.00000000000E+00 0. -1.
          1   -1    0    0  501    0 -0.00000000000E+00 -0.00000000000E+00 -0.15917999428E+04  0.15917999428E+04  0.00000000000E+00 0. -1.
         25    2    1    2    0    0 -0.88478323659E+02 -0.26216087079E+02 -0.15180705458E+03  0.21722253977E+03  0.12499821193E+03 0.  0.
          2    1    1    2  501    0  0.11048757869E+03 -0.28328283120E+02 -0.13900536433E+04  0.13947254669E+04  0.00000000000E+00 0. -1.
          1    1    1    2  502    0 -0.22009255035E+02  0.54544370199E+02  0.43166821191E+02  0.72958002161E+02  0.00000000000E+00 0. -1.
         22    1    3    3    0    0 -0.57701278152E+02  0.25591155362E+02 -0.14301439093E+03  0.15632485645E+03  0.00000000000E+00 0.  1.
         22    1    3    3    0    0 -0.30777045508E+02 -0.51807242441E+02 -0.87926636490E+01  0.60897683318E+02  0.00000000000E+00 0.  1.
</event>
<event>
 7    1  0.4915160E-006  0.1133783E+03  0.7818608E-02  0.1432614E+00
          2   -1    0    0  502    0  0.00000000000E+00  0.00000000000E+00  0.83063631261E+03  0.83063631261E+03  0.00000000000E+00 0. -1.
          1   -1    0    0  501    0 -0.00000000000E+00 -0.00000000000E+00 -0.25391397097E+04  0.25391397097E+04  0.00000000000E+00 0. -1.
         25    2    1    2    0    0  0.50372703674E+02  0.12541737419E+03  0.25742710137E+03  0.31648195755E+03  0.12500075965E+03 0.  0.
          2    1    1    2  501    0 -0.33172997972E+02 -0.10831755027E+03 -0.25080626210E+04  0.25106196945E+04  0.00000000000E+00 0. -1.
          1    1    1    2  502    0 -0.17199705702E+02 -0.17099823924E+02  0.54213212255E+03  0.54267437027E+03  0.00000000000E+00 0. -1.
         22    1    3    3    0    0  0.86513737011E+02  0.56353642878E+02  0.11841026324E+03  0.15710299233E+03  0.00000000000E+00 0.  1.
         22    1    3    3    0    0 -0.36141033337E+02  0.69063731314E+02  0.13901683812E+03  0.15937896522E+03  0.00000000000E+00 0.  1.
</event>
<event>
 7    1  0.4915160E-006  0.7893754E+02  0.7818608E-02  0.1438316E+00
          2   -1    0    0  502    0  0.00000000000E+00  0.00000000000E+00  0.56183144377E+03  0.56183144377E+03  0.00000000000E+00 0. -1.
          1   -1    0    0  501    0 -0.00000000000E+00 -0.00000000000E+00 -0.36261832856E+03  0.36261832856E+03  0.00000000000E+00 0. -1.
         25    2    1    2    0    0  0.52645029635E+02 -0.14227111275E+02 -0.52375068266E+02  0.14608682540E+03  0.12499721172E+03 0.  0.
          2    1    1    2  501    0 -0.71045444205E+02  0.42069391528E+02 -0.25635553484E+03  0.26932405962E+03  0.00000000000E+00 0. -1.
          1    1    1    2  502    0  0.18400414571E+02 -0.27842280254E+02  0.50794371831E+03  0.50903888732E+03  0.00000000000E+00 0. -1.
         22    1    3    3    0    0 -0.21366532077E+02  0.39416826492E+02 -0.20273612335E+02  0.49206038865E+02  0.00000000000E+00 0.  1.
         22    1    3    3    0    0  0.74011561711E+02 -0.53643937767E+02 -0.32101455931E+02  0.96880786531E+02  0.00000000000E+00 0.  1.
</event>
<event>
 7    1  0.4915160E-006  0.1083144E+03  0.7818608E-02  0.1339476E+00
          2   -1    0    0  502    0  0.00000000000E+00  0.00000000000E+00  0.10866390177E+04  0.10866390177E+04  0.00000000000E+00 0. -1.
          1   -1    0    0  501    0 -0.00000000000E+00 -0.00000000000E+00 -0.17806424194E+04  0.17806424194E+04  0.00000000000E+00 0. -1.
         25    2    1    2    0    0  0.89818970094E+01  0.12219543733E+03 -0.43591610921E+02  0.18037890998E+03  0.12499569291E+03 0.  0.
          2    1    1    2  501    0 -0.49364280399E+02 -0.21747117443E+02 -0.16653415794E+04  0.16662149757E+04  0.00000000000E+00 0. -1.
          1    1    1    2  502    0  0.40382383389E+02 -0.10044831988E+03  0.10149297886E+04  0.10206875514E+04  0.00000000000E+00 0. -1.
         22    1    3    3    0    0  0.45641365256E+01 -0.20335110453E+01 -0.55296305897E+02  0.55521598998E+02  0.00000000000E+00 0.  1.
         22    1    3    3    0    0  0.44177604838E+01  0.12422894837E+03  0.11704694977E+02  0.12485731098E+03  0.00000000000E+00 0.  1.
</event>
<event>
 7    1  0.4915160E-006  0.9248221E+02  0.7818608E-02  0.1308204E+00
          2   -1    0    0  502    0  0.00000000000E+00  0.00000000000E+00  0.37238354239E+03  0.37238354239E+03  0.00000000000E+00 0. -1.
          1   -1    0    0  501    0 -0.00000000000E+00 -0.00000000000E+00 -0.81185054494E+03  0.81185054494E+03  0.00000000000E+00 0. -1.
         25    2    1    2    0    0 -0.21379472889E+02  0.11052647924E+03 -0.52011897813E+02  0.17607745964E+03  0.12499939921E+03 0.  0.
          2    1    1    2  501    0 -0.54380073157E+02 -0.75645080945E+02 -0.68901021745E+03  0.69528012367E+03  0.00000000000E+00 0. -1.
          1    1    1    2  502    0  0.75759546046E+02 -0.34881398299E+02  0.30155511271E+03  0.31287650402E+03  0.00000000000E+00 0. -1.
         22    1    3    3    0    0 -0.11591940272E+02  0.89801387851E+02 -0.92570216699E+02  0.12949095474E+03  0.00000000000E+00 0. -1.
         22    1    3    3    0    0 -0.97875326170E+01  0.20725091393E+02  0.40558318886E+02  0.46586504901E+02  0.00000000000E+00 0. -1.
</event>
<event>
 7    1  0.4915160E-006  0.8804938E+02  0.7818608E-02  0.1361191E+00
          2   -1    0    0  502    0  0.00000000000E+00  0.00000000000E+00  0.89999331565E+02  0.89999331565E+02  0.00000000000E+00 0. -1.
          1   -1    0    0  501    0 -0.00000000000E+00 -0.00000000000E+00 -0.19580088018E+04  0.19580088018E+04  0.00000000000E+00 0. -1.
         25    2    1    2    0    0  0.29220687458E+02  0.46998384508E+02 -0.24981999557E+03  0.28478297680E+03  0.12501446703E+03 0.  0.
          2    1    1    2  501    0 -0.30984978168E+02  0.45610890204E+02 -0.16604843251E+04  0.16613995956E+04  0.00000000000E+00 0. -1.
          1    1    1    2  502    0  0.17642907106E+01 -0.92609274712E+02  0.42294850501E+02  0.10182556095E+03  0.00000000000E+00 0. -1.
         22    1    3    3    0    0 -0.32010266220E+02  0.25711910492E+02 -0.19386609323E+02  0.45404846720E+02  0.00000000000E+00 0.  1.
         22    1    3    3    0    0  0.61230953677E+02  0.21286474016E+02 -0.23043338624E+03  0.23937813008E+03  0.00000000000E+00 0.  1.
</event>
<event>
 7    1  0.4915160E-006  0.4059129E+02  0.7818608E-02  0.1504725E+00
          2   -1    0    0  502    0  0.00000000000E+00  0.00000000000E+00  0.58166704356E+03  0.58166704356E+03  0.00000000000E+00 0. -1.
          1   -1    0    0  501    0 -0.00000000000E+00 -0.00000000000E+00 -0.73103686311E+02  0.73103686311E+02  0.00000000000E+00 0. -1.
         25    2    1    2    0    0 -0.15285838300E+02 -0.27773209658E+02  0.79597445110E+02  0.15154241906E+03  0.12499737389E+03 0.  0.
          2    1    1    2  501    0 -0.24562622967E+02  0.35503214276E+02 -0.23358763652E+02  0.49085970605E+02  0.00000000000E+00 0. -1.
          1    1    1    2  502    0  0.39848461267E+02 -0.77300046175E+01  0.45232467579E+03  0.45414234020E+03  0.00000000000E+00 0. -1.
         22    1    3    3    0    0 -0.32949333604E+02  0.44004924863E+02  0.31635405734E+02  0.63426263433E+02  0.00000000000E+00 0. -1.
         22    1    3    3    0    0  0.17663495304E+02 -0.71778134521E+02  0.47962039375E+02  0.88116155629E+02  0.00000000000E+00 0. -1.
</event>
<event>
 7    1  0.4915160E-006  0.9879654E+02  0.7818608E-02  0.1359933E+00
          2   -1    0    0  502    0  0.00000000000E+00  0.00000000000E+00  0.23332002797E+04  0.23332002797E+04  0.00000000000E+00 0. -1.
          1   -1    0    0  501    0 -0.00000000000E+00 -0.00000000000E+00 -0.39765197228E+03  0.39765197228E+03  0.00000000000E+00 0. -1.
         25    2    1    2    0    0  0.14399955011E+03 -0.17285614379E+02  0.29906031103E+03  0.35510220706E+03  0.12500337965E+03 0.  0.
          2    1    1    2  501    0 -0.47117961540E+02  0.15696468841E+02 -0.36678654944E+03  0.37013356276E+03  0.00000000000E+00 0. -1.
          1    1    1    2  502    0 -0.96881588575E+02  0.15891455380E+01  0.20032745458E+04  0.20056164821E+04  0.00000000000E+00 0. -1.
         22    1    3    3    0    0  0.57844965118E+02  0.50782752520E+02  0.16302770609E+03  0.18028577563E+03  0.00000000000E+00 0.  1.
         22    1    3    3    0    0  0.86154584997E+02 -0.68068366899E+02  0.13603260494E+03  0.17481643142E+03  0.00000000000E+00 0.  1.
</event>
<event>
 7    1  0.4915160E-006  0.7222055E+02  0.7818608E-02  0.1411544E+00
          2   -1    0    0  502    0  0.00000000000E+00  0.00000000000E+00  0.23149783106E+04  0.23149783106E+04  0.00000000000E+00 0. -1.
          1   -1    0    0  501    0 -0.00000000000E+00 -0.00000000000E+00 -0.94562786258E+03  0.94562786258E+03  0.00000000000E+00 0. -1.
         25    2    1    2    0    0  0.12426063690E+02  0.42007375601E+02  0.16552134390E+04  0.16605054033E+04  0.12501055528E+03 0.  0.
          2    1    1    2  501    0 -0.57122282316E+02 -0.44241144317E+02 -0.94083323925E+03  0.94360342203E+03  0.00000000000E+00 0. -1.
          1    1    1    2  502    0  0.44696218626E+02  0.22337687155E+01  0.65497024826E+03  0.65649734789E+03  0.00000000000E+00 0. -1.
         22    1    3    3    0    0  0.50408506573E+02  0.68649808210E+02  0.97584935217E+03  0.97955896802E+03  0.00000000000E+00 0.  1.
         22    1    3    3    0    0 -0.37982442882E+02 -0.26642432609E+02  0.67936408688E+03  0.68094643528E+03  0.00000000000E+00 0.  1.
</event>
<event>
 7    1  0.4915160E-006  0.1670512E+03  0.7818608E-02  0.1258587E+00
          2   -1    0    0  502    0  0.00000000000E+00  0.00000000000E+00  0.16473778029E+04  0.16473778029E+04  0.00000000000E+00 0. -1.
          1   -1    0    0  501    0 -0.00000000000E+00 -0.00000000000E+00 -0.34330334935E+03  0.34330334935E+03  0.00000000000E+00 0. -1.
         25    2    1    2    0    0 -0.33118155230E+02 -0.16810278429E+03 -0.73480641309E+02  0.22444697456E+03  0.12498672510E+03 0.  0.
          2    1    1    2  501    0 -0.40689697481E+02  0.16535033382E+03 -0.15597817369E+03  0.23092330987E+03  0.00000000000E+00 0. -1.
          1    1    1    2  502    0  0.73807852710E+02  0.27524504611E+01  0.15335332685E+04  0.15353108678E+04  0.00000000000E+00 0. -1.
         22    1    3    3    0    0 -0.56305097963E+02 -0.17963868512E+02 -0.30806322944E+02  0.66648287013E+02  0.00000000000E+00 0.  1.
         22    1    3    3    0    0  0.23186942733E+02 -0.15013891577E+03 -0.42674318366E+02  0.15779868755E+03  0.00000000000E+00 0.  1.
</event>
<event>
 7    1  0.4915160E-006  0.4282455E+02  0.7818608E-02  0.1588304E+00
          2   -1    0    0  502    0  0.00000000000E+00  0.00000000000E+00  0.18144877866E+04  0.18144877866E+04  0.00000000000E+00 0. -1.
          1   -1    0    0  501    0 -0.00000000000E+00 -0.00000000000E+00 -0.11285349453E+02  0.11285349453E+02  0.00000000000E+00 0. -1.
         25    2    1    2    0    0  0.62089481170E+00 -0.56072327129E+02  0.14988035950E+04  0.15050521561E+04  0.12500114018E+03 0.  0.
          2    1    1    2  501    0 -0.11062626338E+02  0.19364725766E+02  0.11030361600E+02  0.24880578420E+02  0.00000000000E+00 0. -1.
          1    1    1    2  502    0  0.10441731526E+02  0.36707601364E+02  0.29336848056E+03  0.29584040146E+03  0.00000000000E+00 0. -1.
         22    1    3    3    0    0  0.57799413390E+01 -0.89207174597E+02  0.72020567924E+03  0.72573242185E+03  0.00000000000E+00 0. -1.
         22    1    3    3    0    0 -0.51590465273E+01  0.33134847468E+02  0.77859791572E+03  0.77931973428E+03  0.00000000000E+00 0. -1.
</event>
<event>
 7    1  0.4915160E-006  0.2052551E+03  0.7818608E-02  0.1220454E+00
          2   -1    0    0  502    0  0.00000000000E+00  0.00000000000E+00  0.79634393820E+02  0.79634393820E+02  0.00000000000E+00 0. -1.
          1   -1    0    0  501    0 -0.00000000000E+00 -0.00000000000E+00 -0.24338427565E+04  0.24338427565E+04  0.00000000000E+00 0. -1.
         25    2    1    2    0    0  0.18063406364E+03 -0.46843146500E+02 -0.29437081637E+03  0.37027247344E+03  0.12499832693E+03 0.  0.
          2    1    1    2  501    0  0.63483179356E+01 -0.88345672068E+02 -0.17724120372E+04  0.17746238160E+04  0.00000000000E+00 0. -1.
          1    1    1    2  502    0 -0.18698238158E+03  0.13518881857E+03 -0.28742550917E+03  0.36858086088E+03  0.00000000000E+00 0. -1.
         22    1    3    3    0    0  0.18555749170E+03 -0.37079834167E+02 -0.30238774210E+03  0.35671395178E+03  0.00000000000E+00 0.  1.
         22    1    3    3    0    0 -0.49234280564E+01 -0.97633123327E+01  0.80169257234E+01  0.13558521659E+02  0.00000000000E+00 0.  1.
</event>
<event>
 7    1  0.4915160E-006  0.9506648E+02  0.7818608E-02  0.1429445E+00
          2   -1    0    0  502    0  0.00000000000E+00  0.00000000000E+00  0.12424300604E+04  0.12424300604E+04  0.00000000000E+00 0. -1.
          1   -1    0    0  501    0 -0.00000000000E+00 -0.00000000000E+00 -0.10576671473E+03  0.10576671473E+03  0.00000000000E+00 0. -1.
         25    2    1    2    0    0 -0.89799263339E+02 -0.76824266428E+02  0.33909727509E+03  0.38023447690E+03  0.12500167936E+03 0.  0.
          2    1    1    2  501    0  0.28674698573E+02  0.74535044810E+01 -0.80118563724E+02  0.85421176067E+02  0.00000000000E+00 0. -1.
          1    1    1    2  502    0  0.61124564765E+02  0.69370761947E+02  0.87768463426E+03  0.88254112213E+03  0.00000000000E+00 0. -1.
         22    1    3    3    0    0 -0.53710127595E+02  0.14042252588E+02  0.48799626429E+02  0.73914587219E+02  0.00000000000E+00 0.  1.
         22    1    3    3    0    0 -0.36089135743E+02 -0.90866519017E+02  0.29029764866E+03  0.30631988968E+03  0.00000000000E+00 0.  1.
</event>
<event>
 7    1  0.5609208E-006  0.1550180E+03  0.7818608E-02  0.1290858E+00
          2   -1    0    0  502    0  0.00000000000E+00  0.00000000000E+00  0.77764753941E+03  0.77764753941E+03  0.00000000000E+00 0. -1.
          1   -1    0    0  501    0 -0.00000000000E+00 -0.00000000000E+00 -0.17110660029E+04  0.17110660029E+04  0.00000000000E+00 0. -1.
         25    2    1    2    0    0 -0.12743172898E+03 -0.14275791417E+03 -0.40660709137E+03  0.46644591988E+03  0.12499520716E+03 0.  0.
          2    1    1    2  501    0 -0.19457349800E+01  0.58359763548E+02 -0.12658812679E+04  0.12672273010E+04  0.00000000000E+00 0. -1.
          1    1    1    2  502    0  0.12937746396E+03  0.84398150620E+02  0.73906989584E+03  0.75504032140E+03  0.00000000000E+00 0. -1.
         22    1    3    3    0    0 -0.33605244808E+02 -0.73263936006E+02 -0.29168502095E+03  0.30261703231E+03  0.00000000000E+00 0. -1.
         22    1    3    3    0    0 -0.93826484175E+02 -0.69493978162E+02 -0.11492207042E+03  0.16382888757E+03  0.00000000000E+00 0. -1.
</event>
<event>
 7    1  0.4915160E-006  0.2046956E+03  0.7818608E-02  0.1249152E+00
          2   -1    0    0  502    0  0.00000000000E+00  0.00000000000E+00  0.82468648756E+02  0.82468648756E+02  0.00000000000E+00 0. -1.
          1   -1    0    0  501    0 -0.00000000000E+00 -0.00000000000E+00 -0.31185395335E+04  0.31185395335E+04  0.00000000000E+00 0. -1.
         25    2    1    2    0    0 -0.19488467182E+03 -0.11339089556E+03 -0.12537523595E+04  0.12799846589E+04  0.12501286964E+03 0.  0.
          2    1    1    2  501    0  0.13646416352E+03  0.14451463890E+03 -0.18291631221E+04  0.18399306171E+04  0.00000000000E+00 0. -1.
          1    1    1    2  502    0  0.58420508301E+02 -0.31123743343E+02  0.46844596804E+02  0.81092906222E+02  0.00000000000E+00 0. -1.
         22    1    3    3    0    0 -0.15078040944E+03 -0.10203075736E+03 -0.11749230411E+04  0.11889445570E+04  0.00000000000E+00 0. -1.
         22    1    3    3    0    0 -0.44104262385E+02 -0.11360138198E+02 -0.78829318421E+02  0.91040101841E+02  0.00000000000E+00 0. -1.
</event>
<event>
 7    1  0.4915160E-006  0.9432279E+02  0.7818608E-02  0.1424344E+00
          2   -1    0    0  502    0  0.00000000000E+00  0.00000000000E+00  0.16657875532E+04  0.16657875532E+04  0.00000000000E+00 0. -1.
          1   -1    0    0  501    0 -0.00000000000E+00 -0.00000000000E+00 -0.17256620055E+03  0.17256620055E+03  0.00000000000E+00 0. -1.
         25    2    1    2    0    0 -0.82433742220E+02 -0.13482793071E+02 -0.49287988316E+02  0.15821199736E+03  0.12499849100E+03 0.  0.
          2    1    1    2  501    0 -0.95643599996E+00 -0.31029114609E+02 -0.63853599225E+02  0.71000020122E+02  0.00000000000E+00 0. -1.
          1    1    1    2  502    0  0.83390178220E+02  0.44511907680E+02  0.16063629402E+04  0.16091417362E+04  0.00000000000E+00 0. -1.
         22    1    3    3    0    0 -0.85187097941E+02 -0.46904510080E+02 -0.69068093935E+02  0.11927814687E+03  0.00000000000E+00 0. -1.
         22    1    3    3    0    0  0.27533557205E+01  0.33421717009E+02  0.19780105619E+02  0.38933850489E+02  0.00000000000E+00 0. -1.
</event>
<event>
 7    1  0.4915160E-006  0.5405086E+02  0.7818608E-02  0.1488721E+00
          2   -1    0    0  502    0  0.00000000000E+00  0.00000000000E+00  0.17761134408E+04  0.17761134408E+04  0.00000000000E+00 0. -1.
          1   -1    0    0  501    0 -0.00000000000E+00 -0.00000000000E+00 -0.82134717496E+02  0.82134717496E+02  0.00000000000E+00 0. -1.
         25    2    1    2    0    0  0.61096003701E+02  0.10052092110E+01  0.42378449974E+03  0.44603971208E+03  0.12499756166E+03 0.  0.
          2    1    1    2  501    0 -0.16400636499E+02  0.29615486091E+02 -0.66391866829E+02  0.74524746729E+02  0.00000000000E+00 0. -1.
          1    1    1    2  502    0 -0.44695367201E+02 -0.30620695302E+02  0.13365860904E+04  0.13376836995E+04  0.00000000000E+00 0. -1.
         22    1    3    3    0    0  0.92595520553E+02  0.23049576291E+02  0.23993420592E+03  0.25821238655E+03  0.00000000000E+00 0. -1.
         22    1    3    3    0    0 -0.31499516852E+02 -0.22044367080E+02  0.18385029382E+03  0.18782732554E+03  0.00000000000E+00 0. -1.
</event>
<event>
 7    1  0.4915160E-006  0.1171197E+03  0.7818608E-02  0.1296610E+00
          2   -1    0    0  502    0  0.00000000000E+00  0.00000000000E+00  0.13855841003E+04  0.13855841003E+04  0.00000000000E+00 0. -1.
          1   -1    0    0  501    0 -0.00000000000E+00 -0.00000000000E+00 -0.59027378768E+03  0.59027378768E+03  0.00000000000E+00 0. -1.
         25    2    1    2    0    0  0.34386987633E+02  0.17866289287E+03  0.50560047906E+01  0.22080097272E+03  0.12499844865E+03 0.  0.
          2    1    1    2  501    0 -0.41148688884E+02 -0.10571788073E+03 -0.47465733007E+03  0.48802568159E+03  0.00000000000E+00 0. -1.
          1    1    1    2  502    0  0.67617012511E+01 -0.72945012135E+02  0.12649116379E+04  0.12670312337E+04  0.00000000000E+00 0. -1.
         22    1    3    3    0    0  0.53034240566E+02  0.18770182918E+02 -0.15911624455E+02  0.58464777705E+02  0.00000000000E+00 0.  1.
         22    1    3    3    0    0 -0.18647252934E+02  0.15989270995E+03  0.20967629246E+02  0.16233619502E+03  0.00000000000E+00 0.  1.
</event>
<event>
 7    1  0.4915160E-006  0.2907558E+02  0.7818608E-02  0.1667444E+00
          2   -1    0    0  502    0  0.00000000000E+00  0.00000000000E+00  0.41097730820E+03  0.41097730820E+03  0.00000000000E+00 0. -1.
          1   -1    0    0  501    0 -0.00000000000E+00 -0.00000000000E+00 -0.11521506539E+03  0.11521506539E+03  0.00000000000E+00 0. -1.
         25    2    1    2    0    0 -0.67034526859E+01  0.34898821741E+02  0.20288269859E+03  0.24093397300E+03  0.12499970370E+03 0.  0.
          2    1    1    2  501    0  0.21119145561E+02 -0.19986383060E+02 -0.93403221340E+02  0.97824514176E+02  0.00000000000E+00 0. -1.
          1    1    1    2  502    0 -0.14415692875E+02 -0.14912438682E+02  0.18628276557E+03  0.18743388641E+03  0.00000000000E+00 0. -1.
         22    1    3    3    0    0 -0.64844847493E+02  0.29151257738E+02  0.12106941925E+03  0.14040104825E+03  0.00000000000E+00 0.  1.
         22    1    3    3    0    0  0.58141394807E+02  0.57475640028E+01  0.81813279338E+02  0.10053292475E+03  0.00000000000E+00 0.  1.
</event>
<event>
 7    1  0.4915160E-006  0.4249588E+02  0.7818608E-02  0.1504125E+00
          2   -1    0    0  502    0  0.00000000000E+00  0.00000000000E+00  0.26336677599E+03  0.26336677599E+03  0.00000000000E+00 0. -1.
          1   -1    0    0  501    0 -0.00000000000E+00 -0.00000000000E+00 -0.80385197912E+03  0.80385197912E+03  0.00000000000E+00 0. -1.
         25    2    1    2    0    0  0.66676543315E+02  0.19229869070E+02  0.37601057446E+02  0.14783275095E+03  0.12500053376E+03 0.  0.
          2    1    1    2  501    0 -0.41201915750E+02  0.99215851988E+01 -0.74593123609E+03  0.74713415441E+03  0.00000000000E+00 0. -1.
          1    1    1    2  502    0 -0.25474627565E+02 -0.29151454269E+02  0.16784497551E+03  0.17225184974E+03  0.00000000000E+00 0. -1.
         22    1    3    3    0    0 -0.18964556951E+02 -0.44561807734E+01 -0.30286443130E+02  0.36010840103E+02  0.00000000000E+00 0. -1.
         22    1    3    3    0    0  0.85641100266E+02  0.23686049844E+02  0.67887500576E+02  0.11182191085E+03  0.00000000000E+00 0. -1.
</event>
<event>
 7    1  0.4915160E-006  0.1312770E+03  0.7818608E-02  0.1334505E+00
          2   -1    0    0  502    0  0.00000000000E+00  0.00000000000E+00  0.85492562543E+03  0.85492562543E+03  0.00000000000E+00 0. -1.
          1   -1    0    0  501    0 -0.00000000000E+00 -0.00000000000E+00 -0.17793345475E+03  0.17793345475E+03  0.00000000000E+00 0. -1.
         25    2    1    2    0    0  0.30670306344E+02  0.94571778789E+02  0.39486807624E+02  0.16452562447E+03  0.12499993638E+03 0.  0.
          2    1    1    2  501    0 -0.49023788707E+02 -0.13726860322E+03 -0.68321846371E+02  0.16097787420E+03  0.00000000000E+00 0. -1.
          1    1    1    2  502    0  0.18353482363E+02  0.42696824432E+02  0.70582720942E+03  0.70735558151E+03  0.00000000000E+00 0. -1.
         22    1    3    3    0    0 -0.16314078192E+02 -0.23821795177E+02 -0.55905489902E+01  0.29408864493E+02  0.00000000000E+00 0.  1.
         22    1    3    3    0    0  0.46984384536E+02  0.11839357397E+03  0.45077356614E+02  0.13511675997E+03  0.00000000000E+00 0.  1.
</event>
<event>
 7    1  0.4915160E-006  0.8737670E+02  0.7818608E-02  0.1344533E+00
          2   -1    0    0  502    0  0.00000000000E+00  0.00000000000E+00  0.11798780744E+04  0.11798780744E+04  0.00000000000E+00 0. -1.
          1   -1    0    0  501    0 -0.00000000000E+00 -0.00000000000E+00 -0.27090676006E+03  0.27090676006E+03  0.00000000000E+00 0. -1.
         25    2    1    2    0    0 -0.46066547045E+02  0.41206989532E+02 -0.11328015591E+03  0.17966057598E+03  0.12500154436E+03 0.  0.
          2    1    1    2  501    0  0.10784858290E+03 -0.24462966018E+02 -0.98771477358E+02  0.14827527872E+03  0.00000000000E+00 0. -1.
          1    1    1    2  502    0 -0.61782035859E+02 -0.16744023514E+02  0.11210229476E+04  0.11228489797E+04  0.00000000000E+00 0. -1.
         22    1    3    3    0    0 -0.71371420160E+02  0.59504852377E+02 -0.42266224406E+02  0.10208398894E+03  0.00000000000E+00 0. -1.
         22    1    3    3    0    0  0.25304873115E+02 -0.18297862846E+02 -0.71013931508E+02  0.77576587037E+02  0.00000000000E+00 0. -1.
</event>
<event>
 7    1  0.4915160E-006  0.1252534E+03  0.7818608E-02  0.1238813E+00
          2   -1    0    0  502    0  0.00000000000E+00  0.00000000000E+00  0.62334098187E+03  0.62334098187E+03  0.00000000000E+00 0. -1.
          1   -1    0    0  501    0 -0.00000000000E+00 -0.00000000000E+00 -0.11611571529E+04  0.11611571529E+04  0.00000000000E+00 0. -1.
         25    2    1    2    0    0 -0.72840652323E+02 -0.20465118181E+03  0.31287995992E+03  0.40087336889E+03  0.12497088351E+03 0.  0.
          2    1    1    2  501    0 -0.15725637281E+02  0.12357770073E+03 -0.10999375340E+04  0.11069694316E+04  0.00000000000E+00 0. -1.
          1    1    1    2  502    0  0.88566289604E+02  0.81073481078E+02  0.24924140305E+03  0.27665533427E+03  0.00000000000E+00 0. -1.
         22    1    3    3    0    0 -0.90959514416E+02 -0.11464194784E+03  0.12788693473E+03  0.19434885526E+03  0.00000000000E+00 0. -1.
         22    1    3    3    0    0  0.18118862092E+02 -0.90009233968E+02  0.18499302518E+03  0.20652451363E+03  0.00000000000E+00 0. -1.
</event>
<event>
 7    1  0.4915160E-006  0.1407125E+03  0.7818608E-02  0.1354023E+00
          2   -1    0    0  502    0  0.00000000000E+00  0.00000000000E+00  0.24004467470E+04  0.24004467470E+04  0.00000000000E+00 0. -1.
          1   -1    0    0  501    0 -0.00000000000E+00 -0.00000000000E+00 -0.43952628568E+03  0.43952628568E+03  0.00000000000E+00 0. -1.
         25    2    1    2    0    0  0.23313460454E+02 -0.12217210962E+03 -0.37508772790E+02  0.18027723782E+03  0.12499373037E+03 0.  0.
          2    1    1    2  501    0 -0.31527625161E+02 -0.18694624522E+02 -0.32747266754E+03  0.32951756876E+03  0.00000000000E+00 0. -1.
          1    1    1    2  502    0  0.82141647074E+01  0.14086673414E+03  0.23259019016E+04  0.23301782261E+04  0.00000000000E+00 0. -1.
         22    1    3    3    0    0  0.31459564746E+02 -0.65888299165E+01  0.31837623747E+02  0.45241034245E+02  0.00000000000E+00 0. -1.
         22    1    3    3    0    0 -0.81461042916E+01 -0.11558327970E+03 -0.69346396537E+02  0.13503620357E+03  0.00000000000E+00 0. -1.
</event>
<event>
 7    1  0.4915160E-006  0.2312014E+03  0.7818608E-02  0.1280763E+00
          2   -1    0    0  502    0  0.00000000000E+00  0.00000000000E+00  0.30253437596E+04  0.30253437596E+04  0.00000000000E+00 0. -1.
          1   -1    0    0  501    0 -0.00000000000E+00 -0.00000000000E+00 -0.25703403762E+04  0.25703403762E+04  0.00000000000E+00 0. -1.
         25    2    1    2    0    0 -0.22959507352E+03  0.10778724319E+03  0.17727441666E+04  0.17951542617E+04  0.12499982127E+03 0.  0.
          2    1    1    2  501    0  0.42723328012E+02 -0.53792824514E+01 -0.25498075594E+04  0.25501711333E+04  0.00000000000E+00 0. -1.
          1    1    1    2  502    0  0.18687174551E+03 -0.10240796074E+03  0.12320667762E+04  0.12503587408E+04  0.00000000000E+00 0. -1.
         22    1    3    3    0    0  0.88228807652E+01  0.30375374615E+01  0.25939222055E+03  0.25956000065E+03  0.00000000000E+00 0. -1.
         22    1    3    3    0    0 -0.23841795429E+03  0.10474970573E+03  0.15133519461E+04  0.15355942610E+04  0.00000000000E+00 0. -1.
</event>
<event>
 7    1  0.4915160E-006  0.4887438E+02  0.7818608E-02  0.1489166E+00
          2   -1    0    0  502    0  0.00000000000E+00  0.00000000000E+00  0.27003526011E+03  0.27003526011E+03  0.00000000000E+00 0. -1.
          1   -1    0    0  501    0 -0.00000000000E+00 -0.00000000000E+00 -0.43114640842E+03  0.43114640842E+03  0.00000000000E+00 0. -1.
         25    2    1    2    0    0  0.35098424460E+02 -0.36881258610E+02 -0.67221824555E+02  0.15079260734E+03  0.12501003998E+03 0.  0.
          2    1    1    2  501    0  0.14010527398E+02  0.34593563927E+02 -0.31838919332E+03  0.32056931850E+03  0.00000000000E+00 0. -1.
          1    1    1    2  502    0 -0.49108951858E+02  0.22876946831E+01  0.22449986956E+03  0.22981974269E+03  0.00000000000E+00 0. -1.
         22    1    3    3    0    0  0.79452957288E+02 -0.16828864804E+02 -0.61308295117E+02  0.10175799803E+03  0.00000000000E+00 0.  1.
         22    1    3    3    0    0 -0.44354532828E+02 -0.20052393806E+02 -0.59135294384E+01  0.49034609310E+02  0.00000000000E+00 0.  1.
</event>
<event>
 7    1  0.4915160E-006  0.1464338E+03  0.7818608E-02  0.1311061E+00
          2   -1    0    0  502    0  0.00000000000E+00  0.00000000000E+00  0.11567034199E+04  0.11567034199E+04  0.00000000000E+00 0. -1.
          1   -1    0    0  501    0 -0.00000000000E+00 -0.00000000000E+00 -0.15817372586E+03  0.15817372586E+03  0.00000000000E+00 0. -1.
         25    2    1    2    0    0 -0.15704153813E+03 -0.77152756607E+02  0.41663208484E+03  0.46885090398E+03  0.12499713392E+03 0.  0.
          2    1    1    2  501    0  0.14156439681E+03  0.28216068645E+02 -0.91349505734E+02  0.17082551675E+03  0.00000000000E+00 0. -1.
          1    1    1    2  502    0  0.15477141324E+02  0.48936687962E+02  0.67324711488E+03  0.67520072499E+03  0.00000000000E+00 0. -1.
         22    1    3    3    0    0 -0.29682026421E+02 -0.62441332611E+02  0.66270956727E+02  0.95769423180E+02  0.00000000000E+00 0. -1.
         22    1    3    3    0    0 -0.12735951171E+03 -0.14711423996E+02  0.35036112811E+03  0.37308148080E+03  0.00000000000E+00 0. -1.
</event>
<event>
 7    1  0.4915160E-006  0.4814923E+02  0.7818608E-02  0.1496421E+00
          2   -1    0    0  502    0  0.00000000000E+00  0.00000000000E+00  0.21331446578E+04  0.21331446578E+04  0.00000000000E+00 0. -1.
          1   -1    0    0  501    0 -0.00000000000E+00 -0.00000000000E+00 -0.24114817574E+03  0.24114817574E+03  0.00000000000E+00 0. -1.
         25    2    1    2    0    0 -0.24975843908E+02  0.53085506094E+02  0.24234498212E+03  0.27891905169E+03  0.12499153293E+03 0.  0.
          2    1    1    2  501    0  0.35509125027E+02 -0.60750061783E+01 -0.22109315816E+03  0.22400890216E+03  0.00000000000E+00 0. -1.
          1    1    1    2  502    0 -0.10533281118E+02 -0.47010499915E+02  0.18707446581E+04  0.18713648797E+04  0.00000000000E+00 0. -1.
         22    1    3    3    0    0  0.20571772804E+02  0.31287112777E+02  0.68430908638E+01  0.38064539335E+02  0.00000000000E+00 0. -1.
         22    1    3    3    0    0 -0.45547616713E+02  0.21798393317E+02  0.23550189125E+03  0.24085451236E+03  0.00000000000E+00 0. -1.
</event>
<event>
 7    1  0.4915160E-006  0.1168096E+03  0.7818608E-02  0.1372380E+00
          2   -1    0    0  502    0  0.00000000000E+00  0.00000000000E+00  0.12451655767E+03  0.12451655767E+03  0.00000000000E+00 0. -1.
          1   -1    0    0  501    0 -0.00000000000E+00 -0.00000000000E+00 -0.14142495909E+04  0.14142495909E+04  0.00000000000E+00 0. -1.
         25    2    1    2    0    0  0.29144909083E+02  0.10253076104E+03 -0.15345926313E+03  0.22480246340E+03  0.12499767768E+03 0.  0.
          2    1    1    2  501    0 -0.66666969849E+02 -0.97410199206E+02 -0.12180964212E+04  0.12238023219E+04  0.00000000000E+00 0. -1.
          1    1    1    2  502    0  0.37522060766E+02 -0.51205618358E+01  0.81822651084E+02  0.90161363278E+02  0.00000000000E+00 0. -1.
         22    1    3    3    0    0  0.49637228783E+02  0.12211309306E+03 -0.14326641325E+03  0.19468109088E+03  0.00000000000E+00 0.  1.
         22    1    3    3    0    0 -0.20492319700E+02 -0.19582332021E+02 -0.10192849872E+02  0.30121372522E+02  0.00000000000E+00 0.  1.
</event>
<event>
 7    1  0.4915160E-006  0.7098154E+02  0.7818608E-02  0.1414356E+00
          2   -1    0    0  502    0  0.00000000000E+00  0.00000000000E+00  0.86879635173E+03  0.86879635173E+03  0.00000000000E+00 0. -1.
          1   -1    0    0  501    0 -0.00000000000E+00 -0.00000000000E+00 -0.43001681472E+02  0.43001681472E+02  0.00000000000E+00 0. -1.
         25    2    1    2    0    0  0.14492802630E+02 -0.10301484225E+03  0.22311650276E+03  0.27609363886E+03  0.12499849824E+03 0.  0.
          2    1    1    2  501    0 -0.27106911419E+02  0.35353105727E+02  0.19756455968E+02  0.48733400083E+02  0.00000000000E+00 0. -1.
          1    1    1    2  502    0  0.12614108789E+02  0.67661736526E+02  0.58292171153E+03  0.58697099426E+03  0.00000000000E+00 0. -1.
         22    1    3    3    0    0  0.51621606614E+02 -0.53596255849E+02  0.19397068793E+03  0.20775460690E+03  0.00000000000E+00 0. -1.
         22    1    3    3    0    0 -0.37128803984E+02 -0.49418586404E+02  0.29145814831E+02  0.68339031963E+02  0.00000000000E+00 0. -1.
</event>
<event>
 7    1  0.4915160E-006  0.2086574E+03  0.7818608E-02  0.1204716E+00
          2   -1    0    0  502    0  0.00000000000E+00  0.00000000000E+00  0.17833897504E+04  0.17833897504E+04  0.00000000000E+00 0. -1.
          1   -1    0    0  501    0 -0.00000000000E+00 -0.00000000000E+00 -0.67689904141E+03  0.67689904141E+03  0.00000000000E+00 0. -1.
         25    2    1    2    0    0 -0.18056926091E+03 -0.12412500667E+03  0.21916834581E+03  0.33417083053E+03  0.12499241939E+03 0.  0.
          2    1    1    2  501    0 -0.28096968861E+02  0.99091318846E+02 -0.60771490564E+03  0.61638132327E+03  0.00000000000E+00 0. -1.
          1    1    1    2  502    0  0.20866622977E+03  0.25033687822E+02  0.14950372688E+04  0.15097366380E+04  0.00000000000E+00 0. -1.
         22    1    3    3    0    0 -0.14607108787E+03 -0.26556976562E+02  0.12098367664E+03  0.19151784703E+03  0.00000000000E+00 0. -1.
         22    1    3    3    0    0 -0.34498173037E+02 -0.97568030105E+02  0.98184669174E+02  0.14265298350E+03  0.00000000000E+00 0. -1.
</event>
<event>
 7    1  0.4915160E-006  0.1844432E+03  0.7818608E-02  0.1277689E+00
          2   -1    0    0  502    0  0.00000000000E+00  0.00000000000E+00  0.44884851893E+03  0.44884851893E+03  0.00000000000E+00 0. -1.
          1   -1    0    0  501    0 -0.00000000000E+00 -0.00000000000E+00 -0.16187051010E+03  0.16187051010E+03  0.00000000000E+00 0. -1.
         25    2    1    2    0    0  0.11315155329E+03  0.90501411769E+02  0.16572792730E+02  0.19207725751E+03  0.12500094339E+03 0.  0.
          2    1    1    2  501    0  0.29295246470E+02  0.47233762493E+02 -0.26590777489E+02  0.61614196680E+02  0.00000000000E+00 0. -1.
          1    1    1    2  502    0 -0.14244679976E+03 -0.13773517426E+03  0.29699599358E+03  0.35702757484E+03  0.00000000000E+00 0. -1.
         22    1    3    3    0    0 -0.14606007325E+02 -0.13275252658E+02  0.19095337931E+02  0.27462696769E+02  0.00000000000E+00 0.  1.
         22    1    3    3    0    0  0.12775756061E+03  0.10377666443E+03 -0.25225452008E+01  0.16461456074E+03  0.00000000000E+00 0.  1.
</event>
<event>
 7    1  0.4915160E-006  0.1065658E+03  0.7818608E-02  0.1462377E+00
          2   -1    0    0  502    0  0.00000000000E+00  0.00000000000E+00  0.78432108463E+03  0.78432108463E+03  0.00000000000E+00 0. -1.
          1   -1    0    0  501    0 -0.00000000000E+00 -0.00000000000E+00 -0.33763704280E+02  0.33763704280E+02  0.00000000000E+00 0. -1.
         25    2    1    2    0    0 -0.31233541057E+02 -0.87033367599E+02  0.46554304126E+03  0.49082858817E+03  0.12502815096E+03 0.  0.
          2    1    1    2  501    0  0.46670796350E+02  0.10083417407E+03  0.13064621164E+03  0.17150547078E+03  0.00000000000E+00 0. -1.
          1    1    1    2  502    0 -0.15437255293E+02 -0.13800806474E+02  0.15436812745E+03  0.15575072996E+03  0.00000000000E+00 0. -1.
         22    1    3    3    0    0  0.19072127446E+02 -0.80122908863E+02  0.14908461674E+03  0.17032219327E+03  0.00000000000E+00 0. -1.
         22    1    3    3    0    0 -0.50305668503E+02 -0.69104587357E+01  0.31645842452E+03  0.32050639490E+03  0.00000000000E+00 0. -1.
</event>
<event>
 7    1  0.4915160E-006  0.4799744E+02  0.7818608E-02  0.1544225E+00
          2   -1    0    0  502    0  0.00000000000E+00  0.00000000000E+00  0.32204180755E+03  0.32204180755E+03  0.00000000000E+00 0. -1.
          1   -1    0    0  501    0 -0.00000000000E+00 -0.00000000000E+00 -0.69314920705E+03  0.69314920705E+03  0.00000000000E+00 0. -1.
         25    2    1    2    0    0  0.26970812660E+02  0.26018196846E+01  0.69299053457E+02  0.14546930334E+03  0.12499906081E+03 0.  0.
          2    1    1    2  501    0  0.20946827160E+02 -0.15825902196E+02 -0.65191852369E+03  0.65244692526E+03  0.00000000000E+00 0. -1.
          1    1    1    2  502    0 -0.47917639820E+02  0.13224082512E+02  0.21151207073E+03  0.21727478600E+03  0.00000000000E+00 0. -1.
         22    1    3    3    0    0 -0.56823069290E+01 -0.26465390347E+02  0.92218504856E+02  0.96109094971E+02  0.00000000000E+00 0. -1.
         22    1    3    3    0    0  0.32653119589E+02  0.29067210032E+02 -0.22919451399E+02  0.49360208370E+02  0.00000000000E+00 0. -1.
</event>
<event>
 7    1  0.4915160E-006  0.6684067E+02  0.7818608E-02  0.1371470E+00
          2   -1    0    0  502    0  0.00000000000E+00  0.00000000000E+00  0.13533987225E+04  0.13533987225E+04  0.00000000000E+00 0. -1.
          1   -1    0    0  501    0 -0.00000000000E+00 -0.00000000000E+00 -0.15101820397E+04  0.15101820397E+04  0.00000000000E+00 0. -1.
         25    2    1    2    0    0 -0.21800221337E+02 -0.28013117479E+01  0.26455159508E+03  0.29342031984E+03  0.12499936255E+03 0.  0.
          2    1    1    2  501    0  0.48323281258E+01 -0.66665762927E+02 -0.14938096692E+04  0.14953043179E+04  0.00000000000E+00 0. -1.
          1    1    1    2  502    0  0.16967893211E+02  0.69467074675E+02  0.10724747570E+04  0.10748561244E+04  0.00000000000E+00 0. -1.
         22    1    3    3    0    0 -0.31757574468E+02 -0.59236584175E+02  0.11410905365E+03  0.13243259631E+03  0.00000000000E+00 0.  1.
         22    1    3    3    0    0  0.99573531308E+01  0.56435272427E+02  0.15044254143E+03  0.16098772353E+03  0.00000000000E+00 0.  1.
</event>
<event>
 7    1  0.4915160E-006  0.4024209E+02  0.7818608E-02  0.1522306E+00
          2   -1    0    0  502    0  0.00000000000E+00  0.00000000000E+00  0.79121490077E+03  0.79121490077E+03  0.00000000000E+00 0. -1.
          1   -1    0    0  501    0 -0.00000000000E+00 -0.00000000000E+00 -0.57060396629E+02  0.57060396629E+02  0.00000000000E+00 0. -1.
         25    2    1    2    0    0  0.79943536407E+01  0.23685313800E+02  0.30005679272E+03  0.32601229306E+03  0.12500013035E+03 0.  0.
          2    1    1    2  501    0 -0.40393852084E+02 -0.76254284085E+01 -0.33647430959E+02  0.53122123966E+02  0.00000000000E+00 0. -1.
          1    1    1    2  502    0  0.32399498443E+02 -0.16059885391E+02  0.46774514239E+03  0.46914088038E+03  0.00000000000E+00 0. -1.
         22    1    3    3    0    0  0.53636759728E+02  0.45887723890E+02  0.12290647740E+03  0.14173421388E+03  0.00000000000E+00 0.  1.
         22    1    3    3    0    0 -0.45642406087E+02 -0.22202410090E+02  0.17715031532E+03  0.18427807917E+03  0.00000000000E+00 0.  1.
</event>
<event>
 7    1  0.4915160E-006  0.5459930E+02  0.7818608E-02  0.1437845E+00
          2   -1    0    0  502    0  0.00000000000E+00  0.00000000000E+00  0.58172061323E+03  0.58172061323E+03  0.00000000000E+00 0. -1.
          1   -1    0    0  501    0 -0.00000000000E+00 -0.00000000000E+00 -0.64777986270E+02  0.64777986270E+02  0.00000000000E+00 0. -1.
         25    2    1    2    0    0  0.57409399303E+02 -0.14385966710E+02  0.45099494994E+03  0.47172416750E+03  0.12499780063E+03 0.  0.
          2    1    1    2  501    0 -0.29189061445E+02 -0.38632963563E+02 -0.33301668115E+02  0.58766557504E+02  0.00000000000E+00 0. -1.
          1    1    1    2  502    0 -0.28220337859E+02  0.53018930272E+02  0.99249345129E+02  0.11600787449E+03  0.00000000000E+00 0. -1.
         22    1    3    3    0    0  0.67188267526E+02 -0.60910727705E+02  0.28860310089E+03  0.30251632995E+03  0.00000000000E+00 0.  1.
         22    1    3    3    0    0 -0.97788682231E+01  0.46524760996E+02  0.16239184906E+03  0.16920783755E+03  0.00000000000E+00 0.  1.
</event>
<event>
 7    1  0.4915160E-006  0.1154433E+03  0.7818608E-02  0.1260490E+00
          2   -1    0    0  502    0  0.00000000000E+00  0.00000000000E+00  0.22708696179E+04  0.22708696179E+04  0.00000000000E+00 0. -1.
          1   -1    0    0  501    0 -0.00000000000E+00 -0.00000000000E+00 -0.10647786846E+03  0.10647786846E+03  0.00000000000E+00 0. -1.
         25    2    1    2    0    0 -0.57815029413E+02 -0.78991180402E+02  0.20284518148E+03  0.25759631535E+03  0.12501003889E+03 0.  0.
          2    1    1    2  501    0 -0.38092842035E+02  0.12147299452E+03 -0.25586435739E+02  0.12985152562E+03  0.00000000000E+00 0. -1.
          1    1    1    2  502    0  0.95907871448E+02 -0.42481814122E+02  0.19871330037E+04  0.19898996454E+04  0.00000000000E+00 0. -1.
         22    1    3    3    0    0 -0.84619710585E+01 -0.34855329114E+02  0.18579664914E+03  0.18922709572E+03  0.00000000000E+00 0.  1.
         22    1    3    3    0    0 -0.49353058355E+02 -0.44135851288E+02  0.17048532339E+02  0.68369219629E+02  0.00000000000E+00 0.  1.
</event>
<event>
 7    1  0.4915160E-006  0.1098947E+03  0.7818608E-02  0.1350992E+00
          2   -1    0    0  502    0  0.00000000000E+00  0.00000000000E+00  0.16312013084E+04  0.16312013084E+04  0.00000000000E+00 0. -1.
          1   -1    0    0  501    0 -0.00000000000E+00 -0.00000000000E+00 -0.50130720438E+03  0.50130720438E+03  0.00000000000E+00 0. -1.
         25    2    1    2    0    0 -0.73205499530E+02 -0.41396820015E+01  0.32451952217E+02  0.14850792174E+03  0.12500116595E+03 0.  0.
          2    1    1    2  501    0 -0.33973715458E+02  0.34130386395E+02 -0.43995371384E+03  0.44258148056E+03  0.00000000000E+00 0. -1.
          1    1    1    2  502    0  0.10717921499E+03 -0.29990704394E+02  0.15373958656E+04  0.15414191104E+04  0.00000000000E+00 0. -1.
         22    1    3    3    0    0  0.93649386817E+01  0.46912996244E+02  0.11047354349E+02  0.49097610240E+02  0.00000000000E+00 0.  1.
         22    1    3    3    0    0 -0.82570438212E+02 -0.51052678246E+02  0.21404597868E+02  0.99410311499E+02  0.00000000000E+00 0.  1.
</event>
<event>
 7    1  0.4915160E-006  0.2549762E+02  0.7818608E-02  0.1681068E+00
          2   -1    0    0  502    0  0.00000000000E+00  0.00000000000E+00  0.18859049659E+04  0.18859049659E+04  0.00000000000E+00 0. -1.
          1   -1    0    0  501    0 -0.00000000000E+00 -0.00000000000E+00 -0.14106207907E+03  0.14106207907E+03  0.00000000000E+00 0. -1.
         25    2    1    2    0    0  0.36851535976E+02  0.79493803720E+01  0.44638684761E+03  0.46508844366E+03  0.12499925744E+03 0.  0.
          2    1    1    2  501    0 -0.23619276936E+02  0.95640922599E+01 -0.13039368518E+03  0.13286028465E+03  0.00000000000E+00 0. -1.
          1    1    1    2  502    0 -0.13232259039E+02 -0.17513472632E+02  0.14288497244E+04  0.14290183167E+04  0.00000000000E+00 0. -1.
         22    1    3    3    0    0 -0.45856656339E+02  0.12738075886E+02  0.17261291925E+03  0.17905393434E+03  0.00000000000E+00 0.  1.
         22    1    3    3    0    0  0.82708192315E+02 -0.47886955141E+01  0.27377392835E+03  0.28603450933E+03  0.00000000000E+00 0.  1.
</event>
<event>
 7    1  0.4915160E-006  0.4141978E+02  0.7818608E-02  0.1502607E+00
          2   -1    0    0  502    0  0.00000000000E+00  0.00000000000E+00  0.15084130294E+03  0.15084130294E+03  0.00000000000E+00 0. -1.
          1   -1    0    0  501    0 -0.00000000000E+00 -0.00000000000E+00 -0.46001472669E+03  0.46001472669E+03  0.00000000000E+00 0. -1.
         25    2    1    2    0    0  0.19326550580E+01 -0.47430432225E+01  0.80911087456E+01  0.12536550906E+03  0.12499925282E+03 0.  0.
          2    1    1    2  501    0  0.11303785696E+02 -0.38509332313E+02 -0.39420305573E+03  0.39624082752E+03  0.00000000000E+00 0. -1.
          1    1    1    2  502    0 -0.13236440754E+02  0.43252375536E+02  0.76938523236E+02  0.89249693058E+02  0.00000000000E+00 0. -1.
         22    1    3    3    0    0  0.22303972646E+02 -0.57894181759E+02 -0.15178280057E+02  0.63871618602E+02  0.00000000000E+00 0.  1.
         22    1    3    3    0    0 -0.20371317588E+02  0.53151138536E+02  0.23269388802E+02  0.61493890454E+02  0.00000000000E+00 0.  1.
</event>
<event>
 7    1  0.4915160E-006  0.3339696E+02  0.7818608E-02  0.1577449E+00
          2   -1    0    0  502    0  0.00000000000E+00  0.00000000000E+00  0.97101971587E+03  0.97101971587E+03  0.00000000000E+00 0. -1.
          1   -1    0    0  501    0 -0.00000000000E+00 -0.00000000000E+00 -0.98624070224E+02  0.98624070224E+02  0.00000000000E+00 0. -1.
         25    2    1    2    0    0 -0.21406638159E+02 -0.22958007809E+02  0.19448306145E+02  0.13033349070E+03  0.12499307143E+03 0.  0.
          2    1    1    2  501    0  0.29007510288E+02 -0.96548467702E+01 -0.37415809476E+02  0.48317641892E+02  0.00000000000E+00 0. -1.
          1    1    1    2  502    0 -0.76008721292E+01  0.32612854579E+02  0.89036314897E+03  0.89099265350E+03  0.00000000000E+00 0. -1.
         22    1    3    3    0    0  0.28648560944E+02 -0.41169310807E+02 -0.29334795738E+02  0.58104926103E+02  0.00000000000E+00 0. -1.
         22    1    3    3    0    0 -0.50055199103E+02  0.18211302998E+02  0.48783101883E+02  0.72228564595E+02  0.00000000000E+00 0. -1.
</event>
<event>
 7    1  0.4915160E-006  0.1251730E+03  0.7818608E-02  0.1247404E+00
          2   -1    0    0  502    0  0.00000000000E+00  0.00000000000E+00  0.26123982019E+04  0.26123982019E+04  0.00000000000E+00 0. -1.
          1   -1    0    0  501    0 -0.00000000000E+00 -0.00000000000E+00 -0.17920400367E+04  0.17920400367E+04  0.00000000000E+00 0. -1.
         25    2    1    2    0    0 -0.61486435061E+02 -0.14167117169E+03  0.64215702463E+02  0.20880731940E+03  0.12500215042E+03 0.  0.
          2    1    1    2  501    0 -0.55152792432E+02  0.95359129348E+02 -0.17163870703E+04  0.17199185356E+04  0.00000000000E+00 0. -1.
          1    1    1    2  502    0  0.11663922749E+03  0.46312042344E+02  0.24725295330E+04  0.24757123836E+04  0.00000000000E+00 0. -1.
         22    1    3    3    0    0 -0.67286010034E+02 -0.81091817339E+02 -0.17608559803E+02  0.10683328771E+03  0.00000000000E+00 0. -1.
         22    1    3    3    0    0  0.57995749726E+01 -0.60579354353E+02  0.81824262266E+02  0.10197403169E+03  0.00000000000E+00 0. -1.
</event>
<event>
 7    1  0.4915160E-006  0.4634213E+02  0.7818608E-02  0.1467224E+00
          2   -1    0    0  502    0  0.00000000000E+00  0.00000000000E+00  0.60270268947E+03  0.60270268947E+03  0.00000000000E+00 0. -1.
          1   -1    0    0  501    0 -0.00000000000E+00 -0.00000000000E+00 -0.10310980010E+04  0.10310980010E+04  0.00000000000E+00 0. -1.
         25    2    1    2    0    0 -0.18787188891E+02 -0.47802757031E+02  0.34636139302E+03  0.37179165085E+03  0.12499902007E+03 0.  0.
          2    1    1    2  501    0  0.45234187742E+02  0.10190580478E+02 -0.10156798002E+04  0.10167376438E+04  0.00000000000E+00 0. -1.
          1    1    1    2  502    0 -0.26446998852E+02  0.37612176553E+02  0.24092309570E+03  0.24527139583E+03  0.00000000000E+00 0. -1.
         22    1    3    3    0    0  0.72031414496E+01 -0.82745305735E+02  0.15844514700E+03  0.17889531988E+03  0.00000000000E+00 0. -1.
         22    1    3    3    0    0 -0.25990330340E+02  0.34942548704E+02  0.18791624602E+03  0.19289633097E+03  0.00000000000E+00 0. -1.
</event>
<event>
 7    1  0.4915160E-006  0.1297922E+03  0.7818608E-02  0.1240689E+00
          2   -1    0    0  502    0  0.00000000000E+00  0.00000000000E+00  0.39864098901E+04  0.39864098901E+04  0.00000000000E+00 0. -1.
          1   -1    0    0  501    0 -0.00000000000E+00 -0.00000000000E+00 -0.20723905145E+03  0.20723905145E+03  0.00000000000E+00 0. -1.
         25    2    1    2    0    0  0.38535173258E+00  0.69014586114E+02  0.36177172691E+03  0.38891686627E+03  0.12495753234E+03 0.  0.
          2    1    1    2  501    0  0.11322031324E+03  0.10266155357E+02 -0.17553218513E+03  0.20913101466E+03  0.00000000000E+00 0. -1.
          1    1    1    2  502    0 -0.11360566498E+03 -0.79280741471E+02  0.35929312969E+04  0.35956010606E+04  0.00000000000E+00 0. -1.
         22    1    3    3    0    0  0.50258203859E+02  0.50229004703E+02  0.10573200829E+03  0.12738955038E+03  0.00000000000E+00 0.  1.
         22    1    3    3    0    0 -0.49872852126E+02  0.18785581411E+02  0.25603971862E+03  0.26152731589E+03  0.00000000000E+00 0.  1.
</event>
<event>
 7    1  0.4915160E-006  0.8857603E+02  0.7818608E-02  0.1477391E+00
          2   -1    0    0  502    0  0.00000000000E+00  0.00000000000E+00  0.10108441417E+03  0.10108441417E+03  0.00000000000E+00 0. -1.
          1   -1    0    0  501    0 -0.00000000000E+00 -0.00000000000E+00 -0.55126190714E+03  0.55126190714E+03  0.00000000000E+00 0. -1.
         25    2    1    2    0    0 -0.88585663885E+02 -0.64233683652E+02 -0.52216687877E+02  0.17413880318E+03  0.12499741725E+03 0.  0.
          2    1    1    2  501    0  0.71136396163E+02  0.50233043898E+02 -0.43022261296E+03  0.43894788103E+03  0.00000000000E+00 0. -1.
          1    1    1    2  502    0  0.17449267722E+02  0.14000639753E+02  0.32261807877E+02  0.39259637097E+02  0.00000000000E+00 0. -1.
         22    1    3    3    0    0 -0.63310028430E+02  0.27468085522E+02 -0.35331363110E+02  0.77530385278E+02  0.00000000000E+00 0.  1.
         22    1    3    3    0    0 -0.25275635455E+02 -0.91701769174E+02 -0.16885324767E+02  0.96608417903E+02  0.00000000000E+00 0.  1.
</event>
<event>
 7    1  0.4915160E-006  0.1428511E+03  0.7818608E-02  0.1319741E+00
          2   -1    0    0  502    0  0.00000000000E+00  0.00000000000E+00  0.36230956098E+04  0.36230956098E+04  0.00000000000E+00 0. -1.
          1   -1    0    0  501    0 -0.00000000000E+00 -0.00000000000E+00 -0.62206116480E+02  0.62206116480E+02  0.00000000000E+00 0. -1.
         25    2    1    2    0    0  0.77468234247E+02 -0.12480218336E+03  0.94893232693E+03  0.96833392276E+03  0.12498444933E+03 0.  0.
          2    1    1    2  501    0 -0.11142545775E+03  0.89949010034E+02  0.45796072511E+02  0.15034539334E+03  0.00000000000E+00 0. -1.
          1    1    1    2  502    0  0.33957223507E+02  0.34853173322E+02  0.25661610939E+04  0.25666224102E+04  0.00000000000E+00 0. -1.
         22    1    3    3    0    0  0.29244223935E+02 -0.12275377655E+03  0.83670372766E+03  0.84616596610E+03  0.00000000000E+00 0. -1.
         22    1    3    3    0    0  0.48224010312E+02 -0.20484068064E+01  0.11222859927E+03  0.12216795666E+03  0.00000000000E+00 0. -1.
</event>
<event>
 7    1  0.4915160E-006  0.4699073E+02  0.7818608E-02  0.1475080E+00
          2   -1    0    0  502    0  0.00000000000E+00  0.00000000000E+00  0.12034941251E+04  0.12034941251E+04  0.00000000000E+00 0. -1.
          1   -1    0    0  501    0 -0.00000000000E+00 -0.00000000000E+00 -0.27866963837E+03  0.27866963837E+03  0.00000000000E+00 0. -1.
         25    2    1    2    0    0  0.80344182257E+00  0.67942283755E+02  0.97969542997E+03  0.98997233674E+03  0.12500117024E+03 0.  0.
          2    1    1    2  501    0  0.28902069014E+02 -0.37035289869E+02 -0.26937757817E+03  0.27344327000E+03  0.00000000000E+00 0. -1.
          1    1    1    2  502    0 -0.29705510836E+02 -0.30906993886E+02  0.21450663494E+03  0.21874815674E+03  0.00000000000E+00 0. -1.
         22    1    3    3    0    0  0.19818453011E+02 -0.31696620913E+02  0.37147937154E+03  0.37335555485E+03  0.00000000000E+00 0. -1.
         22    1    3    3    0    0 -0.19015011188E+02  0.99638904669E+02  0.60821605843E+03  0.61661678189E+03  0.00000000000E+00 0. -1.
</event>
<event>
 7    1  0.4915160E-006  0.6544538E+02  0.7818608E-02  0.1463751E+00
          2   -1    0    0  502    0  0.00000000000E+00  0.00000000000E+00  0.14150376973E+03  0.14150376973E+03  0.00000000000E+00 0. -1.
          1   -1    0    0  501    0 -0.00000000000E+00 -0.00000000000E+00 -0.30623816241E+03  0.30623816241E+03  0.00000000000E+00 0. -1.
         25    2    1    2    0    0 -0.34558008177E+02 -0.39193236813E+02  0.10979971745E+02  0.13592526497E+03  0.12499900854E+03 0.  0.
          2    1    1    2  501    0  0.63035930246E+02  0.21772653293E+02 -0.23472628514E+03  0.24401640492E+03  0.00000000000E+00 0. -1.
          1    1    1    2  502    0 -0.28477922069E+02  0.17420583520E+02  0.59011920711E+02  0.67800262253E+02  0.00000000000E+00 0. -1.
         22    1    3    3    0    0  0.31569817064E+02  0.15774145203E+02 -0.24438095649E+02  0.42926652855E+02  0.00000000000E+00 0. -1.
         22    1    3    3    0    0 -0.66127825241E+02 -0.54967382016E+02  0.35418067394E+02  0.92998612112E+02  0.00000000000E+00 0. -1.
</event>
<event>
 7    1  0.4915160E-006  0.1620847E+03  0.7818608E-02  0.1305361E+00
          2   -1    0    0  502    0  0.00000000000E+00  0.00000000000E+00  0.37466588276E+04  0.37466588276E+04  0.00000000000E+00 0. -1.
          1   -1    0    0  501    0 -0.00000000000E+00 -0.00000000000E+00 -0.26599044804E+04  0.26599044804E+04  0.00000000000E+00 0. -1.
         25    2    1    2    0    0 -0.11872715366E+03  0.88109870615E+02 -0.63858401290E+03  0.66728853632E+03  0.12499985141E+03 0.  0.
          2    1    1    2  501    0  0.23257735694E+02  0.42944862534E+02 -0.20049097329E+04  0.20055044803E+04  0.00000000000E+00 0. -1.
          1    1    1    2  502    0  0.95469417968E+02 -0.13105473315E+03  0.37302480930E+04  0.37337702913E+04  0.00000000000E+00 0. -1.
         22    1    3    3    0    0  0.15206728006E+02  0.17282746066E+02 -0.20237604925E+02  0.30651240454E+02  0.00000000000E+00 0.  1.
         22    1    3    3    0    0 -0.13393388167E+03  0.70827124549E+02 -0.61834640798E+03  0.63663729587E+03  0.00000000000E+00 0.  1.
</event>
<event>
 7    1  0.4915160E-006  0.7869559E+02  0.7818608E-02  0.1493133E+00
          2   -1    0    0  502    0  0.00000000000E+00  0.00000000000E+00  0.10590221399E+04  0.10590221399E+04  0.00000000000E+00 0. -1.
          1   -1    0    0  501    0 -0.00000000000E+00 -0.00000000000E+00 -0.30079185529E+02  0.30079185529E+02  0.00000000000E+00 0. -1.
         25    2    1    2    0    0 -0.20252035847E+02  0.95368087606E+02  0.48213851332E+03  0.50753081816E+03  0.12499907306E+03 0.  0.
          2    1    1    2  501    0  0.20140318329E+02 -0.72819429113E+02  0.66245034317E+02  0.10048236786E+03  0.00000000000E+00 0. -1.
          1    1    1    2  502    0  0.11171751829E+00 -0.22548658493E+02  0.48055940674E+03  0.48108813942E+03  0.00000000000E+00 0. -1.
         22    1    3    3    0    0  0.26728830365E+02 -0.14608807944E+02  0.18045849769E+03  0.18301124837E+03  0.00000000000E+00 0.  1.
         22    1    3    3    0    0 -0.46980866212E+02  0.10997689555E+03  0.30168001563E+03  0.32451956979E+03  0.00000000000E+00 0.  1.
</event>
<event>
 7    1  0.4915160E-006  0.1508210E+03  0.7818608E-02  0.1338652E+00
          2   -1    0    0  502    0  0.00000000000E+00  0.00000000000E+00  0.99850420090E+03  0.99850420090E+03  0.00000000000E+00 0. -1.
          1   -1    0    0  501    0 -0.00000000000E+00 -0.00000000000E+00 -0.58593631160E+03  0.58593631160E+03  0.00000000000E+00 0. -1.
         25    2    1    2    0    0 -0.99106196754E+02 -0.11529564372E+03 -0.26578007351E+03  0.33072274151E+03  0.12499344216E+03 0.  0.
          2    1    1    2  501    0 -0.25214116503E+02  0.29775644573E+02 -0.28043357552E+03  0.28313482823E+03  0.00000000000E+00 0. -1.
          1    1    1    2  502    0  0.12432031326E+03  0.85519999148E+02  0.95878153832E+03  0.97058294276E+03  0.00000000000E+00 0. -1.
         22    1    3    3    0    0 -0.86040328374E+02 -0.14161291381E+03 -0.23992891804E+03  0.29158710736E+03  0.00000000000E+00 0. -1.
         22    1    3    3    0    0 -0.13065868381E+02  0.26317270092E+02 -0.25851155472E+02  0.39135634157E+02  0.00000000000E+00 0. -1.
</event>
<event>
 7    1  0.4915160E-006  0.1671447E+03  0.7818608E-02  0.1266256E+00
          2   -1    0    0  502    0  0.00000000000E+00  0.00000000000E+00  0.50604070573E+03  0.50604070573E+03  0.00000000000E+00 0. -1.
          1   -1    0    0  501    0 -0.00000000000E+00 -0.00000000000E+00 -0.82590146989E+03  0.82590146989E+03  0.00000000000E+00 0. -1.
         25    2    1    2    0    0 -0.12017888894E+03 -0.11855647994E+03  0.14885149086E+03  0.25744950326E+03  0.12499950446E+03 0.  0.
          2    1    1    2  501    0 -0.38793820824E+02  0.56430711485E+02 -0.74586384033E+03  0.74900083714E+03  0.00000000000E+00 0. -1.
          1    1    1    2  502    0  0.15897270977E+03  0.62125768457E+02  0.27715158530E+03  0.32549183521E+03  0.00000000000E+00 0. -1.
         22    1    3    3    0    0 -0.59471842333E+02 -0.12218330687E+03  0.57155294934E+02  0.14741909051E+03  0.00000000000E+00 0.  1.
         22    1    3    3    0    0 -0.60707046609E+02  0.36268269324E+01  0.91696195929E+02  0.11003041275E+03  0.00000000000E+00 0.  1.
</event>
<event>
 7    1  0.4915160E-006  0.1112251E+03  0.7818608E-02  0.1327554E+00
          2   -1    0    0  502    0  0.00000000000E+00  0.00000000000E+00  0.59891188834E+02  0.59891188834E+02  0.00000000000E+00 0. -1.
          1   -1    0    0  501    0 -0.00000000000E+00 -0.00000000000E+00 -0.21234726213E+04  0.21234726213E+04  0.00000000000E+00 0. -1.
         25    2    1    2    0    0 -0.75034437252E+02 -0.13311152591E+03 -0.76611713625E+03  0.79114424798E+03  0.12499963823E+03 0.  0.
          2    1    1    2  501    0  0.51491966558E+02  0.27353017916E+02 -0.12813555518E+04  0.12826814337E+04  0.00000000000E+00 0. -1.
          1    1    1    2  502    0  0.23542470694E+02  0.10575850799E+03 -0.16108744410E+02  0.10953812845E+03  0.00000000000E+00 0. -1.
         22    1    3    3    0    0 -0.13849928865E+02 -0.13396930495E+03 -0.47871899832E+03  0.49730420726E+03  0.00000000000E+00 0. -1.
         22    1    3    3    0    0 -0.61184508387E+02  0.85777903882E+00 -0.28739813793E+03  0.29384004073E+03  0.00000000000E+00 0. -1.
</event>
<event>
 7    1  0.4915160E-006  0.5728185E+02  0.7818608E-02  0.1558976E+00
          2   -1    0    0  502    0  0.00000000000E+00  0.00000000000E+00  0.43742811227E+04  0.43742811227E+04  0.00000000000E+00 0. -1.
          1   -1    0    0  501    0 -0.00000000000E+00 -0.00000000000E+00 -0.14582257355E+02  0.14582257355E+02  0.00000000000E+00 0. -1.
         25    2    1    2    0    0  0.36702511474E+01  0.59795139244E+02  0.21638981271E+04  0.21683333356E+04  0.12500168022E+03 0.  0.
          2    1    1    2  501    0  0.18740651328E+02 -0.70232709764E+01 -0.36403329624E+01  0.20341837957E+02  0.00000000000E+00 0. -1.
          1    1    1    2  502    0 -0.22410902475E+02 -0.52771868268E+02  0.21994410711E+04  0.22001882065E+04  0.00000000000E+00 0. -1.
         22    1    3    3    0    0  0.67105665214E+01  0.77037349122E+02  0.21146882475E+04  0.21161016443E+04  0.00000000000E+00 0.  1.
         22    1    3    3    0    0 -0.30403153740E+01 -0.17242209877E+02  0.49209879660E+02  0.52231691292E+02  0.00000000000E+00 0.  1.
</event>
<event>
 7    1  0.4915160E-006  0.8785051E+02  0.7818608E-02  0.1416394E+00
          2   -1    0    0  502    0  0.00000000000E+00  0.00000000000E+00  0.37567710212E+03  0.37567710212E+03  0.00000000000E+00 0. -1.
          1   -1    0    0  501    0 -0.00000000000E+00 -0.00000000000E+00 -0.43156994215E+03  0.43156994215E+03  0.00000000000E+00 0. -1.
         25    2    1    2    0    0  0.11385119792E+02  0.55321911214E+02  0.25442358742E+03  0.28904401383E+03  0.12499978113E+03 0.  0.
          2    1    1    2  501    0  0.12775996560E+01 -0.88413172881E+02 -0.40634093021E+03  0.41585030114E+03  0.00000000000E+00 0. -1.
          1    1    1    2  502    0 -0.12662719448E+02  0.33091261666E+02  0.96024502759E+02  0.10235272929E+03  0.00000000000E+00 0. -1.
         22    1    3    3    0    0  0.62805166576E+02  0.23321431218E+02  0.18583749432E+03  0.19754481112E+03  0.00000000000E+00 0. -1.
         22    1    3    3    0    0 -0.51420046785E+02  0.32000479996E+02  0.68586093096E+02  0.91499202715E+02  0.00000000000E+00 0. -1.
</event>
<event>
 7    1  0.4915160E-006  0.7903637E+02  0.7818608E-02  0.1463039E+00
          2   -1    0    0  502    0  0.00000000000E+00  0.00000000000E+00  0.21287356689E+04  0.21287356689E+04  0.00000000000E+00 0. -1.
          1   -1    0    0  501    0 -0.00000000000E+00 -0.00000000000E+00 -0.20700407608E+02  0.20700407608E+02  0.00000000000E+00 0. -1.
         25    2    1    2    0    0  0.83739181325E+02  0.11243875348E+02  0.43056263983E+03  0.45623218284E+03  0.12499977047E+03 0.  0.
          2    1    1    2  501    0 -0.13287578329E+02  0.24402663527E+02  0.20945169994E+02  0.34795831232E+02  0.00000000000E+00 0. -1.
          1    1    1    2  502    0 -0.70451602996E+02 -0.35646538875E+02  0.16565274515E+04  0.16584080625E+04  0.00000000000E+00 0. -1.
         22    1    3    3    0    0  0.96812371313E+02  0.50408892375E+02  0.29633376894E+03  0.31579644439E+03  0.00000000000E+00 0. -1.
         22    1    3    3    0    0 -0.13073189987E+02 -0.39165017026E+02  0.13422887089E+03  0.14043573845E+03  0.00000000000E+00 0. -1.
</event>
<event>
 7    1  0.4915160E-006  0.6821881E+02  0.7818608E-02  0.1409688E+00
          2   -1    0    0  502    0  0.00000000000E+00  0.00000000000E+00  0.32360738921E+03  0.32360738921E+03  0.00000000000E+00 0. -1.
          1   -1    0    0  501    0 -0.00000000000E+00 -0.00000000000E+00 -0.23276498158E+03  0.23276498158E+03  0.00000000000E+00 0. -1.
         25    2    1    2    0    0 -0.64104403741E+02  0.15555663652E+02 -0.12944614643E+03  0.19165772450E+03  0.12500010114E+03 0.  0.
          2    1    1    2  501    0  0.68792056503E+02  0.32282722123E+02 -0.49491498975E+02  0.90685884549E+02  0.00000000000E+00 0. -1.
          1    1    1    2  502    0 -0.46876527619E+01 -0.47838385775E+02  0.26978005304E+03  0.27402876174E+03  0.00000000000E+00 0. -1.
         22    1    3    3    0    0 -0.43639102605E+02  0.39929674807E+02 -0.14473076050E+03  0.15635134551E+03  0.00000000000E+00 0.  1.
         22    1    3    3    0    0 -0.20465301136E+02 -0.24374011155E+02  0.15284614071E+02  0.35306378994E+02  0.00000000000E+00 0.  1.
</event>
<event>
 7    1  0.4915160E-006  0.1075872E+03  0.7818608E-02  0.1331339E+00
          2   -1    0    0  502    0  0.00000000000E+00  0.00000000000E+00  0.18125393772E+04  0.18125393772E+04  0.00000000000E+00 0. -1.
          1   -1    0    0  501    0 -0.00000000000E+00 -0.00000000000E+00 -0.74522757284E+02  0.74522757284E+02  0.00000000000E+00 0. -1.
         25    2    1    2    0    0 -0.41940500085E+02 -0.13391462039E+03  0.35622601011E+03  0.40275747696E+03  0.12499793545E+03 0.  0.
          2    1    1    2  501    0  0.50762422910E+02  0.28675091703E+02 -0.32046552663E+02  0.66528685553E+02  0.00000000000E+00 0. -1.
          1    1    1    2  502    0 -0.88219228248E+01  0.10523952869E+03  0.14138371624E+04  0.14177759719E+04  0.00000000000E+00 0. -1.
         22    1    3    3    0    0 -0.14550512665E+02 -0.10210156618E+03  0.10187469610E+03  0.14496517147E+03  0.00000000000E+00 0. -1.
         22    1    3    3    0    0 -0.27389987420E+02 -0.31813054217E+02  0.25435131401E+03  0.25779230549E+03  0.00000000000E+00 0. -1.
</event>
<event>
 7    1  0.4915160E-006  0.7989835E+02  0.7818608E-02  0.1358555E+00
          2   -1    0    0  502    0  0.00000000000E+00  0.00000000000E+00  0.21458689056E+04  0.21458689056E+04  0.00000000000E+00 0. -1.
          1   -1    0    0  501    0 -0.00000000000E+00 -0.00000000000E+00 -0.13805334462E+04  0.13805334462E+04  0.00000000000E+00 0. -1.
         25    2    1    2    0    0 -0.55131803040E+01  0.34301463874E+02  0.62535768034E+03  0.63867402931E+03  0.12500120708E+03 0.  0.
          2    1    1    2  501    0 -0.50999732218E+02  0.35478835286E+02 -0.13718400935E+04  0.13732461406E+04  0.00000000000E+00 0. -1.
          1    1    1    2  502    0  0.56512912522E+02 -0.69780299160E+02  0.15118178726E+04  0.15144821819E+04  0.00000000000E+00 0. -1.
         22    1    3    3    0    0  0.39903846559E+02  0.59322880334E+02  0.45553431414E+03  0.46111065099E+03  0.00000000000E+00 0. -1.
         22    1    3    3    0    0 -0.45417026862E+02 -0.25021416460E+02  0.16982336621E+03  0.17756337832E+03  0.00000000000E+00 0. -1.
</event>
<event>
 7    1  0.4915160E-006  0.4426179E+03  0.7818608E-02  0.1111344E+00
          2   -1    0    0  502    0  0.00000000000E+00  0.00000000000E+00  0.16774152588E+04  0.16774152588E+04  0.00000000000E+00 0. -1.
          1   -1    0    0  501    0 -0.00000000000E+00 -0.00000000000E+00 -0.93117460675E+03  0.93117460675E+03  0.00000000000E+00 0. -1.
         25    2    1    2    0    0  0.37046070158E+03  0.33193172697E+03  0.11328005425E+04  0.12434960238E+04  0.12500195749E+03 0.  0.
          2    1    1    2  501    0 -0.14000988680E+03 -0.36780724569E+02 -0.79668748977E+03  0.80973239188E+03  0.00000000000E+00 0. -1.
          1    1    1    2  502    0 -0.23045081479E+03 -0.29515100240E+03  0.41012759935E+03  0.55536144987E+03  0.00000000000E+00 0. -1.
         22    1    3    3    0    0  0.31740578140E+03  0.27124489183E+03  0.81612914857E+03  0.91672624516E+03  0.00000000000E+00 0.  1.
         22    1    3    3    0    0  0.53054920186E+02  0.60686835139E+02  0.31667139391E+03  0.32676977865E+03  0.00000000000E+00 0.  1.
</event>
<event>
 7    1  0.4915160E-006  0.3335352E+03  0.7818608E-02  0.1218357E+00
          2   -1    0    0  502    0  0.00000000000E+00  0.00000000000E+00  0.19717408533E+04  0.19717408533E+04  0.00000000000E+00 0. -1.
          1   -1    0    0  501    0 -0.00000000000E+00 -0.00000000000E+00 -0.10378530007E+04  0.10378530007E+04  0.00000000000E+00 0. -1.
         25    2    1    2    0    0 -0.33533837144E+03  0.94293680875E+02  0.34773328375E+03  0.50782558146E+03  0.12500105175E+03 0.  0.
          2    1    1    2  501    0  0.33053867559E+03 -0.38778629926E+02 -0.92836933158E+03  0.98621965810E+03  0.00000000000E+00 0. -1.
          1    1    1    2  502    0  0.47996958482E+01 -0.55515050950E+02  0.15145239004E+04  0.15155486145E+04  0.00000000000E+00 0. -1.
         22    1    3    3    0    0 -0.26693893022E+03  0.71301942067E+02  0.19281088652E+03  0.33692194552E+03  0.00000000000E+00 0. -1.
         22    1    3    3    0    0 -0.68399441214E+02  0.22991738809E+02  0.15492239723E+03  0.17090363594E+03  0.00000000000E+00 0. -1.
</event>
<event>
 7    1  0.4915160E-006  0.6200111E+02  0.7818608E-02  0.1503748E+00
          2   -1    0    0  502    0  0.00000000000E+00  0.00000000000E+00  0.12593631736E+04  0.12593631736E+04  0.00000000000E+00 0. -1.
          1   -1    0    0  501    0 -0.00000000000E+00 -0.00000000000E+00 -0.57725442812E+03  0.57725442812E+03  0.00000000000E+00 0. -1.
         25    2    1    2    0    0  0.77761254782E+02  0.31819485952E+02 -0.15649603716E+03  0.21719892573E+03  0.12500028504E+03 0.  0.
          2    1    1    2  501    0 -0.51159660872E+02 -0.32092296159E+02 -0.38792631966E+03  0.39259910323E+03  0.00000000000E+00 0. -1.
          1    1    1    2  502    0 -0.26601593910E+02  0.27281020693E+00  0.12265311023E+04  0.12268195727E+04  0.00000000000E+00 0. -1.
         22    1    3    3    0    0  0.80282588805E+02 -0.93139837358E+01 -0.15633203887E+03  0.17598792781E+03  0.00000000000E+00 0.  1.
         22    1    3    3    0    0 -0.25213340228E+01  0.41133469687E+02 -0.16399828835E+00  0.41210997916E+02  0.00000000000E+00 0.  1.
</event>
<event>
 7    1  0.4915160E-006  0.1783312E+03  0.7818608E-02  0.1183718E+00
          2   -1    0    0  502    0  0.00000000000E+00  0.00000000000E+00  0.83674138448E+03  0.83674138448E+03  0.00000000000E+00 0. -1.
          1   -1    0    0  501    0 -0.00000000000E+00 -0.00000000000E+00 -0.83820822248E+03  0.83820822248E+03  0.00000000000E+00 0. -1.
         25    2    1    2    0    0 -0.20807516741E+03  0.22100717630E+03 -0.44670207795E+03  0.55435254614E+03  0.12499820677E+03 0.  0.
          2    1    1    2  501    0  0.13998145839E+03 -0.58525991145E+02 -0.30997241591E+03  0.34511302345E+03  0.00000000000E+00 0. -1.
          1    1    1    2  502    0  0.68093709024E+02 -0.16248118516E+03  0.75520765586E+03  0.77548403736E+03  0.00000000000E+00 0. -1.
         22    1    3    3    0    0 -0.98656218919E+02  0.15044753239E+03 -0.16542071492E+03  0.24440033236E+03  0.00000000000E+00 0. -1.
         22    1    3    3    0    0 -0.10941894849E+03  0.70559643917E+02 -0.28128136303E+03  0.30995221378E+03  0.00000000000E+00 0. -1.
</event>
<event>
 7    1  0.4915160E-006  0.1130307E+03  0.7818608E-02  0.1262628E+00
          2   -1    0    0  502    0  0.00000000000E+00  0.00000000000E+00  0.19396667229E+03  0.19396667229E+03  0.00000000000E+00 0. -1.
          1   -1    0    0  501    0 -0.00000000000E+00 -0.00000000000E+00 -0.44780471389E+03  0.44780471389E+03  0.00000000000E+00 0. -1.
         25    2    1    2    0    0 -0.28499789915E+02 -0.90333813738E+01 -0.82004266053E+02  0.15245844703E+03  0.12500015366E+03 0.  0.
          2    1    1    2  501    0 -0.93976014060E+02 -0.46639769984E+02 -0.29115922451E+03  0.30948417307E+03  0.00000000000E+00 0. -1.
          1    1    1    2  502    0  0.12247580398E+03  0.55673151358E+02  0.11932544897E+03  0.17982876609E+03  0.00000000000E+00 0. -1.
         22    1    3    3    0    0  0.18434815185E+02 -0.22238591505E+02 -0.97189711772E+02  0.10139150575E+03  0.00000000000E+00 0.  1.
         22    1    3    3    0    0 -0.46934605099E+02  0.13205210131E+02  0.15185445719E+02  0.51066941284E+02  0.00000000000E+00 0.  1.
</event>
<event>
 7    1  0.4915160E-006  0.5981885E+02  0.7818608E-02  0.1462102E+00
          2   -1    0    0  502    0  0.00000000000E+00  0.00000000000E+00  0.26713647721E+03  0.26713647721E+03  0.00000000000E+00 0. -1.
          1   -1    0    0  501    0 -0.00000000000E+00 -0.00000000000E+00 -0.61895372645E+03  0.61895372645E+03  0.00000000000E+00 0. -1.
         25    2    1    2    0    0  0.71309925352E+02 -0.71798003345E+00 -0.30555827290E+03  0.33775380831E+03  0.12500462369E+03 0.  0.
          2    1    1    2  501    0 -0.50397583742E+02  0.31195319788E+02 -0.29295295828E+03  0.29888877561E+03  0.00000000000E+00 0. -1.
          1    1    1    2  502    0 -0.20912341609E+02 -0.30477339754E+02  0.24669398193E+03  0.24944761974E+03  0.00000000000E+00 0. -1.
         22    1    3    3    0    0  0.40471518237E+02  0.57622515766E+02 -0.21105121666E+03  0.22248800903E+03  0.00000000000E+00 0. -1.
         22    1    3    3    0    0  0.30838407115E+02 -0.58340495799E+02 -0.94507056242E+02  0.11526579928E+03  0.00000000000E+00 0. -1.
</event>
<event>
 7    1  0.4915160E-006  0.5863355E+02  0.7818608E-02  0.1520329E+00
          2   -1    0    0  502    0  0.00000000000E+00  0.00000000000E+00  0.18777548218E+03  0.18777548218E+03  0.00000000000E+00 0. -1.
          1   -1    0    0  501    0 -0.00000000000E+00 -0.00000000000E+00 -0.30960069239E+03  0.30960069239E+03  0.00000000000E+00 0. -1.
         25    2    1    2    0    0  0.64083424342E+02 -0.29247708029E+02 -0.63576615342E+02  0.15696160327E+03  0.12503137679E+03 0.  0.
          2    1    1    2  501    0 -0.22420737329E+02 -0.11390839091E+02 -0.19247633676E+03  0.19411228938E+03  0.00000000000E+00 0. -1.
          1    1    1    2  502    0 -0.41662687013E+02  0.40638547119E+02  0.13422774189E+03  0.14630228191E+03  0.00000000000E+00 0. -1.
         22    1    3    3    0    0 -0.30665303618E+02  0.16876825330E+02 -0.23380312842E+01  0.35080685134E+02  0.00000000000E+00 0. -1.
         22    1    3    3    0    0  0.94748727960E+02 -0.46124533359E+02 -0.61238584058E+02  0.12188091813E+03  0.00000000000E+00 0. -1.
</event>
<event>
 7    1  0.4915160E-006  0.1079781E+03  0.7818608E-02  0.1327039E+00
          2   -1    0    0  502    0  0.00000000000E+00  0.00000000000E+00  0.14130719979E+04  0.14130719979E+04  0.00000000000E+00 0. -1.
          1   -1    0    0  501    0 -0.00000000000E+00 -0.00000000000E+00 -0.22834969484E+03  0.22834969484E+03  0.00000000000E+00 0. -1.
         25    2    1    2    0    0 -0.42101464524E+02 -0.14498129831E+03  0.13900723279E+03  0.24029101103E+03  0.12499859615E+03 0.  0.
          2    1    1    2  501    0 -0.18331983300E+02  0.57480461855E+02 -0.17019849580E+03  0.18057572672E+03  0.00000000000E+00 0. -1.
          1    1    1    2  502    0  0.60433447824E+02  0.87500836453E+02  0.12159135661E+04  0.12205549550E+04  0.00000000000E+00 0. -1.
         22    1    3    3    0    0 -0.62813117410E+02 -0.90547913639E+02  0.14457315888E+03  0.18178506719E+03  0.00000000000E+00 0. -1.
         22    1    3    3    0    0  0.20711652886E+02 -0.54433384668E+02 -0.55659260893E+01  0.58505943843E+02  0.00000000000E+00 0. -1.
</event>
<event>
 7    1  0.4915160E-006  0.8703431E+02  0.7818608E-02  0.1338474E+00
          2   -1    0    0  502    0  0.00000000000E+00  0.00000000000E+00  0.17236807222E+04  0.17236807222E+04  0.00000000000E+00 0. -1.
          1   -1    0    0  501    0 -0.00000000000E+00 -0.00000000000E+00 -0.17063317603E+03  0.17063317603E+03  0.00000000000E+00 0. -1.
         25    2    1    2    0    0 -0.48541647159E+02 -0.91214540998E+02  0.25033876151E+03  0.29827925290E+03  0.12499853278E+03 0.  0.
          2    1    1    2  501    0  0.67463217503E+02  0.58580054749E+01 -0.13744939008E+03  0.15322511797E+03  0.00000000000E+00 0. -1.
          1    1    1    2  502    0 -0.18921570344E+02  0.85356535523E+02  0.14401581748E+04  0.14428095274E+04  0.00000000000E+00 0. -1.
         22    1    3    3    0    0 -0.37126824858E+02 -0.91877751931E+02  0.79461555468E+02  0.12701992451E+03  0.00000000000E+00 0.  1.
         22    1    3    3    0    0 -0.11414822301E+02  0.66321093337E+00  0.17087720604E+03  0.17125932839E+03  0.00000000000E+00 0.  1.
</event>
<event>
 7    1  0.4915160E-006  0.7197880E+02  0.7818608E-02  0.1375287E+00
          2   -1    0    0  502    0  0.00000000000E+00  0.00000000000E+00  0.61678719926E+02  0.61678719926E+02  0.00000000000E+00 0. -1.
          1   -1    0    0  501    0 -0.00000000000E+00 -0.00000000000E+00 -0.27862361434E+04  0.27862361434E+04  0.00000000000E+00 0. -1.
         25    2    1    2    0    0 -0.68760053064E+02  0.10633717866E+03 -0.90285620051E+03  0.92022306092E+03  0.12500249037E+03 0.  0.
          2    1    1    2  501    0  0.44808615722E+02 -0.51321153447E+02 -0.18568844981E+04  0.18581339328E+04  0.00000000000E+00 0. -1.
          1    1    1    2  502    0  0.23951437342E+02 -0.55016025215E+02  0.35183275119E+02  0.69557869643E+02  0.00000000000E+00 0. -1.
         22    1    3    3    0    0 -0.79336455716E+02  0.12807865318E+03 -0.70659925533E+03  0.72248247193E+03  0.00000000000E+00 0.  1.
         22    1    3    3    0    0  0.10576402652E+02 -0.21741474520E+02 -0.19625694517E+03  0.19774058900E+03  0.00000000000E+00 0.  1.
</event>
<event>
 7    1  0.4915160E-006  0.8111330E+02  0.7818608E-02  0.1417266E+00
          2   -1    0    0  502    0  0.00000000000E+00  0.00000000000E+00  0.11038813879E+04  0.11038813879E+04  0.00000000000E+00 0. -1.
          1   -1    0    0  501    0 -0.00000000000E+00 -0.00000000000E+00 -0.37084472393E+03  0.37084472393E+03  0.00000000000E+00 0. -1.
         25    2    1    2    0    0 -0.46436052170E+02  0.32396263825E+02 -0.19960469647E+03  0.24222649510E+03  0.12500326085E+03 0.  0.
          2    1    1    2  501    0 -0.33598317575E+02 -0.18000558187E+02 -0.14595100049E+03  0.15084615203E+03  0.00000000000E+00 0. -1.
          1    1    1    2  502    0  0.80034369745E+02 -0.14395705638E+02  0.10785923609E+04  0.10816534647E+04  0.00000000000E+00 0. -1.
         22    1    3    3    0    0 -0.98704913843E+01 -0.44081853340E+02 -0.35253027287E+02  0.57301067415E+02  0.00000000000E+00 0.  1.
         22    1    3    3    0    0 -0.36565560786E+02  0.76478117164E+02 -0.16435166918E+03  0.18492542768E+03  0.00000000000E+00 0.  1.
</event>
<event>
 7    1  0.4915160E-006  0.1417742E+03  0.7818608E-02  0.1268637E+00
          2   -1    0    0  502    0  0.00000000000E+00  0.00000000000E+00  0.41611860516E+02  0.41611860516E+02  0.00000000000E+00 0. -1.
          1   -1    0    0  501    0 -0.00000000000E+00 -0.00000000000E+00 -0.19381011934E+04  0.19381011934E+04  0.00000000000E+00 0. -1.
         25    2    1    2    0    0  0.15249723620E+03 -0.33541515579E+02 -0.12268605605E+04  0.12430577639E+04  0.12500131699E+03 0.  0.
          2    1    1    2  501    0 -0.47725327145E+02 -0.62814891833E+02 -0.53481869139E+03  0.54060563274E+03  0.00000000000E+00 0. -1.
          1    1    1    2  502    0 -0.10477190906E+03  0.96356407412E+02 -0.13481008107E+03  0.19604965732E+03  0.00000000000E+00 0. -1.
         22    1    3    3    0    0  0.15532365720E+03 -0.10550750385E+02 -0.76839586492E+03  0.78400826657E+03  0.00000000000E+00 0. -1.
         22    1    3    3    0    0 -0.28264209951E+01 -0.22990765194E+02 -0.45846469555E+03  0.45904949734E+03  0.00000000000E+00 0. -1.
</event>
<event>
 7    1  0.4915160E-006  0.5792330E+02  0.7818608E-02  0.1420778E+00
          2   -1    0    0  502    0  0.00000000000E+00  0.00000000000E+00  0.31447349504E+02  0.31447349504E+02  0.00000000000E+00 0. -1.
          1   -1    0    0  501    0 -0.00000000000E+00 -0.00000000000E+00 -0.10466202970E+04  0.10466202970E+04  0.00000000000E+00 0. -1.
         25    2    1    2    0    0  0.23698938732E+02 -0.12799746967E+02 -0.32725036503E+03  0.35134498767E+03  0.12500010291E+03 0.  0.
          2    1    1    2  501    0 -0.56896798332E+02 -0.27162130267E+02 -0.66817623147E+03  0.67114417473E+03  0.00000000000E+00 0. -1.
          1    1    1    2  502    0  0.33197859601E+02  0.39961877234E+02 -0.19746350956E+02  0.55578484058E+02  0.00000000000E+00 0. -1.
         22    1    3    3    0    0 -0.38294810644E+02 -0.97076649985E+01 -0.24571987432E+03  0.24887544659E+03  0.00000000000E+00 0. -1.
         22    1    3    3    0    0  0.61993749375E+02 -0.30920819682E+01 -0.81530490710E+02  0.10246954107E+03  0.00000000000E+00 0. -1.
</event>
<event>
 7    1  0.4915160E-006  0.1062875E+03  0.7818608E-02  0.1338337E+00
          2   -1    0    0  502    0  0.00000000000E+00  0.00000000000E+00  0.17697160066E+03  0.17697160066E+03  0.00000000000E+00 0. -1.
          1   -1    0    0  501    0 -0.00000000000E+00 -0.00000000000E+00 -0.49485563855E+03  0.49485563855E+03  0.00000000000E+00 0. -1.
         25    2    1    2    0    0 -0.13344257918E+03 -0.68830578426E+02 -0.25656077383E+02  0.19704660219E+03  0.12499823464E+03 0.  0.
          2    1    1    2  501    0  0.53266866380E+02  0.15644205129E+02 -0.35538195601E+03  0.35969213901E+03  0.00000000000E+00 0. -1.
          1    1    1    2  502    0  0.80175712803E+02  0.53186373297E+02  0.63153995496E+02  0.11508849801E+03  0.00000000000E+00 0. -1.
         22    1    3    3    0    0 -0.64499230576E+02 -0.28302005879E+02 -0.75148559114E+02  0.10299737967E+03  0.00000000000E+00 0. -1.
         22    1    3    3    0    0 -0.68943348608E+02 -0.40528572547E+02  0.49492481731E+02  0.94049222527E+02  0.00000000000E+00 0. -1.
</event>
<event>
 7    1  0.4915160E-006  0.1593605E+03  0.7818608E-02  0.1249910E+00
          2   -1    0    0  502    0  0.00000000000E+00  0.00000000000E+00  0.12859904447E+04  0.12859904447E+04  0.00000000000E+00 0. -1.
          1   -1    0    0  501    0 -0.00000000000E+00 -0.00000000000E+00 -0.45683050353E+03  0.45683050353E+03  0.00000000000E+00 0. -1.
         25    2    1    2    0    0 -0.13355088901E+03  0.12280750047E+03  0.24672696844E+03  0.33078127046E+03  0.12499811918E+03 0.  0.
          2    1    1    2  501    0  0.80068395559E+02  0.26637738953E+02 -0.40410145678E+03  0.41281776182E+03  0.00000000000E+00 0. -1.
          1    1    1    2  502    0  0.53482493456E+02 -0.14944523942E+03  0.98653442953E+03  0.99922191597E+03  0.00000000000E+00 0. -1.
         22    1    3    3    0    0 -0.83729948436E+02  0.27324284295E+02  0.38034386799E+02  0.95937142737E+02  0.00000000000E+00 0.  1.
         22    1    3    3    0    0 -0.49820940579E+02  0.95483216176E+02  0.20869258164E+03  0.23484412772E+03  0.00000000000E+00 0.  1.
</event>
<event>
 7    1  0.4915160E-006  0.1045896E+03  0.7818608E-02  0.1412266E+00
          2   -1    0    0  502    0  0.00000000000E+00  0.00000000000E+00  0.10320694815E+04  0.10320694815E+04  0.00000000000E+00 0. -1.
          1   -1    0    0  501    0 -0.00000000000E+00 -0.00000000000E+00 -0.37416181365E+02  0.37416181365E+02  0.00000000000E+00 0. -1.
         25    2    1    2    0    0  0.97155229201E+02 -0.48122511353E+02  0.74849486292E+03  0.76656723388E+03  0.12500339826E+03 0.  0.
          2    1    1    2  501    0 -0.76734901024E+02  0.71084513935E+02  0.74223242596E+02  0.12825889013E+03  0.00000000000E+00 0. -1.
          1    1    1    2  502    0 -0.20420328177E+02 -0.22962002582E+02  0.17193519465E+03  0.17465953889E+03  0.00000000000E+00 0. -1.
         22    1    3    3    0    0  0.66528434684E+02 -0.40164804942E+01  0.65780412523E+03  0.66117201386E+03  0.00000000000E+00 0. -1.
         22    1    3    3    0    0  0.30626794517E+02 -0.44106030858E+02  0.90690737693E+02  0.10539522002E+03  0.00000000000E+00 0. -1.
</event>
<event>
 7    1  0.4915160E-006  0.1224409E+03  0.7818608E-02  0.1342430E+00
          2   -1    0    0  502    0  0.00000000000E+00  0.00000000000E+00  0.20694125792E+04  0.20694125792E+04  0.00000000000E+00 0. -1.
          1   -1    0    0  501    0 -0.00000000000E+00 -0.00000000000E+00 -0.48207373131E+03  0.48207373131E+03  0.00000000000E+00 0. -1.
         25    2    1    2    0    0 -0.62725965915E+02 -0.47207748114E+02  0.38808269761E+03  0.41520735273E+03  0.12500338913E+03 0.  0.
          2    1    1    2  501    0  0.10708467372E+03  0.61205438098E+02 -0.46006197855E+03  0.47630899331E+03  0.00000000000E+00 0. -1.
          1    1    1    2  502    0 -0.44358707809E+02 -0.13997689984E+02  0.16593181288E+04  0.16599699644E+04  0.00000000000E+00 0. -1.
         22    1    3    3    0    0 -0.51073271959E+02 -0.88740524475E+02  0.30268395635E+03  0.31953237273E+03  0.00000000000E+00 0. -1.
         22    1    3    3    0    0 -0.11652693955E+02  0.41532776361E+02  0.85398741263E+02  0.95674979999E+02  0.00000000000E+00 0. -1.
</event>
<event>
 7    1  0.4915160E-006  0.1315086E+03  0.7818608E-02  0.1230380E+00
          2   -1    0    0  502    0  0.00000000000E+00  0.00000000000E+00  0.17180847770E+03  0.17180847770E+03  0.00000000000E+00 0. -1.
          1   -1    0    0  501    0 -0.00000000000E+00 -0.00000000000E+00 -0.12970891575E+04  0.12970891575E+04  0.00000000000E+00 0. -1.
         25    2    1    2    0    0  0.62903554567E+02  0.18920545638E+03 -0.18124992130E+03  0.29703948745E+03  0.12500144490E+03 0.  0.
          2    1    1    2  501    0  0.42275022356E+02 -0.12225433704E+03 -0.10184668497E+04  0.10266489294E+04  0.00000000000E+00 0. -1.
          1    1    1    2  502    0 -0.10517857692E+03 -0.66951119345E+02  0.74436091150E+02  0.14520921834E+03  0.00000000000E+00 0. -1.
         22    1    3    3    0    0  0.68914023958E+02  0.92725090015E+02 -0.33164998123E+02  0.12019568260E+03  0.00000000000E+00 0. -1.
         22    1    3    3    0    0 -0.60104693907E+01  0.96480366368E+02 -0.14808492318E+03  0.17684380484E+03  0.00000000000E+00 0. -1.
</event>
<event>
 7    1  0.4915160E-006  0.9258327E+02  0.7818608E-02  0.1424873E+00
          2   -1    0    0  502    0  0.00000000000E+00  0.00000000000E+00  0.49124466536E+03  0.49124466536E+03  0.00000000000E+00 0. -1.
          1   -1    0    0  501    0 -0.00000000000E+00 -0.00000000000E+00 -0.28418229433E+03  0.28418229433E+03  0.00000000000E+00 0. -1.
         25    2    1    2    0    0 -0.35459822704E+02 -0.10430775738E+03  0.11567415341E+03  0.20283881429E+03  0.12500227014E+03 0.  0.
          2    1    1    2  501    0  0.28162600053E+02  0.14110208650E+02 -0.23335552140E+03  0.23547192910E+03  0.00000000000E+00 0. -1.
          1    1    1    2  502    0  0.72972226512E+01  0.90197548730E+02  0.32474373902E+03  0.33711621630E+03  0.00000000000E+00 0. -1.
         22    1    3    3    0    0 -0.36841399971E+02 -0.13016109372E+03  0.75141713292E+02  0.15474325881E+03  0.00000000000E+00 0.  1.
         22    1    3    3    0    0  0.13815772674E+01  0.25853336338E+02  0.40532440115E+02  0.48095555483E+02  0.00000000000E+00 0.  1.
</event>
<event>
 7    1  0.4915160E-006  0.9152475E+02  0.7818608E-02  0.1301981E+00
          2   -1    0    0  502    0  0.00000000000E+00  0.00000000000E+00  0.13131823344E+04  0.13131823344E+04  0.00000000000E+00 0. -1.
          1   -1    0    0  501    0 -0.00000000000E+00 -0.00000000000E+00 -0.40179363828E+02  0.40179363828E+02  0.00000000000E+00 0. -1.
         25    2    1    2    0    0 -0.90128022601E+02 -0.49170909888E+02  0.37806976592E+03  0.41122179680E+03  0.12500311767E+03 0.  0.
          2    1    1    2  501    0  0.10634965025E+02  0.94532060147E+02  0.86603517745E+02  0.12864517932E+03  0.00000000000E+00 0. -1.
          1    1    1    2  502    0  0.79493057576E+02 -0.45361150259E+02  0.80832968695E+03  0.81349472215E+03  0.00000000000E+00 0. -1.
         22    1    3    3    0    0  0.17493187284E+02 -0.43314291681E+02  0.64450641673E+02  0.79599149978E+02  0.00000000000E+00 0.  1.
         22    1    3    3    0    0 -0.10762120989E+03 -0.58566182073E+01  0.31361912424E+03  0.33162264682E+03  0.00000000000E+00 0.  1.
</event>
<event>
 7    1  0.4915160E-006  0.1706643E+03  0.7818608E-02  0.1387141E+00
          2   -1    0    0  502    0  0.00000000000E+00  0.00000000000E+00  0.94061826762E+03  0.94061826762E+03  0.00000000000E+00 0. -1.
          1   -1    0    0  501    0 -0.00000000000E+00 -0.00000000000E+00 -0.37935483246E+03  0.37935483246E+03  0.00000000000E+00 0. -1.
         25    2    1    2    0    0  0.10264829086E+03 -0.11309236704E+03  0.45277254393E+00  0.19736175722E+03  0.12499961243E+03 0.  0.
          2    1    1    2  501    0 -0.11671024573E+03  0.13126638814E+03 -0.25326409080E+03  0.30821233882E+03  0.00000000000E+00 0. -1.
          1    1    1    2  502    0  0.14061954865E+02 -0.18174021104E+02  0.81407475342E+03  0.81439900404E+03  0.00000000000E+00 0. -1.
         22    1    3    3    0    0  0.87542680537E+02 -0.52010385624E+02 -0.53005175781E+02  0.11479699381E+03  0.00000000000E+00 0.  1.
         22    1    3    3    0    0  0.15105610325E+02 -0.61081981417E+02  0.53457948325E+02  0.82564763405E+02  0.00000000000E+00 0.  1.
</event>
<event>
 7    1  0.4915160E-006  0.6192048E+02  0.7818608E-02  0.1451594E+00
          2   -1    0    0  502    0  0.00000000000E+00  0.00000000000E+00  0.11241797381E+04  0.11241797381E+04  0.00000000000E+00 0. -1.
          1   -1    0    0  501    0 -0.00000000000E+00 -0.00000000000E+00 -0.23222066552E+03  0.23222066552E+03  0.00000000000E+00 0. -1.
         25    2    1    2    0    0 -0.29966119161E+02 -0.98747363664E+01  0.56597599164E+02  0.14079946063E+03  0.12500288463E+03 0.  0.
          2    1    1    2  501    0  0.44626720258E+02  0.45531474389E+02 -0.18440035406E+03  0.19511060939E+03  0.00000000000E+00 0. -1.
          1    1    1    2  502    0 -0.14660601096E+02 -0.35656738023E+02  0.10197618275E+04  0.10204903336E+04  0.00000000000E+00 0. -1.
         22    1    3    3    0    0 -0.38477338298E+01  0.53355910505E+02  0.24487416023E+01  0.53550486243E+02  0.00000000000E+00 0. -1.
         22    1    3    3    0    0 -0.26118385331E+02 -0.63230646872E+02  0.54148857562E+02  0.87248974386E+02  0.00000000000E+00 0. -1.
</event>
<event>
 7    1  0.4915160E-006  0.1293689E+03  0.7818608E-02  0.1329239E+00
          2   -1    0    0  502    0  0.00000000000E+00  0.00000000000E+00  0.64014742168E+02  0.64014742168E+02  0.00000000000E+00 0. -1.
          1   -1    0    0  501    0 -0.00000000000E+00 -0.00000000000E+00 -0.15853057072E+04  0.15853057072E+04  0.00000000000E+00 0. -1.
         25    2    1    2    0    0  0.98636007822E+02 -0.22613446618E+02 -0.43459803276E+03  0.46340140000E+03  0.12499990977E+03 0.  0.
          2    1    1    2  501    0 -0.12182216753E+03  0.66222053509E+02 -0.11185730469E+04  0.11271342698E+04  0.00000000000E+00 0. -1.
          1    1    1    2  502    0  0.23186159705E+02 -0.43608606891E+02  0.31880114651E+02  0.58784779553E+02  0.00000000000E+00 0. -1.
         22    1    3    3    0    0 -0.22450215307E+02 -0.27524061072E+02 -0.60403343694E+02  0.70072462741E+02  0.00000000000E+00 0. -1.
         22    1    3    3    0    0  0.12108622313E+03  0.49106144543E+01 -0.37419468906E+03  0.39332893726E+03  0.00000000000E+00 0. -1.
</event>
<event>
 7    1  0.4915160E-006  0.8494565E+02  0.7818608E-02  0.1444116E+00
          2   -1    0    0  502    0  0.00000000000E+00  0.00000000000E+00  0.20381268399E+04  0.20381268399E+04  0.00000000000E+00 0. -1.
          1   -1    0    0  501    0 -0.00000000000E+00 -0.00000000000E+00 -0.56025626180E+02  0.56025626180E+02  0.00000000000E+00 0. -1.
         25    2    1    2    0    0  0.10606892333E+03 -0.30793277245E+02  0.12357204654E+04  0.12469276071E+04  0.12499818599E+03 0.  0.
          2    1    1    2  501    0 -0.76661030762E+02  0.34945820325E+02 -0.14735574444E+02  0.85529299950E+02  0.00000000000E+00 0. -1.
          1    1    1    2  502    0 -0.29407892563E+02 -0.41525430804E+01  0.76111632283E+03  0.76169555902E+03  0.00000000000E+00 0. -1.
         22    1    3    3    0    0  0.34790133152E+02 -0.12026461579E+02  0.98271390842E+03  0.98340307857E+03  0.00000000000E+00 0.  1.
         22    1    3    3    0    0  0.71278790173E+02 -0.18766815666E+02  0.25300655696E+03  0.26352452858E+03  0.00000000000E+00 0.  1.
</event>
<event>
 7    1  0.4915160E-006  0.3246479E+02  0.7818608E-02  0.1625984E+00
          2   -1    0    0  502    0  0.00000000000E+00  0.00000000000E+00  0.33619602452E+02  0.33619602452E+02  0.00000000000E+00 0. -1.
          1   -1    0    0  501    0 -0.00000000000E+00 -0.00000000000E+00 -0.69499699047E+03  0.69499699047E+03  0.00000000000E+00 0. -1.
         25    2    1    2    0    0 -0.29031013763E+02 -0.44223697622E+02 -0.32684398616E+03  0.35390604653E+03  0.12499585308E+03 0.  0.
          2    1    1    2  501    0  0.18735250623E+02  0.14184640203E+02 -0.34141184820E+03  0.34221961330E+03  0.00000000000E+00 0. -1.
          1    1    1    2  502    0  0.10295763139E+02  0.30039057419E+02  0.68784463463E+01  0.32490933095E+02  0.00000000000E+00 0. -1.
         22    1    3    3    0    0 -0.73667606825E+02 -0.16828558242E+02 -0.13152194130E+03  0.15168433574E+03  0.00000000000E+00 0.  1.
         22    1    3    3    0    0  0.44636593063E+02 -0.27395139380E+02 -0.19532204487E+03  0.20222171079E+03  0.00000000000E+00 0.  1.
</event>
<event>
 7    1  0.4915160E-006  0.4532444E+02  0.7818608E-02  0.1570796E+00
          2   -1    0    0  502    0  0.00000000000E+00  0.00000000000E+00  0.43902241951E+03  0.43902241951E+03  0.00000000000E+00 0. -1.
          1   -1    0    0  501    0 -0.00000000000E+00 -0.00000000000E+00 -0.47226125861E+02  0.47226125861E+02  0.00000000000E+00 0. -1.
         25    2    1    2    0    0  0.59606243209E+02  0.16010620428E+02  0.21976899425E+03  0.26025593978E+03  0.12500199661E+03 0.  0.
          2    1    1    2  501    0 -0.22465023121E+02  0.68251902037E+01 -0.18905951116E+02  0.30144576174E+02  0.00000000000E+00 0. -1.
          1    1    1    2  502    0 -0.37141220088E+02 -0.22835810632E+02  0.19093325051E+03  0.19584802942E+03  0.00000000000E+00 0. -1.
         22    1    3    3    0    0  0.63029590765E+02  0.24061703745E+02  0.36363721019E+02  0.76642123571E+02  0.00000000000E+00 0. -1.
         22    1    3    3    0    0 -0.34233475559E+01 -0.80510833164E+01  0.18340527323E+03  0.18361381620E+03  0.00000000000E+00 0. -1.
</event>
<event>
 7    1  0.4915160E-006  0.5499225E+02  0.7818608E-02  0.1449694E+00
          2   -1    0    0  502    0  0.00000000000E+00  0.00000000000E+00  0.34794935962E+04  0.34794935962E+04  0.00000000000E+00 0. -1.
          1   -1    0    0  501    0 -0.00000000000E+00 -0.00000000000E+00 -0.82433492814E+03  0.82433492814E+03  0.00000000000E+00 0. -1.
         25    2    1    2    0    0 -0.62367458418E+02 -0.43892112980E+01  0.31225968992E+04  0.31257222927E+04  0.12497796491E+03 0.  0.
          2    1    1    2  501    0  0.37198633538E+02  0.40505796866E+02 -0.82048475715E+03  0.82232578376E+03  0.00000000000E+00 0. -1.
          1    1    1    2  502    0  0.25168824879E+02 -0.36116585568E+02  0.35304652602E+03  0.35578044779E+03  0.00000000000E+00 0. -1.
         22    1    3    3    0    0 -0.23807644867E+02  0.43069108549E+02  0.50072780869E+03  0.50314022942E+03  0.00000000000E+00 0. -1.
         22    1    3    3    0    0 -0.38559813551E+02 -0.47458319847E+02  0.26218690905E+04  0.26225820633E+04  0.00000000000E+00 0. -1.
</event>
<event>
 7    1  0.4915160E-006  0.5087815E+02  0.7818608E-02  0.1577824E+00
          2   -1    0    0  502    0  0.00000000000E+00  0.00000000000E+00  0.56281463165E+03  0.56281463165E+03  0.00000000000E+00 0. -1.
          1   -1    0    0  501    0 -0.00000000000E+00 -0.00000000000E+00 -0.13566148637E+04  0.13566148637E+04  0.00000000000E+00 0. -1.
         25    2    1    2    0    0 -0.10716048112E+02  0.63703799084E+02 -0.51207835259E+03  0.53105443168E+03  0.12498624927E+03 0.  0.
          2    1    1    2  501    0  0.15185243976E+02 -0.13048507506E+02 -0.83375968285E+03  0.83400003833E+03  0.00000000000E+00 0. -1.
          1    1    1    2  502    0 -0.44691958635E+01 -0.50655291578E+02  0.55203780343E+03  0.55437502532E+03  0.00000000000E+00 0. -1.
         22    1    3    3    0    0  0.43119713553E+00 -0.31604613225E+02 -0.50263125349E+02  0.59375241287E+02  0.00000000000E+00 0. -1.
         22    1    3    3    0    0 -0.11147245248E+02  0.95308412309E+02 -0.46181522724E+03  0.47167919039E+03  0.00000000000E+00 0. -1.
</event>
<event>
 7    1  0.4915160E-006  0.1179081E+03  0.7818608E-02  0.1363664E+00
          2   -1    0    0  502    0  0.00000000000E+00  0.00000000000E+00  0.71906434944E+03  0.71906434944E+03  0.00000000000E+00 0. -1.
          1   -1    0    0  501    0 -0.00000000000E+00 -0.00000000000E+00 -0.28379950439E+04  0.28379950439E+04  0.00000000000E+00 0. -1.
         25    2    1    2    0    0  0.67657049396E+02 -0.67511448395E+02  0.12704427702E+03  0.20223956460E+03  0.12500128467E+03 0.  0.
          2    1    1    2  501    0  0.39503544129E+02  0.81359636727E+01 -0.27934822659E+04  0.27937734149E+04  0.00000000000E+00 0. -1.
          1    1    1    2  502    0 -0.10716059352E+03  0.59375484723E+02  0.54750729444E+03  0.56104641382E+03  0.00000000000E+00 0. -1.
         22    1    3    3    0    0 -0.29326088619E+02 -0.18356680357E+00  0.72319558936E+00  0.29335578779E+02  0.00000000000E+00 0.  1.
         22    1    3    3    0    0  0.96983138015E+02 -0.67327881592E+02  0.12632108143E+03  0.17290398582E+03  0.00000000000E+00 0.  1.
</event>
<event>
 7    1  0.4915160E-006  0.4732495E+02  0.7818608E-02  0.1485906E+00
          2   -1    0    0  502    0  0.00000000000E+00  0.00000000000E+00  0.29576491060E+03  0.29576491060E+03  0.00000000000E+00 0. -1.
          1   -1    0    0  501    0 -0.00000000000E+00 -0.00000000000E+00 -0.11017822327E+04  0.11017822327E+04  0.00000000000E+00 0. -1.
         25    2    1    2    0    0  0.77433876846E+02  0.12812036475E+02 -0.32286966129E+03  0.35501858545E+03  0.12503289274E+03 0.  0.
          2    1    1    2  501    0 -0.45137661981E+02  0.98142254694E+01 -0.76074414335E+03  0.76214524810E+03  0.00000000000E+00 0. -1.
          1    1    1    2  502    0 -0.32296214865E+02 -0.22626261945E+02  0.27759648259E+03  0.28038330972E+03  0.00000000000E+00 0. -1.
         22    1    3    3    0    0 -0.17397388866E+02  0.19092487950E+02 -0.94469831791E+01  0.27503413000E+02  0.00000000000E+00 0.  1.
         22    1    3    3    0    0  0.94831265712E+02 -0.62804514741E+01 -0.31342267811E+03  0.32751517245E+03  0.00000000000E+00 0.  1.
</event>
<event>
 7    1  0.4915160E-006  0.4411097E+02  0.7818608E-02  0.1576160E+00
          2   -1    0    0  502    0  0.00000000000E+00  0.00000000000E+00  0.10144420828E+03  0.10144420828E+03  0.00000000000E+00 0. -1.
          1   -1    0    0  501    0 -0.00000000000E+00 -0.00000000000E+00 -0.51741922802E+03  0.51741922802E+03  0.00000000000E+00 0. -1.
         25    2    1    2    0    0  0.18450785900E+02 -0.11677640885E+02 -0.13858677701E+03  0.18791525444E+03  0.12501619612E+03 0.  0.
          2    1    1    2  501    0  0.21474923149E+02 -0.91227433945E+01 -0.34714365747E+03  0.34792688269E+03  0.00000000000E+00 0. -1.
          1    1    1    2  502    0 -0.39925709049E+02  0.20800384279E+02  0.69755414747E+02  0.83021299169E+02  0.00000000000E+00 0. -1.
         22    1    3    3    0    0  0.54070547485E+00  0.20119568630E+02 -0.14869179453E+03  0.15004778961E+03  0.00000000000E+00 0.  1.
         22    1    3    3    0    0  0.17910080425E+02 -0.31797209515E+02  0.10105017524E+02  0.37867464833E+02  0.00000000000E+00 0.  1.
</event>
<event>
 7    1  0.4915160E-006  0.5914425E+02  0.7818608E-02  0.1423062E+00
          2   -1    0    0  502    0  0.00000000000E+00  0.00000000000E+00  0.26364419509E+04  0.26364419509E+04  0.00000000000E+00 0. -1.
          1   -1    0    0  501    0 -0.00000000000E+00 -0.00000000000E+00 -0.49860343097E+02  0.49860343097E+02  0.00000000000E+00 0. -1.
         25    2    1    2    0    0  0.66465442166E+02  0.84969632052E+02  0.91373527979E+03  0.92853369073E+03  0.12500063967E+03 0.  0.
          2    1    1    2  501    0 -0.38355835706E+02 -0.43623544860E+02 -0.22052232530E+02  0.62132799377E+02  0.00000000000E+00 0. -1.
          1    1    1    2  502    0 -0.28109606460E+02 -0.41346087192E+02  0.16948985606E+04  0.16956358039E+04  0.00000000000E+00 0. -1.
         22    1    3    3    0    0  0.12962491677E+01  0.64543857086E+02  0.17293087434E+03  0.18458785727E+03  0.00000000000E+00 0. -1.
         22    1    3    3    0    0  0.65169192998E+02  0.20425774966E+02  0.74080440545E+03  0.74394583346E+03  0.00000000000E+00 0. -1.
</event>
<event>
 7    1  0.4915160E-006  0.3448936E+02  0.7818608E-02  0.1615374E+00
          2   -1    0    0  502    0  0.00000000000E+00  0.00000000000E+00  0.86542630023E+03  0.86542630023E+03  0.00000000000E+00 0. -1.
          1   -1    0    0  501    0 -0.00000000000E+00 -0.00000000000E+00 -0.17321979716E+03  0.17321979716E+03  0.00000000000E+00 0. -1.
         25    2    1    2    0    0 -0.27242980824E+02  0.21766184528E+02  0.26223701149E+03  0.29259140928E+03  0.12500214318E+03 0.  0.
          2    1    1    2  501    0  0.34535602862E+02  0.61423590898E+00 -0.15591616088E+03  0.15969638185E+03  0.00000000000E+00 0. -1.
          1    1    1    2  502    0 -0.72926220378E+01 -0.22380420437E+02  0.58588565246E+03  0.58635830626E+03  0.00000000000E+00 0. -1.
         22    1    3    3    0    0 -0.72292596823E+02 -0.59328232608E+01  0.11315854535E+03  0.13441084157E+03  0.00000000000E+00 0. -1.
         22    1    3    3    0    0  0.45049615999E+02  0.27699007788E+02  0.14907846614E+03  0.15818056771E+03  0.00000000000E+00 0. -1.
</event>
<event>
 7    1  0.4915160E-006  0.1887169E+03  0.7818608E-02  0.1263107E+00
          2   -1    0    0  502    0  0.00000000000E+00  0.00000000000E+00  0.33516587534E+03  0.33516587534E+03  0.00000000000E+00 0. -1.
          1   -1    0    0  501    0 -0.00000000000E+00 -0.00000000000E+00 -0.77374833472E+03  0.77374833472E+03  0.00000000000E+00 0. -1.
         25    2    1    2    0    0  0.16289211869E+03  0.15433997177E+03 -0.19298489444E+03  0.32128234824E+03  0.12499803435E+03 0.  0.
          2    1    1    2  501    0 -0.15563539487E+03 -0.92219419548E+02 -0.49682516293E+03  0.52873626696E+03  0.00000000000E+00 0. -1.
          1    1    1    2  502    0 -0.72567238180E+01 -0.62120552225E+02  0.25122759798E+03  0.25889559486E+03  0.00000000000E+00 0. -1.
         22    1    3    3    0    0  0.34179395931E+02  0.61373889170E+02 -0.13512128967E+03  0.15229165539E+03  0.00000000000E+00 0. -1.
         22    1    3    3    0    0  0.12871272275E+03  0.92966082603E+02 -0.57863604762E+02  0.16899069285E+03  0.00000000000E+00 0. -1.
</event>
<event>
 7    1  0.4915160E-006  0.1918126E+03  0.7818608E-02  0.1271060E+00
          2   -1    0    0  502    0  0.00000000000E+00  0.00000000000E+00  0.26323319283E+04  0.26323319283E+04  0.00000000000E+00 0. -1.
          1   -1    0    0  501    0 -0.00000000000E+00 -0.00000000000E+00 -0.53197166211E+03  0.53197166211E+03  0.00000000000E+00 0. -1.
         25    2    1    2    0    0  0.24211101374E+03 -0.21315778642E+01  0.12825996722E+03  0.30116093598E+03  0.12500001430E+03 0.  0.
          2    1    1    2  501    0 -0.53617533509E+02 -0.19220156901E+02 -0.43996133470E+03  0.44363299061E+03  0.00000000000E+00 0. -1.
          1    1    1    2  502    0 -0.18849348023E+03  0.21351734765E+02  0.24120616337E+04  0.24195096639E+04  0.00000000000E+00 0. -1.
         22    1    3    3    0    0  0.22706006404E+03  0.36801211597E+02  0.10041960683E+03  0.25098744848E+03  0.00000000000E+00 0. -1.
         22    1    3    3    0    0  0.15050949700E+02 -0.38932789462E+02  0.27840360390E+02  0.50173487508E+02  0.00000000000E+00 0. -1.
</event>
<event>
 7    1  0.4915160E-006  0.5134582E+02  0.7818608E-02  0.1540489E+00
          2   -1    0    0  502    0  0.00000000000E+00  0.00000000000E+00  0.27486645775E+03  0.27486645775E+03  0.00000000000E+00 0. -1.
          1   -1    0    0  501    0 -0.00000000000E+00 -0.00000000000E+00 -0.79839860808E+02  0.79839860808E+02  0.00000000000E+00 0. -1.
         25    2    1    2    0    0 -0.21717054868E+02  0.20422380345E+02  0.10450822044E+03  0.16563576037E+03  0.12499813152E+03 0.  0.
          2    1    1    2  501    0  0.45393412639E+02 -0.28885252720E+02 -0.32933945346E+02  0.63083789453E+02  0.00000000000E+00 0. -1.
          1    1    1    2  502    0 -0.23676357771E+02  0.84628723753E+01  0.12345232185E+03  0.12598676873E+03  0.00000000000E+00 0. -1.
         22    1    3    3    0    0 -0.33551439044E+01  0.72198276720E+02  0.70842645191E+02  0.10120537797E+03  0.00000000000E+00 0.  1.
         22    1    3    3    0    0 -0.18361910964E+02 -0.51775896375E+02  0.33665575247E+02  0.64430382402E+02  0.00000000000E+00 0.  1.
</event>
<event>
 7    1  0.4915160E-006  0.7596734E+02  0.7818608E-02  0.1373822E+00
          2   -1    0    0  502    0  0.00000000000E+00  0.00000000000E+00  0.87161953345E+03  0.87161953345E+03  0.00000000000E+00 0. -1.
          1   -1    0    0  501    0 -0.00000000000E+00 -0.00000000000E+00 -0.11899940160E+03  0.11899940160E+03  0.00000000000E+00 0. -1.
         25    2    1    2    0    0  0.18142609055E+02  0.66095389388E+02  0.16895820515E+03  0.22103510249E+03  0.12494753571E+03 0.  0.
          2    1    1    2  501    0 -0.57519539957E+02  0.16073177284E+01 -0.81533334859E+02  0.99793615228E+02  0.00000000000E+00 0. -1.
          1    1    1    2  502    0  0.39376930902E+02 -0.67702707117E+02  0.66519526156E+03  0.66979021734E+03  0.00000000000E+00 0. -1.
         22    1    3    3    0    0  0.12946297348E+02 -0.20608748097E+02  0.11767618707E+03  0.12016660150E+03  0.00000000000E+00 0. -1.
         22    1    3    3    0    0  0.51963117071E+01  0.86704137485E+02  0.51282018090E+02  0.10086850099E+03  0.00000000000E+00 0. -1.
</event>
<event>
 7    1  0.4915160E-006  0.7759457E+02  0.7818608E-02  0.1357990E+00
          2   -1    0    0  502    0  0.00000000000E+00  0.00000000000E+00  0.20596137883E+03  0.20596137883E+03  0.00000000000E+00 0. -1.
          1   -1    0    0  501    0 -0.00000000000E+00 -0.00000000000E+00 -0.42149281303E+03  0.42149281303E+03  0.00000000000E+00 0. -1.
         25    2    1    2    0    0 -0.20143963949E+02 -0.11522364557E+03 -0.74802560732E+02  0.18681832294E+03  0.12499357948E+03 0.  0.
          2    1    1    2  501    0 -0.28819563413E+02  0.57453215702E+02 -0.27720375561E+03  0.28455818623E+03  0.00000000000E+00 0. -1.
          1    1    1    2  502    0  0.48963527362E+02  0.57770429870E+02  0.13647488214E+03  0.15607768269E+03  0.00000000000E+00 0. -1.
         22    1    3    3    0    0  0.11815261418E+02 -0.10979853155E+03 -0.97444214072E+02  0.14727760451E+03  0.00000000000E+00 0. -1.
         22    1    3    3    0    0 -0.31959225367E+02 -0.54251140204E+01  0.22641653340E+02  0.39540718433E+02  0.00000000000E+00 0. -1.
</event>
<event>
 7    1  0.4915160E-006  0.5495089E+02  0.7818608E-02  0.1500797E+00
          2   -1    0    0  502    0  0.00000000000E+00  0.00000000000E+00  0.45976279182E+03  0.45976279182E+03  0.00000000000E+00 0. -1.
          1   -1    0    0  501    0 -0.00000000000E+00 -0.00000000000E+00 -0.33872790694E+03  0.33872790694E+03  0.00000000000E+00 0. -1.
         25    2    1    2    0    0 -0.53747541672E+02 -0.30637601197E+00  0.14829589247E+03  0.20125168305E+03  0.12498670371E+03 0.  0.
          2    1    1    2  501    0  0.46542813270E+02 -0.29463257133E+02 -0.30898408381E+03  0.31385582842E+03  0.00000000000E+00 0. -1.
          1    1    1    2  502    0  0.72047284025E+01  0.29769633145E+02  0.28172307621E+03  0.28338318729E+03  0.00000000000E+00 0. -1.
         22    1    3    3    0    0  0.17736259111E+02  0.46947663746E+02  0.49874073071E+02  0.70753665511E+02  0.00000000000E+00 0. -1.
         22    1    3    3    0    0 -0.71483800784E+02 -0.47254039758E+02  0.98421819402E+02  0.13049801754E+03  0.00000000000E+00 0. -1.
</event>
<event>
 7    1  0.4915160E-006  0.1058746E+03  0.7818608E-02  0.1403997E+00
          2   -1    0    0  502    0  0.00000000000E+00  0.00000000000E+00  0.23131964858E+03  0.23131964858E+03  0.00000000000E+00 0. -1.
          1   -1    0    0  501    0 -0.00000000000E+00 -0.00000000000E+00 -0.12102287701E+04  0.12102287701E+04  0.00000000000E+00 0. -1.
         25    2    1    2    0    0  0.34489062415E+01  0.13277982865E+03 -0.22270747877E+03  0.28786373910E+03  0.12499813334E+03 0.  0.
          2    1    1    2  501    0  0.13100534974E+02 -0.29616648497E+02 -0.94091324610E+03  0.94147039602E+03  0.00000000000E+00 0. -1.
          1    1    1    2  502    0 -0.16549441216E+02 -0.10316318015E+03  0.18471160334E+03  0.21221428358E+03  0.00000000000E+00 0. -1.
         22    1    3    3    0    0 -0.33414549810E+02  0.61945095231E+01 -0.64581345019E+01  0.34592074070E+02  0.00000000000E+00 0.  1.
         22    1    3    3    0    0  0.36863456052E+02  0.12658531913E+03 -0.21624934427E+03  0.25327166503E+03  0.00000000000E+00 0.  1.
</event>
<event>
 7    1  0.4915160E-006  0.7098435E+02  0.7818608E-02  0.1383251E+00
          2   -1    0    0  502    0  0.00000000000E+00  0.00000000000E+00  0.10303363807E+03  0.10303363807E+03  0.00000000000E+00 0. -1.
          1   -1    0    0  501    0 -0.00000000000E+00 -0.00000000000E+00 -0.58930070876E+03  0.58930070876E+03  0.00000000000E+00 0. -1.
         25    2    1    2    0    0 -0.26468147352E+02  0.40715967949E+02 -0.51094404331E+02  0.14349303181E+03  0.12498503572E+03 0.  0.
          2    1    1    2  501    0 -0.52741366558E+02 -0.21655692108E+02 -0.46011835548E+03  0.46363727395E+03  0.00000000000E+00 0. -1.
          1    1    1    2  502    0  0.79209513911E+02 -0.19060275841E+02  0.24945689116E+02  0.85204041069E+02  0.00000000000E+00 0. -1.
         22    1    3    3    0    0  0.20124505458E+02 -0.15361227832E+02  0.26754835081E+02  0.36834552266E+02  0.00000000000E+00 0.  1.
         22    1    3    3    0    0 -0.46592652810E+02  0.56077195781E+02 -0.77849239412E+02  0.10665847955E+03  0.00000000000E+00 0.  1.
</event>
<event>
 7    1  0.4915160E-006  0.3694067E+02  0.7818608E-02  0.1545814E+00
          2   -1    0    0  502    0  0.00000000000E+00  0.00000000000E+00  0.22315635031E+03  0.22315635031E+03  0.00000000000E+00 0. -1.
          1   -1    0    0  501    0 -0.00000000000E+00 -0.00000000000E+00 -0.56539395367E+03  0.56539395367E+03  0.00000000000E+00 0. -1.
         25    2    1    2    0    0 -0.32311386961E+02  0.18330156314E+02 -0.27106492263E+03  0.30080243924E+03  0.12500357919E+03 0.  0.
          2    1    1    2  501    0  0.34934846294E+02  0.15330108163E+02 -0.27677497767E+03  0.27939191822E+03  0.00000000000E+00 0. -1.
          1    1    1    2  502    0 -0.26234593332E+01 -0.33660264477E+02  0.20560229695E+03  0.20835594653E+03  0.00000000000E+00 0. -1.
         22    1    3    3    0    0  0.13075123704E+02 -0.46727067754E+02 -0.13296493720E+03  0.14154169790E+03  0.00000000000E+00 0.  1.
         22    1    3    3    0    0 -0.45386510664E+02  0.65057224068E+02 -0.13809998543E+03  0.15926074133E+03  0.00000000000E+00 0.  1.
</event>
<event>
 7    1  0.4915160E-006  0.1026491E+03  0.7818608E-02  0.1275207E+00
          2   -1    0    0  502    0  0.00000000000E+00  0.00000000000E+00  0.53698846918E+03  0.53698846918E+03  0.00000000000E+00 0. -1.
          1   -1    0    0  501    0 -0.00000000000E+00 -0.00000000000E+00 -0.67631076726E+03  0.67631076726E+03  0.00000000000E+00 0. -1.
         25    2    1    2    0    0  0.54537071634E+02  0.12131779863E+03  0.40833567962E+02  0.18704266998E+03  0.12500111870E+03 0.  0.
          2    1    1    2  501    0 -0.98769903506E+02 -0.27952616873E+02 -0.59241853897E+03  0.60124584651E+03  0.00000000000E+00 0. -1.
          1    1    1    2  502    0  0.44232831872E+02 -0.93365181756E+02  0.41226267293E+03  0.42501071994E+03  0.00000000000E+00 0. -1.
         22    1    3    3    0    0  0.40111993594E+02  0.80637549155E+02  0.86028464546E+02  0.12454831623E+03  0.00000000000E+00 0.  1.
         22    1    3    3    0    0  0.14425078040E+02  0.40680249474E+02 -0.45194896584E+02  0.62494353753E+02  0.00000000000E+00 0.  1.
</event>
<event>
 7    1  0.4915160E-006  0.1030611E+03  0.7818608E-02  0.1330700E+00
          2   -1    0    0  502    0  0.00000000000E+00  0.00000000000E+00  0.12837460791E+04  0.12837460791E+04  0.00000000000E+00 0. -1.
          1   -1    0    0  501    0 -0.00000000000E+00 -0.00000000000E+00 -0.28822656223E+03  0.28822656223E+03  0.00000000000E+00 0. -1.
         25    2    1    2    0    0 -0.89526200809E+02 -0.90583278803E+02  0.77737598063E+03  0.79759604138E+03  0.12500303569E+03 0.  0.
          2    1    1    2  501    0  0.98470021123E+02  0.30035405441E+02 -0.26659881446E+03  0.28578558136E+03  0.00000000000E+00 0. -1.
          1    1    1    2  502    0 -0.89438203146E+01  0.60547873361E+02  0.48474235066E+03  0.48859101856E+03  0.00000000000E+00 0. -1.
         22    1    3    3    0    0 -0.11054508474E+03 -0.10017915430E+03  0.72735028861E+03  0.74249210168E+03  0.00000000000E+00 0. -1.
         22    1    3    3    0    0  0.21018883931E+02  0.95958754931E+01  0.50025692018E+02  0.55103939696E+02  0.00000000000E+00 0. -1.
</event>
<event>
 7    1  0.4915160E-006  0.8181849E+02  0.7818608E-02  0.1382115E+00
          2   -1    0    0  502    0  0.00000000000E+00  0.00000000000E+00  0.53178919275E+03  0.53178919275E+03  0.00000000000E+00 0. -1.
          1   -1    0    0  501    0 -0.00000000000E+00 -0.00000000000E+00 -0.52605470064E+03  0.52605470064E+03  0.00000000000E+00 0. -1.
         25    2    1    2    0    0  0.47038373657E+02  0.63572419960E+02  0.23091714857E+03  0.27422922801E+03  0.12499951525E+03 0.  0.
          2    1    1    2  501    0 -0.44558842411E+02  0.22512554107E+02 -0.49647620205E+03  0.49897988410E+03  0.00000000000E+00 0. -1.
          1    1    1    2  502    0 -0.24795312465E+01 -0.86084974067E+02  0.27129354559E+03  0.28463478128E+03  0.00000000000E+00 0. -1.
         22    1    3    3    0    0 -0.17591743429E+02  0.79381516635E+02  0.13125015721E+03  0.15439397134E+03  0.00000000000E+00 0. -1.
         22    1    3    3    0    0  0.64630117087E+02 -0.15809096675E+02  0.99666991364E+02  0.11983525666E+03  0.00000000000E+00 0. -1.
</event>
<event>
 7    1  0.4915160E-006  0.5704157E+02  0.7818608E-02  0.1450662E+00
          2   -1    0    0  502    0  0.00000000000E+00  0.00000000000E+00  0.39385387507E+03  0.39385387507E+03  0.00000000000E+00 0. -1.
          1   -1    0    0  501    0 -0.00000000000E+00 -0.00000000000E+00 -0.26817105886E+03  0.26817105886E+03  0.00000000000E+00 0. -1.
         25    2    1    2    0    0 -0.54290163659E+02 -0.68249938841E+02  0.10595011730E+03  0.18562347796E+03  0.12500068878E+03 0.  0.
          2    1    1    2  501    0  0.49970526244E+02  0.26333533650E+02 -0.22299789654E+03  0.23004036678E+03  0.00000000000E+00 0. -1.
          1    1    1    2  502    0  0.43196374150E+01  0.41916405190E+02  0.24273059545E+03  0.24636108918E+03  0.00000000000E+00 0. -1.
         22    1    3    3    0    0 -0.28653408008E+02 -0.10370992793E+03  0.65068056179E+02  0.12574028343E+03  0.00000000000E+00 0.  1.
         22    1    3    3    0    0 -0.25636755651E+02  0.35459989091E+02  0.40882061117E+02  0.59883194536E+02  0.00000000000E+00 0.  1.
</event>
<event>
 7    1  0.4915160E-006  0.2587934E+03  0.7818608E-02  0.1280100E+00
          2   -1    0    0  502    0  0.00000000000E+00  0.00000000000E+00  0.22854218415E+04  0.22854218415E+04  0.00000000000E+00 0. -1.
          1   -1    0    0  501    0 -0.00000000000E+00 -0.00000000000E+00 -0.99851504803E+03  0.99851504803E+03  0.00000000000E+00 0. -1.
         25    2    1    2    0    0  0.24084424415E+03  0.53059049636E+01  0.48523902320E+02  0.27570582175E+03  0.12500011394E+03 0.  0.
          2    1    1    2  501    0  0.17713307132E+02 -0.34422896376E+02 -0.87652420402E+03  0.87737869662E+03  0.00000000000E+00 0. -1.
          1    1    1    2  502    0 -0.25855755128E+03  0.29116991412E+02  0.21149070951E+04  0.21308523711E+04  0.00000000000E+00 0. -1.
         22    1    3    3    0    0  0.72228346662E+02  0.29842861558E+02 -0.35368314026E+02  0.85781397078E+02  0.00000000000E+00 0.  1.
         22    1    3    3    0    0  0.16861589749E+03 -0.24536956595E+02  0.83892216346E+02  0.18992442467E+03  0.00000000000E+00 0.  1.
</event>
<event>
 7    1  0.4915160E-006  0.2922284E+03  0.7818608E-02  0.1182004E+00
          2   -1    0    0  502    0  0.00000000000E+00  0.00000000000E+00  0.34567662938E+03  0.34567662938E+03  0.00000000000E+00 0. -1.
          1   -1    0    0  501    0 -0.00000000000E+00 -0.00000000000E+00 -0.35857637633E+04  0.35857637633E+04  0.00000000000E+00 0. -1.
         25    2    1    2    0    0  0.76858392541E+02 -0.31992788351E+03 -0.60379558799E+03  0.69889418120E+03  0.12499160488E+03 0.  0.
          2    1    1    2  501    0  0.11991267585E+02  0.28809097541E+03 -0.29196650492E+04  0.29338684701E+04  0.00000000000E+00 0. -1.
          1    1    1    2  502    0 -0.88849660126E+02  0.31836908098E+02  0.28337350326E+03  0.29867774134E+03  0.00000000000E+00 0. -1.
         22    1    3    3    0    0 -0.34422881145E+02 -0.72255053152E+02 -0.12366784111E+03  0.14730737380E+03  0.00000000000E+00 0. -1.
         22    1    3    3    0    0  0.11128127369E+03 -0.24767283035E+03 -0.48012774688E+03  0.55158680739E+03  0.00000000000E+00 0. -1.
</event>
<event>
 7    1  0.4915160E-006  0.5928963E+02  0.7818608E-02  0.1435015E+00
          2   -1    0    0  502    0  0.00000000000E+00  0.00000000000E+00  0.12793940085E+04  0.12793940085E+04  0.00000000000E+00 0. -1.
          1   -1    0    0  501    0 -0.00000000000E+00 -0.00000000000E+00 -0.29349502631E+03  0.29349502631E+03  0.00000000000E+00 0. -1.
         25    2    1    2    0    0 -0.68776169117E+01 -0.14684347624E+02 -0.94265432099E+01  0.12640206048E+03  0.12500275796E+03 0.  0.
          2    1    1    2  501    0  0.64763566953E+01 -0.45084763193E+02 -0.22254116389E+03  0.22715445999E+03  0.00000000000E+00 0. -1.
          1    1    1    2  502    0  0.40126021639E+00  0.59769110817E+02  0.12178666893E+04  0.12193325143E+04  0.00000000000E+00 0. -1.
         22    1    3    3    0    0 -0.51378665241E+02  0.53060247886E+01  0.33380187487E+02  0.61499252497E+02  0.00000000000E+00 0. -1.
         22    1    3    3    0    0  0.44501048329E+02 -0.19990372413E+02 -0.42806730696E+02  0.64902807986E+02  0.00000000000E+00 0. -1.
</event>
<event>
 7    1  0.4915160E-006  0.8948967E+02  0.7818608E-02  0.1437172E+00
          2   -1    0    0  502    0  0.00000000000E+00  0.00000000000E+00  0.16517864448E+04  0.16517864448E+04  0.00000000000E+00 0. -1.
          1   -1    0    0  501    0 -0.00000000000E+00 -0.00000000000E+00 -0.66228858266E+02  0.66228858266E+02  0.00000000000E+00 0. -1.
         25    2    1    2    0    0  0.59992649808E+02 -0.13225051309E+02  0.82410171277E+03  0.83578858338E+03  0.12499961245E+03 0.  0.
          2    1    1    2  501    0 -0.89684291184E+02  0.13205550833E+02 -0.25925526893E+02  0.94285691400E+02  0.00000000000E+00 0. -1.
          1    1    1    2  502    0  0.29691641377E+02  0.19500475285E-01  0.78738140063E+03  0.78794102826E+03  0.00000000000E+00 0. -1.
         22    1    3    3    0    0 -0.13961999038E+02  0.19008083017E+02  0.32876359335E+02  0.40461087976E+02  0.00000000000E+00 0. -1.
         22    1    3    3    0    0  0.73954648846E+02 -0.32233134326E+02  0.79122535343E+03  0.79532749541E+03  0.00000000000E+00 0. -1.
</event>
<event>
 7    1  0.4915160E-006  0.7020644E+02  0.7818608E-02  0.1360715E+00
          2   -1    0    0  502    0  0.00000000000E+00  0.00000000000E+00  0.13781134703E+03  0.13781134703E+03  0.00000000000E+00 0. -1.
          1   -1    0    0  501    0 -0.00000000000E+00 -0.00000000000E+00 -0.23122485095E+04  0.23122485095E+04  0.00000000000E+00 0. -1.
         25    2    1    2    0    0 -0.62372042148E+01 -0.62657120369E+02 -0.63095908550E+02  0.15353084286E+03  0.12500323430E+03 0.  0.
          2    1    1    2  501    0  0.66995600663E+02  0.18227134264E+02 -0.21879960256E+04  0.21890973590E+04  0.00000000000E+00 0. -1.
          1    1    1    2  502    0 -0.60758396449E+02  0.44429986105E+02  0.76654771708E+02  0.10743165469E+03  0.00000000000E+00 0. -1.
         22    1    3    3    0    0 -0.16831475395E+02 -0.71208751140E+02  0.14631958406E+02  0.74619561843E+02  0.00000000000E+00 0. -1.
         22    1    3    3    0    0  0.10594271181E+02  0.85516307708E+01 -0.77727866955E+02  0.78911281019E+02  0.00000000000E+00 0. -1.
</event>
<event>
 7    1  0.4915160E-006  0.8819874E+02  0.7818608E-02  0.1395351E+00
          2   -1    0    0  502    0  0.00000000000E+00  0.00000000000E+00  0.31162136854E+04  0.31162136854E+04  0.00000000000E+00 0. -1.
          1   -1    0    0  501    0 -0.00000000000E+00 -0.00000000000E+00 -0.94718208004E+03  0.94718208004E+03  0.00000000000E+00 0. -1.
         25    2    1    2    0    0  0.10051312239E+03  0.53888855399E+02  0.63049356334E+02  0.18057448097E+03  0.12500010134E+03 0.  0.
          2    1    1    2  501    0 -0.60136511086E+02 -0.64029455804E+02 -0.88610304384E+03  0.89044639113E+03  0.00000000000E+00 0. -1.
          1    1    1    2  502    0 -0.40376611308E+02  0.10140600405E+02  0.29920852929E+04  0.29923748933E+04  0.00000000000E+00 0. -1.
         22    1    3    3    0    0  0.37486393731E+00  0.34402049898E+02  0.70334450406E+02  0.78297997894E+02  0.00000000000E+00 0. -1.
         22    1    3    3    0    0  0.10013825846E+03  0.19486805500E+02 -0.72850940723E+01  0.10227648308E+03  0.00000000000E+00 0. -1.
</event>
<event>
 7    1  0.4915160E-006  0.3402665E+03  0.7818608E-02  0.1135323E+00
          2   -1    0    0  502    0  0.00000000000E+00  0.00000000000E+00  0.66989023906E+03  0.66989023906E+03  0.00000000000E+00 0. -1.
          1   -1    0    0  501    0 -0.00000000000E+00 -0.00000000000E+00 -0.10784039395E+04  0.10784039395E+04  0.00000000000E+00 0. -1.
         25    2    1    2    0    0 -0.14509968026E+03 -0.21823335468E+03 -0.20312124850E+03  0.35434964823E+03  0.12500286919E+03 0.  0.
          2    1    1    2  501    0 -0.13976298694E+03  0.13335145651E+01 -0.73858486268E+03  0.75169346822E+03  0.00000000000E+00 0. -1.
          1    1    1    2  502    0  0.28486266720E+03  0.21689984011E+03  0.53319241078E+03  0.64225106206E+03  0.00000000000E+00 0. -1.
         22    1    3    3    0    0 -0.39848669595E+02 -0.16629264665E+03 -0.14051223404E+03  0.22132521030E+03  0.00000000000E+00 0. -1.
         22    1    3    3    0    0 -0.10525101066E+03 -0.51940708025E+02 -0.62609014457E+02  0.13302443793E+03  0.00000000000E+00 0. -1.
</event>
<event>
 7    1  0.4915160E-006  0.6764877E+02  0.7818608E-02  0.1451643E+00
          2   -1    0    0  502    0  0.00000000000E+00  0.00000000000E+00  0.74992827147E+03  0.74992827147E+03  0.00000000000E+00 0. -1.
          1   -1    0    0  501    0 -0.00000000000E+00 -0.00000000000E+00 -0.60660513558E+02  0.60660513558E+02  0.00000000000E+00 0. -1.
         25    2    1    2    0    0  0.42561062989E+02  0.10640385972E+02  0.10927114690E+03  0.17173288821E+03  0.12500935745E+03 0.  0.
          2    1    1    2  501    0 -0.76573713841E+02 -0.12855190147E+01  0.21911990883E+02  0.79657526668E+02  0.00000000000E+00 0. -1.
          1    1    1    2  502    0  0.34012650852E+02 -0.93548669576E+01  0.55808462013E+03  0.55919837015E+03  0.00000000000E+00 0. -1.
         22    1    3    3    0    0  0.40567792127E+02 -0.21814235978E+00  0.13647351796E+03  0.14237561044E+03  0.00000000000E+00 0. -1.
         22    1    3    3    0    0  0.19932708617E+01  0.10858528332E+02 -0.27202371063E+02  0.29357277764E+02  0.00000000000E+00 0. -1.
</event>
<event>
 7    1  0.4915160E-006  0.8571885E+02  0.7818608E-02  0.1425699E+00
          2   -1    0    0  502    0  0.00000000000E+00  0.00000000000E+00  0.82805701889E+03  0.82805701889E+03  0.00000000000E+00 0. -1.
          1   -1    0    0  501    0 -0.00000000000E+00 -0.00000000000E+00 -0.26500928529E+02  0.26500928529E+02  0.00000000000E+00 0. -1.
         25    2    1    2    0    0  0.34144070516E+01 -0.75365455583E+02  0.33766024308E+03  0.36787364896E+03  0.12499988708E+03 0.  0.
          2    1    1    2  501    0  0.27230372954E+02  0.89644786075E+02  0.20264211760E+03  0.22325211915E+03  0.00000000000E+00 0. -1.
          1    1    1    2  502    0 -0.30644780006E+02 -0.14279330492E+02  0.26125372968E+03  0.26343217930E+03  0.00000000000E+00 0. -1.
         22    1    3    3    0    0 -0.16977687252E+02  0.18068871198E+02  0.19219491743E+03  0.19378754413E+03  0.00000000000E+00 0. -1.
         22    1    3    3    0    0  0.20392094303E+02 -0.93434326781E+02  0.14546532565E+03  0.17408610484E+03  0.00000000000E+00 0. -1.
</event>
<event>
 7    1  0.4915160E-006  0.7348092E+02  0.7818608E-02  0.1441848E+00
          2   -1    0    0  502    0  0.00000000000E+00  0.00000000000E+00  0.12717267666E+03  0.12717267666E+03  0.00000000000E+00 0. -1.
          1   -1    0    0  501    0 -0.00000000000E+00 -0.00000000000E+00 -0.61280480772E+03  0.61280480772E+03  0.00000000000E+00 0. -1.
         25    2    1    2    0    0 -0.17579586434E+02  0.48037749917E+02 -0.43860421697E+02  0.14200291218E+03  0.12499769278E+03 0.  0.
          2    1    1    2  501    0 -0.32446145290E+02  0.12903405905E+02 -0.49920821825E+03  0.50042791228E+03  0.00000000000E+00 0. -1.
          1    1    1    2  502    0  0.50025731725E+02 -0.60941155822E+02  0.57436508886E+02  0.97546659915E+02  0.00000000000E+00 0. -1.
         22    1    3    3    0    0  0.32095967581E+02  0.54319596059E+02  0.14873366254E+02  0.64822732700E+02  0.00000000000E+00 0.  1.
         22    1    3    3    0    0 -0.49675554016E+02 -0.62818461417E+01 -0.58733787951E+02  0.77180179481E+02  0.00000000000E+00 0.  1.
</event>
<event>
 7    1  0.4915160E-006  0.2044913E+03  0.7818608E-02  0.1191724E+00
          2   -1    0    0  502    0  0.00000000000E+00  0.00000000000E+00  0.32856772735E+04  0.32856772735E+04  0.00000000000E+00 0. -1.
          1   -1    0    0  501    0 -0.00000000000E+00 -0.00000000000E+00 -0.71801746847E+03  0.71801746847E+03  0.00000000000E+00 0. -1.
         25    2    1    2    0    0 -0.17990140376E+03 -0.24201039619E+03  0.19731100772E+03  0.38143709989E+03  0.12501632080E+03 0.  0.
          2    1    1    2  501    0  0.10846664518E+03  0.53791325497E+02 -0.61667982353E+03  0.62845248393E+03  0.00000000000E+00 0. -1.
          1    1    1    2  502    0  0.71434758584E+02  0.18821907069E+03  0.29870286208E+04  0.29938051582E+04  0.00000000000E+00 0. -1.
         22    1    3    3    0    0 -0.17512295583E+02  0.11275479660E+02  0.31888755539E+02  0.38088182786E+02  0.00000000000E+00 0.  1.
         22    1    3    3    0    0 -0.16238910818E+03 -0.25328587585E+03  0.16542225218E+03  0.34334891710E+03  0.00000000000E+00 0.  1.
</event>
<event>
 7    1  0.4915160E-006  0.5710481E+02  0.7818608E-02  0.1527817E+00
          2   -1    0    0  502    0  0.00000000000E+00  0.00000000000E+00  0.10122922075E+04  0.10122922075E+04  0.00000000000E+00 0. -1.
          1   -1    0    0  501    0 -0.00000000000E+00 -0.00000000000E+00 -0.15357473387E+04  0.15357473387E+04  0.00000000000E+00 0. -1.
         25    2    1    2    0    0  0.62027800516E+02  0.50684978675E+02  0.79760132039E+03  0.81130093223E+03  0.12499968500E+03 0.  0.
          2    1    1    2  501    0 -0.39265092024E+02 -0.41442974777E+02 -0.15276364857E+04  0.15287028815E+04  0.00000000000E+00 0. -1.
          1    1    1    2  502    0 -0.22762708493E+02 -0.92420038980E+01  0.20658003405E+03  0.20803573251E+03  0.00000000000E+00 0. -1.
         22    1    3    3    0    0  0.91357248168E+01 -0.31239750403E+01  0.59543930467E+03  0.59551757844E+03  0.00000000000E+00 0. -1.
         22    1    3    3    0    0  0.52892075700E+02  0.53808953715E+02  0.20216201572E+03  0.21578335378E+03  0.00000000000E+00 0. -1.
</event>
<event>
 7    1  0.4915160E-006  0.5561275E+02  0.7818608E-02  0.1457939E+00
          2   -1    0    0  502    0  0.00000000000E+00  0.00000000000E+00  0.23138253458E+04  0.23138253458E+04  0.00000000000E+00 0. -1.
          1   -1    0    0  501    0 -0.00000000000E+00 -0.00000000000E+00 -0.58756516280E+03  0.58756516280E+03  0.00000000000E+00 0. -1.
         25    2    1    2    0    0 -0.17648501658E+02 -0.91124161033E+01 -0.52037386569E+01  0.12667552288E+03  0.12500041385E+03 0.  0.
          2    1    1    2  501    0 -0.88627536257E+01 -0.40008294817E+02 -0.52047436363E+03  0.52208502684E+03  0.00000000000E+00 0. -1.
          1    1    1    2  502    0  0.26511255284E+02  0.49120710921E+02  0.22519382853E+04  0.22526299589E+04  0.00000000000E+00 0. -1.
         22    1    3    3    0    0 -0.30745880148E+02 -0.35046793059E+02 -0.53095929115E+02  0.70659497156E+02  0.00000000000E+00 0.  1.
         22    1    3    3    0    0  0.13097378490E+02  0.25934376955E+02  0.47892190458E+02  0.56016025727E+02  0.00000000000E+00 0.  1.
</event>
<event>
 7    1  0.4915160E-006  0.4619323E+02  0.7818608E-02  0.1527859E+00
          2   -1    0    0  502    0  0.00000000000E+00  0.00000000000E+00  0.15762305584E+04  0.15762305584E+04  0.00000000000E+00 0. -1.
          1   -1    0    0  501    0 -0.00000000000E+00 -0.00000000000E+00 -0.34122990877E+03  0.34122990877E+03  0.00000000000E+00 0. -1.
         25    2    1    2    0    0 -0.48512357829E+02 -0.30243354808E+02  0.59907732699E+02  0.14994960879E+03  0.12501135696E+03 0.  0.
          2    1    1    2  501    0  0.23382966789E+01  0.30272018057E+02 -0.29506750279E+03  0.29662551123E+03  0.00000000000E+00 0. -1.
          1    1    1    2  502    0  0.46174061150E+02 -0.28663248470E-01  0.14701604198E+04  0.14708853472E+04  0.00000000000E+00 0. -1.
         22    1    3    3    0    0  0.36218574213E+02 -0.36564355714E+01 -0.90558827991E+01  0.37512180053E+02  0.00000000000E+00 0. -1.
         22    1    3    3    0    0 -0.84730932042E+02 -0.26586919237E+02  0.68963615498E+02  0.11243742874E+03  0.00000000000E+00 0. -1.
</event>
<event>
 7    1  0.4915160E-006  0.9133497E+02  0.7818608E-02  0.1320081E+00
          2   -1    0    0  502    0  0.00000000000E+00  0.00000000000E+00  0.11085212023E+04  0.11085212023E+04  0.00000000000E+00 0. -1.
          1   -1    0    0  501    0 -0.00000000000E+00 -0.00000000000E+00 -0.20404498028E+04  0.20404498028E+04  0.00000000000E+00 0. -1.
         25    2    1    2    0    0  0.92880348504E+01  0.15848349076E+03  0.23197605591E+03  0.30763956865E+03  0.12500371694E+03 0.  0.
          2    1    1    2  501    0 -0.23451392003E+02 -0.72160586740E+02 -0.19996156214E+04  0.20010546598E+04  0.00000000000E+00 0. -1.
          1    1    1    2  502    0  0.14163357152E+02 -0.86322904019E+02  0.83571096497E+03  0.84027677667E+03  0.00000000000E+00 0. -1.
         22    1    3    3    0    0  0.91415362585E+01  0.17164561733E+03  0.23765705050E+03  0.29330301616E+03  0.00000000000E+00 0. -1.
         22    1    3    3    0    0  0.14649859198E+00 -0.13162126572E+02 -0.56809945945E+01  0.14336552490E+02  0.00000000000E+00 0. -1.
</event>
<event>
 7    1  0.4915160E-006  0.4394180E+02  0.7818608E-02  0.1586823E+00
          2   -1    0    0  502    0  0.00000000000E+00  0.00000000000E+00  0.17664279893E+03  0.17664279893E+03  0.00000000000E+00 0. -1.
          1   -1    0    0  501    0 -0.00000000000E+00 -0.00000000000E+00 -0.16216513321E+04  0.16216513321E+04  0.00000000000E+00 0. -1.
         25    2    1    2    0    0 -0.48369785673E+02  0.33228323632E+02 -0.14170324626E+03  0.19784013946E+03  0.12496860855E+03 0.  0.
          2    1    1    2  501    0  0.42062836483E+02 -0.12222163703E+02 -0.14507378536E+04  0.14513989746E+04  0.00000000000E+00 0. -1.
          1    1    1    2  502    0  0.63069491899E+01 -0.21006159929E+02  0.14743256671E+03  0.14905501699E+03  0.00000000000E+00 0. -1.
         22    1    3    3    0    0 -0.56086941647E+02  0.53707516180E+02 -0.15419204020E+03  0.17264248486E+03  0.00000000000E+00 0.  1.
         22    1    3    3    0    0  0.77171559745E+01 -0.20479192548E+02  0.12488793932E+02  0.25197654606E+02  0.00000000000E+00 0.  1.
</event>
<event>
 7    1  0.4915160E-006  0.7257476E+02  0.7818608E-02  0.1440500E+00
          2   -1    0    0  502    0  0.00000000000E+00  0.00000000000E+00  0.15284817953E+03  0.15284817953E+03  0.00000000000E+00 0. -1.
          1   -1    0    0  501    0 -0.00000000000E+00 -0.00000000000E+00 -0.61747725865E+03  0.61747725865E+03  0.00000000000E+00 0. -1.
         25    2    1    2    0    0 -0.43363425036E+01 -0.94572937045E+02 -0.13261560957E+03  0.20536582204E+03  0.12500150668E+03 0.  0.
          2    1    1    2  501    0  0.26093320871E+02  0.66255085740E+02 -0.44283646929E+03  0.44852506765E+03  0.00000000000E+00 0. -1.
          1    1    1    2  502    0 -0.21756978368E+02  0.28317851305E+02  0.11082299974E+03  0.11643454848E+03  0.00000000000E+00 0. -1.
         22    1    3    3    0    0 -0.17432494882E+02 -0.11773620890E+03 -0.71840301343E+02  0.13902063035E+03  0.00000000000E+00 0. -1.
         22    1    3    3    0    0  0.13096152379E+02  0.23163271859E+02 -0.60775308232E+02  0.66345191695E+02  0.00000000000E+00 0. -1.
</event>
<event>
 7    1  0.4915160E-006  0.5574492E+02  0.7818608E-02  0.1450721E+00
          2   -1    0    0  502    0  0.00000000000E+00  0.00000000000E+00  0.79891753969E+03  0.79891753969E+03  0.00000000000E+00 0. -1.
          1   -1    0    0  501    0 -0.00000000000E+00 -0.00000000000E+00 -0.70924277626E+03  0.70924277626E+03  0.00000000000E+00 0. -1.
         25    2    1    2    0    0  0.69635997040E+02  0.68870739864E+02  0.47909064888E+02  0.16586909034E+03  0.12499970295E+03 0.  0.
          2    1    1    2  501    0 -0.28872626667E+02 -0.31999303818E+02 -0.64845485263E+03  0.64988558986E+03  0.00000000000E+00 0. -1.
          1    1    1    2  502    0 -0.40763370373E+02 -0.36871436046E+02  0.69022055117E+03  0.69240563575E+03  0.00000000000E+00 0. -1.
         22    1    3    3    0    0  0.86065160922E+02 -0.98207491965E+00  0.16985468379E+02  0.87730738808E+02  0.00000000000E+00 0.  1.
         22    1    3    3    0    0 -0.16429163882E+02  0.69852814784E+02  0.30923596509E+02  0.78138351532E+02  0.00000000000E+00 0.  1.
</event>
<event>
 7    1  0.4915160E-006  0.5675503E+02  0.7818608E-02  0.1509563E+00
          2   -1    0    0  502    0  0.00000000000E+00  0.00000000000E+00  0.30917250700E+04  0.30917250700E+04  0.00000000000E+00 0. -1.
          1   -1    0    0  501    0 -0.00000000000E+00 -0.00000000000E+00 -0.75653196471E+01  0.75653196471E+01  0.00000000000E+00 0. -1.
         25    2    1    2    0    0 -0.35474773799E+02 -0.61957521805E+02  0.14874644900E+04  0.14944139573E+04  0.12500109037E+03 0.  0.
          2    1    1    2  501    0 -0.72760975460E+01  0.26969598596E+02  0.50631480238E+02  0.57826011750E+02  0.00000000000E+00 0. -1.
          1    1    1    2  502    0  0.42750871345E+02  0.34987923210E+02  0.15460637801E+04  0.15470504206E+04  0.00000000000E+00 0. -1.
         22    1    3    3    0    0  0.13120104023E+02 -0.84054998704E+02  0.11007022413E+04  0.11039849654E+04  0.00000000000E+00 0. -1.
         22    1    3    3    0    0 -0.48594877822E+02  0.22097476899E+02  0.38676224877E+03  0.39042899189E+03  0.00000000000E+00 0. -1.
</event>
<event>
 7    1  0.4915160E-006  0.9630475E+02  0.7818608E-02  0.1426206E+00
          2   -1    0    0  502    0  0.00000000000E+00  0.00000000000E+00  0.30624139732E+02  0.30624139732E+02  0.00000000000E+00 0. -1.
          1   -1    0    0  501    0 -0.00000000000E+00 -0.00000000000E+00 -0.75900752283E+03  0.75900752283E+03  0.00000000000E+00 0. -1.
         25    2    1    2    0    0  0.66541506239E+02  0.64812417646E+02 -0.28575292081E+03  0.32543695228E+03  0.12500422641E+03 0.  0.
          2    1    1    2  501    0 -0.88021177881E+02 -0.43903646252E+02 -0.40104635309E+03  0.41293272483E+03  0.00000000000E+00 0. -1.
          1    1    1    2  502    0  0.21479671642E+02 -0.20908771394E+02 -0.41584109195E+02  0.51261985454E+02  0.00000000000E+00 0. -1.
         22    1    3    3    0    0  0.92174109906E+02  0.34932342770E+02 -0.12111463887E+03  0.15615726322E+03  0.00000000000E+00 0. -1.
         22    1    3    3    0    0 -0.25632603667E+02  0.29880074877E+02 -0.16463828195E+03  0.16927968906E+03  0.00000000000E+00 0. -1.
</event>
<event>
 7    1  0.4915160E-006  0.9055801E+02  0.7818608E-02  0.1439521E+00
          2   -1    0    0  502    0  0.00000000000E+00  0.00000000000E+00  0.16341892021E+04  0.16341892021E+04  0.00000000000E+00 0. -1.
          1   -1    0    0  501    0 -0.00000000000E+00 -0.00000000000E+00 -0.49929740978E+03  0.49929740978E+03  0.00000000000E+00 0. -1.
         25    2    1    2    0    0  0.61575230776E+02  0.67326609257E+01 -0.23149490758E+03  0.27028378454E+03  0.12500637657E+03 0.  0.
          2    1    1    2  501    0  0.28820043879E+02  0.73821905797E+00 -0.24629291074E+03  0.24797447001E+03  0.00000000000E+00 0. -1.
          1    1    1    2  502    0 -0.90395274655E+02 -0.74708799837E+01  0.16126796106E+04  0.16152283573E+04  0.00000000000E+00 0. -1.
         22    1    3    3    0    0  0.72494856978E+02  0.24019081370E+02 -0.58803211046E+02  0.96385881681E+02  0.00000000000E+00 0. -1.
         22    1    3    3    0    0 -0.10919626202E+02 -0.17286420444E+02 -0.17269169653E+03  0.17389790286E+03  0.00000000000E+00 0. -1.
</event>
<event>
 7    1  0.4915160E-006  0.7917070E+02  0.7818608E-02  0.1366850E+00
          2   -1    0    0  502    0  0.00000000000E+00  0.00000000000E+00  0.61482773419E+03  0.61482773419E+03  0.00000000000E+00 0. -1.
          1   -1    0    0  501    0 -0.00000000000E+00 -0.00000000000E+00 -0.37768033186E+04  0.37768033186E+04  0.00000000000E+00 0. -1.
         25    2    1    2    0    0  0.24419812668E+02  0.22720133841E+02 -0.66834549563E+03  0.68075185499E+03  0.12499941926E+03 0.  0.
          2    1    1    2  501    0 -0.21091797402E+02 -0.81117803671E+02 -0.31002815930E+04  0.31014143415E+04  0.00000000000E+00 0. -1.
          1    1    1    2  502    0 -0.33280152667E+01  0.58397669830E+02  0.60665150419E+03  0.60946485630E+03  0.00000000000E+00 0. -1.
         22    1    3    3    0    0 -0.33205966248E+02  0.14804042666E+02 -0.63937212848E+02  0.73551091498E+02  0.00000000000E+00 0. -1.
         22    1    3    3    0    0  0.57625778916E+02  0.79160911746E+01 -0.60440828278E+03  0.60720076350E+03  0.00000000000E+00 0. -1.
</event>
<event>
 7    1  0.4915160E-006  0.8566336E+02  0.7818608E-02  0.1318406E+00
          2   -1    0    0  502    0  0.00000000000E+00  0.00000000000E+00  0.56574077873E+03  0.56574077873E+03  0.00000000000E+00 0. -1.
          1   -1    0    0  501    0 -0.00000000000E+00 -0.00000000000E+00 -0.13916617081E+04  0.13916617081E+04  0.00000000000E+00 0. -1.
         25    2    1    2    0    0 -0.61393385826E+02  0.14475472569E+03 -0.31309238305E+03  0.37198813829E+03  0.12500102507E+03 0.  0.
          2    1    1    2  501    0  0.56209188544E+02 -0.59868742228E+02 -0.10441275600E+04  0.10473519469E+04  0.00000000000E+00 0. -1.
          1    1    1    2  502    0  0.51841972822E+01 -0.84885983461E+02  0.53129901369E+03  0.53806240162E+03  0.00000000000E+00 0. -1.
         22    1    3    3    0    0 -0.39433388216E+02  0.16556865773E+03 -0.25683906155E+03  0.30811406340E+03  0.00000000000E+00 0. -1.
         22    1    3    3    0    0 -0.21959997610E+02 -0.20813932042E+02 -0.56253321504E+02  0.63874074884E+02  0.00000000000E+00 0. -1.
</event>
<event>
 7    1  0.4915160E-006  0.5168756E+02  0.7818608E-02  0.1451702E+00
          2   -1    0    0  502    0  0.00000000000E+00  0.00000000000E+00  0.10042206891E+04  0.10042206891E+04  0.00000000000E+00 0. -1.
          1   -1    0    0  501    0 -0.00000000000E+00 -0.00000000000E+00 -0.93554171067E+03  0.93554171067E+03  0.00000000000E+00 0. -1.
         25    2    1    2    0    0  0.67522108455E+02 -0.12244963610E+02  0.70049211656E+02  0.15887498777E+03  0.12500078168E+03 0.  0.
          2    1    1    2  501    0 -0.43851449577E+02 -0.27370919101E+02 -0.88977977193E+03  0.89128006787E+03  0.00000000000E+00 0. -1.
          1    1    1    2  502    0 -0.23670658878E+02  0.39615882711E+02  0.88840953871E+03  0.88960734413E+03  0.00000000000E+00 0. -1.
         22    1    3    3    0    0  0.97103553153E+02 -0.36805069262E+02  0.55673320128E+02  0.11782712647E+03  0.00000000000E+00 0. -1.
         22    1    3    3    0    0 -0.29581444698E+02  0.24560105653E+02  0.14375891528E+02  0.41047861300E+02  0.00000000000E+00 0. -1.
</event>
<event>
 7    1  0.4915160E-006  0.4845992E+02  0.7818608E-02  0.1455246E+00
          2   -1    0    0  502    0  0.00000000000E+00  0.00000000000E+00  0.19633090710E+04  0.19633090710E+04  0.00000000000E+00 0. -1.
          1   -1    0    0  501    0 -0.00000000000E+00 -0.00000000000E+00 -0.67911833530E+03  0.67911833530E+03  0.00000000000E+00 0. -1.
         25    2    1    2    0    0 -0.15295346053E+02  0.52956935522E+01  0.94863753106E+03  0.95697586999E+03  0.12501063322E+03 0.  0.
          2    1    1    2  501    0  0.32286193297E+01  0.48352242898E+02 -0.67332965472E+03  0.67507124609E+03  0.00000000000E+00 0. -1.
          1    1    1    2  502    0  0.12066726723E+02 -0.53647936451E+02  0.10088828593E+04  0.10103802902E+04  0.00000000000E+00 0. -1.
         22    1    3    3    0    0 -0.14689131898E+02 -0.51013056334E+02  0.22614707392E+03  0.23229421334E+03  0.00000000000E+00 0.  1.
         22    1    3    3    0    0 -0.60621415463E+00  0.56308749886E+02  0.72249045715E+03  0.72468165664E+03  0.00000000000E+00 0.  1.
</event>
<event>
 7    1  0.4915160E-006  0.6494033E+02  0.7818608E-02  0.1415704E+00
          2   -1    0    0  502    0  0.00000000000E+00  0.00000000000E+00  0.31333720205E+04  0.31333720205E+04  0.00000000000E+00 0. -1.
          1   -1    0    0  501    0 -0.00000000000E+00 -0.00000000000E+00 -0.37877011604E+03  0.37877011604E+03  0.00000000000E+00 0. -1.
         25    2    1    2    0    0 -0.40995134144E+02  0.93406361267E+02  0.19306280510E+03  0.25160193927E+03  0.12499975913E+03 0.  0.
          2    1    1    2  501    0 -0.48585823159E+01 -0.47941930189E+02 -0.34747959035E+03  0.35080493183E+03  0.00000000000E+00 0. -1.
          1    1    1    2  502    0  0.45853716459E+02 -0.45464431078E+02  0.29090186897E+04  0.29097352654E+04  0.00000000000E+00 0. -1.
         22    1    3    3    0    0 -0.68090373136E+02  0.10802481173E+03  0.13463619432E+03  0.18556013495E+03  0.00000000000E+00 0.  1.
         22    1    3    3    0    0  0.27095238993E+02 -0.14618450464E+02  0.58426610778E+02  0.66041804314E+02  0.00000000000E+00 0.  1.
</event>
<event>
 7    1  0.4915160E-006  0.8347160E+02  0.7818608E-02  0.1389300E+00
          2   -1    0    0  502    0  0.00000000000E+00  0.00000000000E+00  0.27740104949E+04  0.27740104949E+04  0.00000000000E+00 0. -1.
          1   -1    0    0  501    0 -0.00000000000E+00 -0.00000000000E+00 -0.40307378281E+03  0.40307378281E+03  0.00000000000E+00 0. -1.
         25    2    1    2    0    0  0.17766703597E+02  0.64236345210E+02  0.64129063656E+03  0.65674984385E+03  0.12499885220E+03 0.  0.
          2    1    1    2  501    0 -0.63012464245E+02 -0.55032908156E+02 -0.39066401741E+03  0.39952167166E+03  0.00000000000E+00 0. -1.
          1    1    1    2  502    0  0.45245760647E+02 -0.92034370546E+01  0.21203100930E+04  0.21208127622E+04  0.00000000000E+00 0. -1.
         22    1    3    3    0    0  0.68434857091E+02  0.25659164414E+02  0.42652094066E+03  0.43273760549E+03  0.00000000000E+00 0.  1.
         22    1    3    3    0    0 -0.50668153494E+02  0.38577180797E+02  0.21476969590E+03  0.22401223836E+03  0.00000000000E+00 0.  1.
</event>
<event>
 7    1  0.4915160E-006  0.1105213E+03  0.7818608E-02  0.1282279E+00
          2   -1    0    0  502    0  0.00000000000E+00  0.00000000000E+00  0.24034315247E+04  0.24034315247E+04  0.00000000000E+00 0. -1.
          1   -1    0    0  501    0 -0.00000000000E+00 -0.00000000000E+00 -0.13327369845E+03  0.13327369845E+03  0.00000000000E+00 0. -1.
         25    2    1    2    0    0  0.16492233001E+02 -0.27475450259E+02  0.26976061158E+03  0.29903554077E+03  0.12499829186E+03 0.  0.
          2    1    1    2  501    0 -0.88259804212E+02  0.79757987247E+02 -0.87633214647E+02  0.14775219077E+03  0.00000000000E+00 0. -1.
          1    1    1    2  502    0  0.71767571210E+02 -0.52282536988E+02  0.20880304293E+04  0.20899174916E+04  0.00000000000E+00 0. -1.
         22    1    3    3    0    0  0.64843895731E+02 -0.43539513902E+01  0.87099566619E+02  0.10867392609E+03  0.00000000000E+00 0.  1.
         22    1    3    3    0    0 -0.48351662729E+02 -0.23121498869E+02  0.18266104496E+03  0.19036161468E+03  0.00000000000E+00 0.  1.
</event>
<event>
 7    1  0.4915160E-006  0.9399067E+02  0.7818608E-02  0.1356030E+00
          2   -1    0    0  502    0  0.00000000000E+00  0.00000000000E+00  0.30908068121E+04  0.30908068121E+04  0.00000000000E+00 0. -1.
          1   -1    0    0  501    0 -0.00000000000E+00 -0.00000000000E+00 -0.10288291045E+03  0.10288291045E+03  0.00000000000E+00 0. -1.
         25    2    1    2    0    0  0.17662268156E+02 -0.81734918019E+02  0.70405979826E+03  0.71994288359E+03  0.12500001424E+03 0.  0.
          2    1    1    2  501    0  0.51992715976E+02  0.14396561570E+02 -0.86207017349E+02  0.10169637820E+03  0.00000000000E+00 0. -1.
          1    1    1    2  502    0 -0.69654984132E+02  0.67338356449E+02  0.23700711208E+04  0.23720504608E+04  0.00000000000E+00 0. -1.
         22    1    3    3    0    0 -0.90744542390E+00 -0.74159370366E+02  0.69316090405E+03  0.69711726027E+03  0.00000000000E+00 0. -1.
         22    1    3    3    0    0  0.18569713580E+02 -0.75755476529E+01  0.10898894216E+02  0.22825623317E+02  0.00000000000E+00 0. -1.
</event>
<event>
 7    1  0.4915160E-006  0.2064350E+03  0.7818608E-02  0.1365519E+00
          2   -1    0    0  502    0  0.00000000000E+00  0.00000000000E+00  0.51413590475E+03  0.51413590475E+03  0.00000000000E+00 0. -1.
          1   -1    0    0  501    0 -0.00000000000E+00 -0.00000000000E+00 -0.53428472235E+03  0.53428472235E+03  0.00000000000E+00 0. -1.
         25    2    1    2    0    0  0.12814690918E+03 -0.18315514706E+03  0.17986849748E+03  0.31296274785E+03  0.12500226771E+03 0.  0.
          2    1    1    2  501    0 -0.12740789818E+03  0.16048454012E+03 -0.44474584181E+03  0.48968043042E+03  0.00000000000E+00 0. -1.
          1    1    1    2  502    0 -0.73901099883E+00  0.22670606947E+02  0.24472852672E+03  0.24577744882E+03  0.00000000000E+00 0. -1.
         22    1    3    3    0    0  0.82313260828E+02 -0.53980570776E+02  0.13826099698E+03  0.16972176706E+03  0.00000000000E+00 0. -1.
         22    1    3    3    0    0  0.45833648349E+02 -0.12917457629E+03  0.41607500499E+02  0.14324098079E+03  0.00000000000E+00 0. -1.
</event>
<event>
 7    1  0.4915160E-006  0.3987802E+02  0.7818608E-02  0.1530209E+00
          2   -1    0    0  502    0  0.00000000000E+00  0.00000000000E+00  0.30639556563E+03  0.30639556563E+03  0.00000000000E+00 0. -1.
          1   -1    0    0  501    0 -0.00000000000E+00 -0.00000000000E+00 -0.11339640162E+03  0.11339640162E+03  0.00000000000E+00 0. -1.
         25    2    1    2    0    0 -0.80612765467E+01  0.38021291625E+02 -0.22138784469E+02  0.13276215447E+03  0.12500024434E+03 0.  0.
          2    1    1    2  501    0 -0.28045157945E+02 -0.20312977996E+02 -0.25531668073E+02  0.43023412624E+02  0.00000000000E+00 0. -1.
          1    1    1    2  502    0  0.36106434492E+02 -0.17708313629E+02  0.24066961655E+03  0.24400640015E+03  0.00000000000E+00 0. -1.
         22    1    3    3    0    0  0.39722711520E+02 -0.23969058744E+02 -0.28143047288E+02  0.54262700801E+02  0.00000000000E+00 0. -1.
         22    1    3    3    0    0 -0.47783988066E+02  0.61990350369E+02  0.60042628195E+01  0.78499453669E+02  0.00000000000E+00 0. -1.
</event>
<event>
 7    1  0.4915160E-006  0.7223423E+02  0.7818608E-02  0.1475958E+00
          2   -1    0    0  502    0  0.00000000000E+00  0.00000000000E+00  0.18674615323E+04  0.18674615323E+04  0.00000000000E+00 0. -1.
          1   -1    0    0  501    0 -0.00000000000E+00 -0.00000000000E+00 -0.11383818910E+03  0.11383818910E+03  0.00000000000E+00 0. -1.
         25    2    1    2    0    0 -0.47867274407E+02 -0.10327694511E+02  0.49987097530E+03  0.51758467150E+03  0.12499985195E+03 0.  0.
          2    1    1    2  501    0 -0.22119691764E+02 -0.16695888514E+02 -0.10209710232E+03  0.10579154861E+03  0.00000000000E+00 0. -1.
          1    1    1    2  502    0  0.69986966171E+02  0.27023583025E+02  0.13558494702E+04  0.13579235012E+04  0.00000000000E+00 0. -1.
         22    1    3    3    0    0 -0.79497396573E+02  0.28070721352E+02  0.30077101023E+03  0.31236357351E+03  0.00000000000E+00 0. -1.
         22    1    3    3    0    0  0.31630122167E+02 -0.38398415863E+02  0.19909996507E+03  0.20522109799E+03  0.00000000000E+00 0. -1.
</event>
<event>
 7    1  0.4915160E-006  0.5217998E+02  0.7818608E-02  0.1467362E+00
          2   -1    0    0  502    0  0.00000000000E+00  0.00000000000E+00  0.26603097550E+02  0.26603097550E+02  0.00000000000E+00 0. -1.
          1   -1    0    0  501    0 -0.00000000000E+00 -0.00000000000E+00 -0.13098759032E+04  0.13098759032E+04  0.00000000000E+00 0. -1.
         25    2    1    2    0    0  0.49016984411E+02  0.61338917031E+02 -0.38189125202E+03  0.40942738660E+03  0.12499891611E+03 0.  0.
          2    1    1    2  501    0 -0.38779539646E+02 -0.12663718223E+02 -0.86366698601E+03  0.86462991226E+03  0.00000000000E+00 0. -1.
          1    1    1    2  502    0 -0.10237444765E+02 -0.48675198808E+02 -0.37714567594E+02  0.62421701860E+02  0.00000000000E+00 0. -1.
         22    1    3    3    0    0  0.89413071267E+02  0.50535177299E+02 -0.30602990948E+03  0.32280459563E+03  0.00000000000E+00 0. -1.
         22    1    3    3    0    0 -0.40396086856E+02  0.10803739733E+02 -0.75861342537E+02  0.86622790979E+02  0.00000000000E+00 0. -1.
</event>
<event>
 7    1  0.4915160E-006  0.1473333E+03  0.7818608E-02  0.1393237E+00
          2   -1    0    0  502    0  0.00000000000E+00  0.00000000000E+00  0.92933267892E+02  0.92933267892E+02  0.00000000000E+00 0. -1.
          1   -1    0    0  501    0 -0.00000000000E+00 -0.00000000000E+00 -0.57105572438E+03  0.57105572438E+03  0.00000000000E+00 0. -1.
         25    2    1    2    0    0 -0.11856518080E+03  0.52545902489E+02 -0.95446289078E+02  0.20384715391E+03  0.12499957637E+03 0.  0.
          2    1    1    2  501    0  0.14371389701E+03 -0.49391238125E+02 -0.40102448049E+03  0.42885173726E+03  0.00000000000E+00 0. -1.
          1    1    1    2  502    0 -0.25148716207E+02 -0.31546643634E+01  0.18348313083E+02  0.31290101103E+02  0.00000000000E+00 0. -1.
         22    1    3    3    0    0  0.41136990097E+01  0.46398361574E+02 -0.60084634379E+02  0.76025612557E+02  0.00000000000E+00 0. -1.
         22    1    3    3    0    0 -0.12267887981E+03  0.61475409151E+01 -0.35361654699E+02  0.12782154135E+03  0.00000000000E+00 0. -1.
</event>
<event>
 7    1  0.4915160E-006  0.8829056E+02  0.7818608E-02  0.1401353E+00
          2   -1    0    0  502    0  0.00000000000E+00  0.00000000000E+00  0.18729016760E+04  0.18729016760E+04  0.00000000000E+00 0. -1.
          1   -1    0    0  501    0 -0.00000000000E+00 -0.00000000000E+00 -0.27801206020E+02  0.27801206020E+02  0.00000000000E+00 0. -1.
         25    2    1    2    0    0  0.30088211745E+02 -0.11663266486E+03  0.54942924968E+03  0.57619914727E+03  0.12499791162E+03 0.  0.
          2    1    1    2  501    0 -0.14002169292E+02  0.80389378407E+02  0.10408570934E+03  0.13225863977E+03  0.00000000000E+00 0. -1.
          1    1    1    2  502    0 -0.16086042453E+02  0.36243286454E+02  0.11915855110E+04  0.11922450950E+04  0.00000000000E+00 0. -1.
         22    1    3    3    0    0 -0.31376996563E+01 -0.29438410689E+02  0.39256776344E+03  0.39368250415E+03  0.00000000000E+00 0.  1.
         22    1    3    3    0    0  0.33225911401E+02 -0.87194254172E+02  0.15686148625E+03  0.18251664312E+03  0.00000000000E+00 0.  1.
</event>
<event>
 7    1  0.4915160E-006  0.5960350E+02  0.7818608E-02  0.1424976E+00
          2   -1    0    0  502    0  0.00000000000E+00  0.00000000000E+00  0.11732100399E+04  0.11732100399E+04  0.00000000000E+00 0. -1.
          1   -1    0    0  501    0 -0.00000000000E+00 -0.00000000000E+00 -0.52229248255E+02  0.52229248255E+02  0.00000000000E+00 0. -1.
         25    2    1    2    0    0 -0.46770855709E+02 -0.70682292656E+02  0.22635929504E+03  0.27211643765E+03  0.12500130300E+03 0.  0.
          2    1    1    2  501    0 -0.79323328414E+01  0.48242527967E+02 -0.73288404517E+01  0.49436578677E+02  0.00000000000E+00 0. -1.
          1    1    1    2  502    0  0.54703188550E+02  0.22439764690E+02  0.90195033707E+03  0.90388627183E+03  0.00000000000E+00 0. -1.
         22    1    3    3    0    0 -0.85299500201E+02 -0.66670493071E+02  0.13619324105E+03  0.17398148835E+03  0.00000000000E+00 0.  1.
         22    1    3    3    0    0  0.38528644493E+02 -0.40117995850E+01  0.90166053987E+02  0.98134949300E+02  0.00000000000E+00 0.  1.
</event>
<event>
 7    1  0.4915160E-006  0.1036966E+03  0.7818608E-02  0.1362955E+00
          2   -1    0    0  502    0  0.00000000000E+00  0.00000000000E+00  0.18906114971E+02  0.18906114971E+02  0.00000000000E+00 0. -1.
          1   -1    0    0  501    0 -0.00000000000E+00 -0.00000000000E+00 -0.15458640488E+04  0.15458640488E+04  0.00000000000E+00 0. -1.
         25    2    1    2    0    0  0.93924907618E+02 -0.48736279881E+02 -0.68710654949E+03  0.70635504595E+03  0.12499970933E+03 0.  0.
          2    1    1    2  501    0  0.11987717475E+02  0.44548106035E+02 -0.50699351373E+03  0.50908806908E+03  0.00000000000E+00 0. -1.
          1    1    1    2  502    0 -0.10591262509E+03  0.41881738456E+01 -0.33285787059E+03  0.34932704872E+03  0.00000000000E+00 0. -1.
         22    1    3    3    0    0  0.55698966492E+02  0.31295724127E+02 -0.42192235608E+03  0.42673208431E+03  0.00000000000E+00 0. -1.
         22    1    3    3    0    0  0.38225941126E+02 -0.80032004007E+02 -0.26518419341E+03  0.27962296164E+03  0.00000000000E+00 0. -1.
</event>
<event>
 7    1  0.4915160E-006  0.8787822E+02  0.7818608E-02  0.1362560E+00
          2   -1    0    0  502    0  0.00000000000E+00  0.00000000000E+00  0.65015929402E+02  0.65015929402E+02  0.00000000000E+00 0. -1.
          1   -1    0    0  501    0 -0.00000000000E+00 -0.00000000000E+00 -0.91276418906E+03  0.91276418906E+03  0.00000000000E+00 0. -1.
         25    2    1    2    0    0  0.58674881204E+02 -0.79006007227E+01 -0.26634138033E+03  0.30011150936E+03  0.12499610392E+03 0.  0.
          2    1    1    2  501    0  0.13003570177E+02 -0.53046857914E+02 -0.58101920546E+03  0.58358065346E+03  0.00000000000E+00 0. -1.
          1    1    1    2  502    0 -0.71678451381E+02  0.60947458637E+02 -0.38767386160E+00  0.94087955646E+02  0.00000000000E+00 0. -1.
         22    1    3    3    0    0  0.85357966049E+02  0.31240308822E+02 -0.17858537836E+03  0.20038631847E+03  0.00000000000E+00 0. -1.
         22    1    3    3    0    0 -0.26683084845E+02 -0.39140909545E+02 -0.87756001968E+02  0.99725190891E+02  0.00000000000E+00 0. -1.
</event>
<event>
 7    1  0.4915160E-006  0.6865383E+02  0.7818608E-02  0.1395101E+00
          2   -1    0    0  502    0  0.00000000000E+00  0.00000000000E+00  0.53464221753E+03  0.53464221753E+03  0.00000000000E+00 0. -1.
          1   -1    0    0  501    0 -0.00000000000E+00 -0.00000000000E+00 -0.68852266507E+03  0.68852266507E+03  0.00000000000E+00 0. -1.
         25    2    1    2    0    0 -0.30019543382E+02  0.59428597139E+02 -0.10333374960E+03  0.17531696707E+03  0.12500097597E+03 0.  0.
          2    1    1    2  501    0 -0.36111721856E+02 -0.39594753708E+02 -0.54548818459E+03  0.54811418564E+03  0.00000000000E+00 0. -1.
          1    1    1    2  502    0  0.66131265237E+02 -0.19833843431E+02  0.49494148665E+03  0.49973372989E+03  0.00000000000E+00 0. -1.
         22    1    3    3    0    0 -0.62250486020E+02  0.17430118636E+02 -0.10390520327E+03  0.12237329493E+03  0.00000000000E+00 0.  1.
         22    1    3    3    0    0  0.32230942638E+02  0.41998478503E+02  0.57145367527E+00  0.52943672136E+02  0.00000000000E+00 0.  1.
</event>
<event>
 7    1  0.4915160E-006  0.5403778E+02  0.7818608E-02  0.1433100E+00
          2   -1    0    0  502    0  0.00000000000E+00  0.00000000000E+00  0.27937038427E+04  0.27937038427E+04  0.00000000000E+00 0. -1.
          1   -1    0    0  501    0 -0.00000000000E+00 -0.00000000000E+00 -0.10220565554E+04  0.10220565554E+04  0.00000000000E+00 0. -1.
         25    2    1    2    0    0 -0.33901163058E+02  0.16438923742E+02  0.16193167586E+03  0.20800969550E+03  0.12500655465E+03 0.  0.
          2    1    1    2  501    0 -0.91372987859E+01 -0.49870813173E+02 -0.99808939203E+03  0.99937631687E+03  0.00000000000E+00 0. -1.
          1    1    1    2  502    0  0.43038461843E+02  0.33431889431E+02  0.26078050034E+04  0.26083743858E+04  0.00000000000E+00 0. -1.
         22    1    3    3    0    0 -0.18247345550E+02  0.24365290826E+02  0.18015712177E+03  0.18271075923E+03  0.00000000000E+00 0. -1.
         22    1    3    3    0    0 -0.15653817508E+02 -0.79263670839E+01 -0.18225445908E+02  0.25298936268E+02  0.00000000000E+00 0. -1.
</event>
<event>
 7    1  0.4915160E-006  0.3423734E+03  0.7818608E-02  0.1092827E+00
          2   -1    0    0  502    0  0.00000000000E+00  0.00000000000E+00  0.25556435886E+03  0.25556435886E+03  0.00000000000E+00 0. -1.
          1   -1    0    0  501    0 -0.00000000000E+00 -0.00000000000E+00 -0.14762546987E+04  0.14762546987E+04  0.00000000000E+00 0. -1.
         25    2    1    2    0    0  0.49504043608E+02 -0.25084400561E+03 -0.96472202343E+02  0.30050804019E+03  0.12499932363E+03 0.  0.
          2    1    1    2  501    0 -0.28723897494E+03  0.25316301263E+03 -0.11304013601E+04  0.11934843839E+04  0.00000000000E+00 0. -1.
          1    1    1    2  502    0  0.23773493133E+03 -0.23190070245E+01  0.61832225606E+01  0.23782663351E+03  0.00000000000E+00 0. -1.
         22    1    3    3    0    0 -0.66659326484E+01  0.27066836659E+01  0.15967794615E+02  0.17513744871E+02  0.00000000000E+00 0.  1.
         22    1    3    3    0    0  0.56169976256E+02 -0.25355068928E+03 -0.11243999696E+03  0.28299429532E+03  0.00000000000E+00 0.  1.
</event>
<event>
 7    1  0.4915160E-006  0.2560522E+03  0.7818608E-02  0.1132297E+00
          2   -1    0    0  502    0  0.00000000000E+00  0.00000000000E+00  0.18126391231E+04  0.18126391231E+04  0.00000000000E+00 0. -1.
          1   -1    0    0  501    0 -0.00000000000E+00 -0.00000000000E+00 -0.48287942186E+03  0.48287942186E+03  0.00000000000E+00 0. -1.
         25    2    1    2    0    0  0.22545897075E+02 -0.11831576384E+03  0.10137583063E+03  0.20101896569E+03  0.12499851233E+03 0.  0.
          2    1    1    2  501    0 -0.95455148633E+02 -0.16742059318E+03 -0.39767744902E+03  0.44191480387E+03  0.00000000000E+00 0. -1.
          1    1    1    2  502    0  0.72909251558E+02  0.28573635702E+03  0.16260613196E+04  0.16525847754E+04  0.00000000000E+00 0. -1.
         22    1    3    3    0    0  0.45868160684E+02 -0.48269205566E+02 -0.10063855970E+02  0.67343043943E+02  0.00000000000E+00 0. -1.
         22    1    3    3    0    0 -0.23322263610E+02 -0.70046558274E+02  0.11143968660E+03  0.13367592175E+03  0.00000000000E+00 0. -1.
</event>
<event>
 7    1  0.4915160E-006  0.7150584E+02  0.7818608E-02  0.1357200E+00
          2   -1    0    0  502    0  0.00000000000E+00  0.00000000000E+00  0.14109609237E+03  0.14109609237E+03  0.00000000000E+00 0. -1.
          1   -1    0    0  501    0 -0.00000000000E+00 -0.00000000000E+00 -0.95371087905E+03  0.95371087905E+03  0.00000000000E+00 0. -1.
         25    2    1    2    0    0 -0.66046302140E+01  0.41764947790E+02 -0.25677772373E+02  0.13443508805E+03  0.12500205158E+03 0.  0.
          2    1    1    2  501    0 -0.64239060630E+02 -0.32056358019E+02 -0.85715353210E+03  0.86015489570E+03  0.00000000000E+00 0. -1.
          1    1    1    2  502    0  0.70843690844E+02 -0.97085897707E+01  0.70216517794E+02  0.10021698768E+03  0.00000000000E+00 0. -1.
         22    1    3    3    0    0 -0.37865026447E+00  0.81845175783E+02  0.72842909036E+01  0.82169562911E+02  0.00000000000E+00 0. -1.
         22    1    3    3    0    0 -0.62259799495E+01 -0.40080227993E+02 -0.32962063277E+02  0.52265525136E+02  0.00000000000E+00 0. -1.
</event>
<event>
 7    1  0.4915160E-006  0.2461987E+03  0.7818608E-02  0.1141485E+00
          2   -1    0    0  502    0  0.00000000000E+00  0.00000000000E+00  0.26053286641E+04  0.26053286641E+04  0.00000000000E+00 0. -1.
          1   -1    0    0  501    0 -0.00000000000E+00 -0.00000000000E+00 -0.15404367094E+04  0.15404367094E+04  0.00000000000E+00 0. -1.
         25    2    1    2    0    0  0.80037973252E+02 -0.12322053144E+02 -0.84171166826E+02  0.17107340845E+03  0.12499366224E+03 0.  0.
          2    1    1    2  501    0  0.14742798200E+03 -0.10204417914E+03 -0.14007605127E+04  0.14121890944E+04  0.00000000000E+00 0. -1.
          1    1    1    2  502    0 -0.22746595525E+03  0.11436623228E+03  0.25498236343E+04  0.25625028706E+04  0.00000000000E+00 0. -1.
         22    1    3    3    0    0  0.23256585308E+02  0.19049627174E+02  0.28266095496E+02  0.41264139520E+02  0.00000000000E+00 0. -1.
         22    1    3    3    0    0  0.56781387943E+02 -0.31371680318E+02 -0.11243726232E+03  0.12980926893E+03  0.00000000000E+00 0. -1.
</event>
<event>
 7    1  0.4915160E-006  0.2037279E+03  0.7818608E-02  0.1358485E+00
          2   -1    0    0  502    0  0.00000000000E+00  0.00000000000E+00  0.15901031189E+04  0.15901031189E+04  0.00000000000E+00 0. -1.
          1   -1    0    0  501    0 -0.00000000000E+00 -0.00000000000E+00 -0.45116637421E+03  0.45116637421E+03  0.00000000000E+00 0. -1.
         25    2    1    2    0    0  0.16558202538E+03  0.12553943946E+03  0.81768160878E+02  0.25590577437E+03  0.12499670089E+03 0.  0.
          2    1    1    2  501    0 -0.14657324527E+03 -0.14080412425E+03 -0.33561826175E+03  0.39236352437E+03  0.00000000000E+00 0. -1.
          1    1    1    2  502    0 -0.19008780106E+02  0.15264684794E+02  0.13927868456E+04  0.13930001944E+04  0.00000000000E+00 0. -1.
         22    1    3    3    0    0  0.88973010962E+02  0.14308326697E+01  0.62610633759E+02  0.10880411491E+03  0.00000000000E+00 0. -1.
         22    1    3    3    0    0  0.76609014417E+02  0.12410860679E+03  0.19157527119E+02  0.14710165946E+03  0.00000000000E+00 0. -1.
</event>
<event>
 7    1  0.4915160E-006  0.1826728E+03  0.7818608E-02  0.1273352E+00
          2   -1    0    0  502    0  0.00000000000E+00  0.00000000000E+00  0.29559274162E+04  0.29559274162E+04  0.00000000000E+00 0. -1.
          1   -1    0    0  501    0 -0.00000000000E+00 -0.00000000000E+00 -0.10546742812E+03  0.10546742812E+03  0.00000000000E+00 0. -1.
         25    2    1    2    0    0 -0.19576207347E+03  0.11171548630E+03  0.61892198784E+03  0.67044286653E+03  0.12500428376E+03 0.  0.
          2    1    1    2  501    0  0.58498767755E+02  0.60204441356E+00 -0.65072214277E+02  0.87503493401E+02  0.00000000000E+00 0. -1.
          1    1    1    2  502    0  0.13726330572E+03 -0.11231753071E+03  0.22966102145E+04  0.23034484844E+04  0.00000000000E+00 0. -1.
         22    1    3    3    0    0 -0.16870465032E+03  0.29733437680E+02  0.42035537064E+03  0.45392066926E+03  0.00000000000E+00 0.  1.
         22    1    3    3    0    0 -0.27057423149E+02  0.81982048616E+02  0.19856661720E+03  0.21652219727E+03  0.00000000000E+00 0.  1.
</event>
<event>
 7    1  0.4915160E-006  0.5435025E+02  0.7818608E-02  0.1541041E+00
          2   -1    0    0  502    0  0.00000000000E+00  0.00000000000E+00  0.10233437834E+04  0.10233437834E+04  0.00000000000E+00 0. -1.
          1   -1    0    0  501    0 -0.00000000000E+00 -0.00000000000E+00 -0.27847559964E+03  0.27847559964E+03  0.00000000000E+00 0. -1.
         25    2    1    2    0    0 -0.61026681124E+02 -0.29688125390E+01  0.23667854931E+03  0.27454494738E+03  0.12500049107E+03 0.  0.
          2    1    1    2  501    0  0.49040174577E+02  0.23377466454E+02 -0.25651436704E+03  0.26220424321E+03  0.00000000000E+00 0. -1.
          1    1    1    2  502    0  0.11986506548E+02 -0.20408653915E+02  0.76470400152E+03  0.76507019248E+03  0.00000000000E+00 0. -1.
         22    1    3    3    0    0 -0.15026513714E+02 -0.57070368727E+02  0.60143132164E+02  0.84261613131E+02  0.00000000000E+00 0.  1.
         22    1    3    3    0    0 -0.46000167411E+02  0.54101556188E+02  0.17653541715E+03  0.19028333425E+03  0.00000000000E+00 0.  1.
</event>
<event>
 7    1  0.4915160E-006  0.5040678E+02  0.7818608E-02  0.1464483E+00
          2   -1    0    0  502    0  0.00000000000E+00  0.00000000000E+00  0.32138175533E+04  0.32138175533E+04  0.00000000000E+00 0. -1.
          1   -1    0    0  501    0 -0.00000000000E+00 -0.00000000000E+00 -0.34587237926E+03  0.34587237926E+03  0.00000000000E+00 0. -1.
         25    2    1    2    0    0  0.23845168627E+01  0.42121214565E+02  0.10107382241E+03  0.16619404857E+03  0.12499864625E+03 0.  0.
          2    1    1    2  501    0  0.40376343361E+02 -0.15121455645E+02 -0.31162033653E+03  0.31458884542E+03  0.00000000000E+00 0. -1.
          1    1    1    2  502    0 -0.42760860224E+02 -0.26999758920E+02  0.30784916881E+04  0.30789070385E+04  0.00000000000E+00 0. -1.
         22    1    3    3    0    0 -0.49618818609E+02 -0.17338143910E+02  0.46560735597E+02  0.70217807526E+02  0.00000000000E+00 0.  1.
         22    1    3    3    0    0  0.52003335472E+02  0.59459358475E+02  0.54513086814E+02  0.95976241041E+02  0.00000000000E+00 0.  1.
</event>
<event>
 7    1  0.4915160E-006  0.1175548E+03  0.7818608E-02  0.1369498E+00
          2   -1    0    0  502    0  0.00000000000E+00  0.00000000000E+00  0.60405155678E+03  0.60405155678E+03  0.00000000000E+00 0. -1.
          1   -1    0    0  501    0 -0.00000000000E+00 -0.00000000000E+00 -0.10337382878E+04  0.10337382878E+04  0.00000000000E+00 0. -1.
         25    2    1    2    0    0  0.11645152354E+03 -0.39349859776E+02 -0.53864919328E+03  0.56646097637E+03  0.12500286208E+03 0.  0.
          2    1    1    2  501    0 -0.93420037329E+02  0.70247328949E+02 -0.47343887879E+03  0.48765393728E+03  0.00000000000E+00 0. -1.
          1    1    1    2  502    0 -0.23031486216E+02 -0.30897469173E+02  0.58240134103E+03  0.58367493093E+03  0.00000000000E+00 0. -1.
         22    1    3    3    0    0  0.38048461247E+02 -0.38683666001E+02 -0.42464512302E+03  0.42809764298E+03  0.00000000000E+00 0.  1.
         22    1    3    3    0    0  0.78403062297E+02 -0.66619377519E+00 -0.11400407026E+03  0.13836333339E+03  0.00000000000E+00 0.  1.
</event>
<event>
 7    1  0.4915160E-006  0.4707939E+02  0.7818608E-02  0.1501972E+00
          2   -1    0    0  502    0  0.00000000000E+00  0.00000000000E+00  0.24399643152E+02  0.24399643152E+02  0.00000000000E+00 0. -1.
          1   -1    0    0  501    0 -0.00000000000E+00 -0.00000000000E+00 -0.98949539017E+03  0.98949539017E+03  0.00000000000E+00 0. -1.
         25    2    1    2    0    0  0.13879297909E+02 -0.25842251222E+02 -0.30163682572E+03  0.32782662221E+03  0.12500025097E+03 0.  0.
          2    1    1    2  501    0  0.34663979150E+02  0.74864463961E+01 -0.61185315121E+03  0.61288001842E+03  0.00000000000E+00 0. -1.
          1    1    1    2  502    0 -0.48543277059E+02  0.18355804825E+02 -0.51605770087E+02  0.73188392691E+02  0.00000000000E+00 0. -1.
         22    1    3    3    0    0  0.32166950447E+02 -0.37842874806E+02 -0.36124405284E+02  0.61414725692E+02  0.00000000000E+00 0. -1.
         22    1    3    3    0    0 -0.18287652538E+02  0.12000623584E+02 -0.26551242044E+03  0.26641189652E+03  0.00000000000E+00 0. -1.
</event>
<event>
 7    1  0.4915160E-006  0.1164702E+03  0.7818608E-02  0.1420557E+00
          2   -1    0    0  502    0  0.00000000000E+00  0.00000000000E+00  0.67135858164E+03  0.67135858164E+03  0.00000000000E+00 0. -1.
          1   -1    0    0  501    0 -0.00000000000E+00 -0.00000000000E+00 -0.29598920606E+03  0.29598920606E+03  0.00000000000E+00 0. -1.
         25    2    1    2    0    0  0.13382271605E+03 -0.26265910262E+02  0.36760919253E+02  0.18861300891E+03  0.12500033830E+03 0.  0.
          2    1    1    2  501    0 -0.19184329093E+02  0.17371977257E+02 -0.21335657609E+03  0.21492057286E+03  0.00000000000E+00 0. -1.
          1    1    1    2  502    0 -0.11463838696E+03  0.88939330046E+01  0.55196503241E+03  0.56381420594E+03  0.00000000000E+00 0. -1.
         22    1    3    3    0    0  0.82899258110E+02 -0.74670546711E+02  0.39352137392E+02  0.11830709302E+03  0.00000000000E+00 0.  1.
         22    1    3    3    0    0  0.50923457940E+02  0.48404636450E+02 -0.25912181389E+01  0.70305915895E+02  0.00000000000E+00 0.  1.
</event>
<event>
 7    1  0.4915160E-006  0.4315324E+02  0.7818608E-02  0.1535444E+00
          2   -1    0    0  502    0  0.00000000000E+00  0.00000000000E+00  0.24245656059E+04  0.24245656059E+04  0.00000000000E+00 0. -1.
          1   -1    0    0  501    0 -0.00000000000E+00 -0.00000000000E+00 -0.14434836499E+03  0.14434836499E+03  0.00000000000E+00 0. -1.
         25    2    1    2    0    0 -0.38873531277E+02 -0.36466793199E+02  0.34541803352E+03  0.37118598104E+03  0.12499774477E+03 0.  0.
          2    1    1    2  501    0  0.42758837101E+02  0.57935909431E+01 -0.12780474692E+03  0.13489231698E+03  0.00000000000E+00 0. -1.
          1    1    1    2  502    0 -0.38853058235E+01  0.30673202256E+02  0.20626039543E+04  0.20628356728E+04  0.00000000000E+00 0. -1.
         22    1    3    3    0    0 -0.66148101483E+02 -0.59031044258E+02  0.30418844232E+03  0.31684514192E+03  0.00000000000E+00 0. -1.
         22    1    3    3    0    0  0.27274570206E+02  0.22564251059E+02  0.41229591201E+02  0.54340839121E+02  0.00000000000E+00 0. -1.
</event>
<event>
 7    1  0.4915160E-006  0.6167108E+02  0.7818608E-02  0.1467762E+00
          2   -1    0    0  502    0  0.00000000000E+00  0.00000000000E+00  0.18047922259E+03  0.18047922259E+03  0.00000000000E+00 0. -1.
          1   -1    0    0  501    0 -0.00000000000E+00 -0.00000000000E+00 -0.31248002397E+03  0.31248002397E+03  0.00000000000E+00 0. -1.
         25    2    1    2    0    0 -0.17809896537E+02 -0.89354118215E+02 -0.13020225574E+03  0.20218676677E+03  0.12500204159E+03 0.  0.
          2    1    1    2  501    0  0.15107812016E+02  0.55042631344E+02 -0.13850231140E+03  0.14980262853E+03  0.00000000000E+00 0. -1.
          1    1    1    2  502    0  0.27020845205E+01  0.34311486871E+02  0.13670376576E+03  0.14096985126E+03  0.00000000000E+00 0. -1.
         22    1    3    3    0    0  0.26451671879E+02 -0.87119311203E+02 -0.12894763224E+03  0.15785106015E+03  0.00000000000E+00 0.  1.
         22    1    3    3    0    0 -0.44261568416E+02 -0.22348070118E+01 -0.12546234920E+01  0.44335706616E+02  0.00000000000E+00 0.  1.
</event>
<event>
 7    1  0.4915160E-006  0.1434237E+03  0.7818608E-02  0.1209266E+00
          2   -1    0    0  502    0  0.00000000000E+00  0.00000000000E+00  0.39266118391E+03  0.39266118391E+03  0.00000000000E+00 0. -1.
          1   -1    0    0  501    0 -0.00000000000E+00 -0.00000000000E+00 -0.45541829352E+03  0.45541829352E+03  0.00000000000E+00 0. -1.
         25    2    1    2    0    0  0.33930010503E+02 -0.30491133300E+02  0.76338790965E+02  0.15340215792E+03  0.12499462479E+03 0.  0.
          2    1    1    2  501    0 -0.15023649531E+03 -0.53432384705E+02 -0.38124102651E+03  0.41324417062E+03  0.00000000000E+00 0. -1.
          1    1    1    2  502    0  0.11630648481E+03  0.83923518006E+02  0.24214512594E+03  0.28143314890E+03  0.00000000000E+00 0. -1.
         22    1    3    3    0    0  0.69772086818E+02 -0.54797952616E+02  0.60063354702E+02  0.10713807114E+03  0.00000000000E+00 0.  1.
         22    1    3    3    0    0 -0.35842076315E+02  0.24306819315E+02  0.16275436262E+02  0.46264086777E+02  0.00000000000E+00 0.  1.
</event>
<event>
 7    1  0.4915160E-006  0.8095015E+02  0.7818608E-02  0.1465332E+00
          2   -1    0    0  502    0  0.00000000000E+00  0.00000000000E+00  0.75526652785E+03  0.75526652785E+03  0.00000000000E+00 0. -1.
          1   -1    0    0  501    0 -0.00000000000E+00 -0.00000000000E+00 -0.54541294837E+03  0.54541294837E+03  0.00000000000E+00 0. -1.
         25    2    1    2    0    0 -0.43777823493E+02  0.74956278772E+02 -0.93909704805E+02  0.17881847430E+03  0.12498828960E+03 0.  0.
          2    1    1    2  501    0 -0.16501261178E+02 -0.20969155967E+02 -0.40631323545E+03  0.40718846058E+03  0.00000000000E+00 0. -1.
          1    1    1    2  502    0  0.60279084671E+02 -0.53987122805E+02  0.71007651973E+03  0.71467254135E+03  0.00000000000E+00 0. -1.
         22    1    3    3    0    0 -0.87596342591E+02  0.50472112392E+02 -0.71631467119E+02  0.12390165635E+03  0.00000000000E+00 0. -1.
         22    1    3    3    0    0  0.43818519098E+02  0.24484166381E+02 -0.22278237687E+02  0.54916817950E+02  0.00000000000E+00 0. -1.
</event>
<event>
 7    1  0.4915160E-006  0.6017436E+02  0.7818608E-02  0.1434244E+00
          2   -1    0    0  502    0  0.00000000000E+00  0.00000000000E+00  0.16895295154E+04  0.16895295154E+04  0.00000000000E+00 0. -1.
          1   -1    0    0  501    0 -0.00000000000E+00 -0.00000000000E+00 -0.99540008280E+02  0.99540008280E+02  0.00000000000E+00 0. -1.
         25    2    1    2    0    0  0.23596192642E+02 -0.63622834792E+02  0.93367249714E+02  0.17013728603E+03  0.12499842945E+03 0.  0.
          2    1    1    2  501    0  0.29177536973E+02  0.34441871047E+02 -0.52157968431E+02  0.68978437325E+02  0.00000000000E+00 0. -1.
          1    1    1    2  502    0 -0.52773729615E+02  0.29180963745E+02  0.15487802259E+04  0.15499538003E+04  0.00000000000E+00 0. -1.
         22    1    3    3    0    0 -0.77723153426E+01 -0.93189305615E+02  0.84697230271E+02  0.12616765189E+03  0.00000000000E+00 0. -1.
         22    1    3    3    0    0  0.31368507984E+02  0.29566470823E+02  0.86700194430E+01  0.43969634149E+02  0.00000000000E+00 0. -1.
</event>
<event>
 7    1  0.4915160E-006  0.2383717E+02  0.7818608E-02  0.1698223E+00
          2   -1    0    0  502    0  0.00000000000E+00  0.00000000000E+00  0.12775272122E+03  0.12775272122E+03  0.00000000000E+00 0. -1.
          1   -1    0    0  501    0 -0.00000000000E+00 -0.00000000000E+00 -0.50327280627E+03  0.50327280627E+03  0.00000000000E+00 0. -1.
         25    2    1    2    0    0  0.82849265337E+00  0.17241844975E+02 -0.18150064657E+02  0.12748473914E+03  0.12499986499E+03 0.  0.
          2    1    1    2  501    0  0.20589989068E+02 -0.58699747604E+01 -0.42816894011E+03  0.42870391359E+03  0.00000000000E+00 0. -1.
          1    1    1    2  502    0 -0.21418481722E+02 -0.11371870214E+02  0.70798919720E+02  0.74836874767E+02  0.00000000000E+00 0. -1.
         22    1    3    3    0    0  0.32386924763E+02  0.66301976696E+01  0.45152108689E+02  0.55960569473E+02  0.00000000000E+00 0.  1.
         22    1    3    3    0    0 -0.31558432109E+02  0.10611647305E+02 -0.63302173346E+02  0.71524169663E+02  0.00000000000E+00 0.  1.
</event>
<event>
 7    1  0.4915160E-006  0.1417946E+03  0.7818608E-02  0.1333333E+00
          2   -1    0    0  502    0  0.00000000000E+00  0.00000000000E+00  0.13374574166E+04  0.13374574166E+04  0.00000000000E+00 0. -1.
          1   -1    0    0  501    0 -0.00000000000E+00 -0.00000000000E+00 -0.72145540716E+03  0.72145540716E+03  0.00000000000E+00 0. -1.
         25    2    1    2    0    0 -0.10914663331E+03 -0.21517606422E+02  0.83720093638E+03  0.85376394406E+03  0.12502587472E+03 0.  0.
          2    1    1    2  501    0  0.12860521546E+03  0.60389557968E+02 -0.70511376194E+03  0.71928549091E+03  0.00000000000E+00 0. -1.
          1    1    1    2  502    0 -0.19458582151E+02 -0.38871951546E+02  0.48391483500E+03  0.48586338880E+03  0.00000000000E+00 0. -1.
         22    1    3    3    0    0 -0.39242229871E+02 -0.68178111746E+02  0.30571455251E+03  0.31567324110E+03  0.00000000000E+00 0. -1.
         22    1    3    3    0    0 -0.69904403438E+02  0.46660505325E+02  0.53148638387E+03  0.53809070296E+03  0.00000000000E+00 0. -1.
</event>
<event>
 7    1  0.4915160E-006  0.1472374E+03  0.7818608E-02  0.1233153E+00
          2   -1    0    0  502    0  0.00000000000E+00  0.00000000000E+00  0.49856982137E+03  0.49856982137E+03  0.00000000000E+00 0. -1.
          1   -1    0    0  501    0 -0.00000000000E+00 -0.00000000000E+00 -0.15280875213E+04  0.15280875213E+04  0.00000000000E+00 0. -1.
         25    2    1    2    0    0 -0.35363915375E+02 -0.49084353991E+02 -0.12249455614E+03  0.18517344672E+03  0.12499763505E+03 0.  0.
          2    1    1    2  501    0  0.34614866451E+02  0.15730904075E+03 -0.13631803800E+04  0.13726634954E+04  0.00000000000E+00 0. -1.
          1    1    1    2  502    0  0.74904892451E+00 -0.10822468676E+03  0.45615723615E+03  0.46882040057E+03  0.00000000000E+00 0. -1.
         22    1    3    3    0    0  0.21848937987E+02 -0.69177934970E+02 -0.40165346201E+02  0.82922963124E+02  0.00000000000E+00 0.  1.
         22    1    3    3    0    0 -0.57212853362E+02  0.20093580979E+02 -0.82329209936E+02  0.10225048359E+03  0.00000000000E+00 0.  1.
</event>
<event>
 7    1  0.4915160E-006  0.8039986E+02  0.7818608E-02  0.1350362E+00
          2   -1    0    0  502    0  0.00000000000E+00  0.00000000000E+00  0.93035184807E+03  0.93035184807E+03  0.00000000000E+00 0. -1.
          1   -1    0    0  501    0 -0.00000000000E+00 -0.00000000000E+00 -0.23992640840E+04  0.23992640840E+04  0.00000000000E+00 0. -1.
         25    2    1    2    0    0  0.18219932446E+02  0.15977119288E+02 -0.34956002977E+02  0.13203922056E+03  0.12500079736E+03 0.  0.
          2    1    1    2  501    0 -0.81213539227E+02  0.43027515607E+01 -0.23138094344E+04  0.23152382710E+04  0.00000000000E+00 0. -1.
          1    1    1    2  502    0  0.62993606781E+02 -0.20279870849E+02  0.87985320142E+03  0.88233844057E+03  0.00000000000E+00 0. -1.
         22    1    3    3    0    0 -0.13318366635E+02 -0.33342824001E+02 -0.58745297951E+02  0.68848622597E+02  0.00000000000E+00 0.  1.
         22    1    3    3    0    0  0.31538299081E+02  0.49319943290E+02  0.23789294974E+02  0.63190597959E+02  0.00000000000E+00 0.  1.
</event>
<event>
 7    1  0.4915160E-006  0.9820089E+02  0.7818608E-02  0.1324053E+00
          2   -1    0    0  502    0  0.00000000000E+00  0.00000000000E+00  0.14318587416E+04  0.14318587416E+04  0.00000000000E+00 0. -1.
          1   -1    0    0  501    0 -0.00000000000E+00 -0.00000000000E+00 -0.18046563483E+03  0.18046563483E+03  0.00000000000E+00 0. -1.
         25    2    1    2    0    0 -0.94232797316E+02 -0.38524146498E+01 -0.12166733910E+03  0.19829762593E+03  0.12499738340E+03 0.  0.
          2    1    1    2  501    0  0.17634787846E+02  0.65795473133E+02  0.43501357253E+02  0.80823252285E+02  0.00000000000E+00 0. -1.
          1    1    1    2  502    0  0.76598009469E+02 -0.61943058483E+02  0.13295590886E+04  0.13332034982E+04  0.00000000000E+00 0. -1.
         22    1    3    3    0    0 -0.92776405358E+02  0.46910999402E+02 -0.95501596979E+02  0.14116889984E+03  0.00000000000E+00 0.  1.
         22    1    3    3    0    0 -0.14563919574E+01 -0.50763414052E+02 -0.26165742122E+02  0.57128726089E+02  0.00000000000E+00 0.  1.
</event>
<event>
 7    1  0.4915160E-006  0.5576976E+02  0.7818608E-02  0.1467130E+00
          2   -1    0    0  502    0  0.00000000000E+00  0.00000000000E+00  0.14131370341E+02  0.14131370341E+02  0.00000000000E+00 0. -1.
          1   -1    0    0  501    0 -0.00000000000E+00 -0.00000000000E+00 -0.21430261402E+04  0.21430261402E+04  0.00000000000E+00 0. -1.
         25    2    1    2    0    0 -0.18184280032E+02 -0.24123979452E+02 -0.15974996405E+04  0.16026674044E+04  0.12500029407E+03 0.  0.
          2    1    1    2  501    0 -0.37114962072E+02  0.91779789748E+01 -0.46595119470E+03  0.46751713503E+03  0.00000000000E+00 0. -1.
          1    1    1    2  502    0  0.55299242104E+02  0.14946000477E+02 -0.65443934648E+02  0.86972971030E+02  0.00000000000E+00 0. -1.
         22    1    3    3    0    0  0.12855462357E+02 -0.35207882985E+02 -0.14841469874E+04  0.14846202000E+04  0.00000000000E+00 0.  1.
         22    1    3    3    0    0 -0.31039742389E+02  0.11083903533E+02 -0.11335265303E+03  0.11804720443E+03  0.00000000000E+00 0.  1.
</event>
<event>
 7    1  0.4915160E-006  0.1827282E+03  0.7818608E-02  0.1205043E+00
          2   -1    0    0  502    0  0.00000000000E+00  0.00000000000E+00  0.14836591205E+04  0.14836591205E+04  0.00000000000E+00 0. -1.
          1   -1    0    0  501    0 -0.00000000000E+00 -0.00000000000E+00 -0.55091757569E+03  0.55091757569E+03  0.00000000000E+00 0. -1.
         25    2    1    2    0    0 -0.26219630213E+03 -0.85052600744E+01  0.40147019878E+03  0.49560322539E+03  0.12499998485E+03 0.  0.
          2    1    1    2  501    0  0.10249991254E+03 -0.56829222819E+02 -0.48969762064E+03  0.50352711178E+03  0.00000000000E+00 0. -1.
          1    1    1    2  502    0  0.15969638959E+03  0.65334482894E+02  0.10209689667E+04  0.10354463590E+04  0.00000000000E+00 0. -1.
         22    1    3    3    0    0  0.39590202000E+01  0.12743091648E+02 -0.13068699326E+00  0.13344560869E+02  0.00000000000E+00 0.  1.
         22    1    3    3    0    0 -0.26615532233E+03 -0.21248351723E+02  0.40160088577E+03  0.48225866452E+03  0.00000000000E+00 0.  1.
</event>
<event>
 7    1  0.4915160E-006  0.1075768E+03  0.7818608E-02  0.1280333E+00
          2   -1    0    0  502    0  0.00000000000E+00  0.00000000000E+00  0.20182505250E+03  0.20182505250E+03  0.00000000000E+00 0. -1.
          1   -1    0    0  501    0 -0.00000000000E+00 -0.00000000000E+00 -0.93028534877E+03  0.93028534877E+03  0.00000000000E+00 0. -1.
         25    2    1    2    0    0  0.79083740737E+02 -0.10302203133E+03 -0.46168978470E+03  0.49563172176E+03  0.12500227729E+03 0.  0.
          2    1    1    2  501    0  0.13688719608E+02  0.10832753866E+03 -0.43272021412E+03  0.44628356500E+03  0.00000000000E+00 0. -1.
          1    1    1    2  502    0 -0.92772460345E+02 -0.53055073327E+01  0.16594970256E+03  0.19019511452E+03  0.00000000000E+00 0. -1.
         22    1    3    3    0    0  0.28875837382E+02 -0.10512621706E+03 -0.18763191366E+03  0.21700477074E+03  0.00000000000E+00 0.  1.
         22    1    3    3    0    0  0.50207903355E+02  0.21041857330E+01 -0.27405787104E+03  0.27862695102E+03  0.00000000000E+00 0.  1.
</event>
<event>
 7    1  0.4915160E-006  0.5607804E+02  0.7818608E-02  0.1513131E+00
          2   -1    0    0  502    0  0.00000000000E+00  0.00000000000E+00  0.91026810910E+03  0.91026810910E+03  0.00000000000E+00 0. -1.
          1   -1    0    0  501    0 -0.00000000000E+00 -0.00000000000E+00 -0.18352206017E+04  0.18352206017E+04  0.00000000000E+00 0. -1.
         25    2    1    2    0    0 -0.26253098590E+02 -0.15948926294E+02  0.24881476226E+03  0.28013758653E+03  0.12499875212E+03 0.  0.
          2    1    1    2  501    0 -0.21663532677E+02 -0.17095976024E+02 -0.18181427073E+04  0.18183521345E+04  0.00000000000E+00 0. -1.
          1    1    1    2  502    0  0.47916631267E+02  0.33044902318E+02  0.64437545240E+03  0.64699898978E+03  0.00000000000E+00 0. -1.
         22    1    3    3    0    0 -0.68557961282E+02  0.21799800713E+02  0.14401366339E+03  0.16098248542E+03  0.00000000000E+00 0. -1.
         22    1    3    3    0    0  0.42304862692E+02 -0.37748727007E+02  0.10480109887E+03  0.11915510111E+03  0.00000000000E+00 0. -1.
</event>
<event>
 7    1  0.4915160E-006  0.6401025E+02  0.7818608E-02  0.1394312E+00
          2   -1    0    0  502    0  0.00000000000E+00  0.00000000000E+00  0.30353083728E+04  0.30353083728E+04  0.00000000000E+00 0. -1.
          1   -1    0    0  501    0 -0.00000000000E+00 -0.00000000000E+00 -0.55628309467E+02  0.55628309467E+02  0.00000000000E+00 0. -1.
         25    2    1    2    0    0 -0.54743672468E+02 -0.39636252826E+02  0.79893531180E+02  0.16301453743E+03  0.12499144320E+03 0.  0.
          2    1    1    2  501    0 -0.43111505042E+01  0.64331178990E+02  0.62114304049E+02  0.89528059157E+02  0.00000000000E+00 0. -1.
          1    1    1    2  502    0  0.59054822972E+02 -0.24694926164E+02  0.28376722281E+04  0.28383940857E+04  0.00000000000E+00 0. -1.
         22    1    3    3    0    0  0.15685390999E+02 -0.38630885229E+01  0.82412586608E+02  0.83980886963E+02  0.00000000000E+00 0.  1.
         22    1    3    3    0    0 -0.70429063467E+02 -0.35773164304E+02 -0.25190554285E+01  0.79033650462E+02  0.00000000000E+00 0.  1.
</event>
<event>
 7    1  0.4915160E-006  0.1362807E+03  0.7818608E-02  0.1221918E+00
          2   -1    0    0  502    0  0.00000000000E+00  0.00000000000E+00  0.21105331486E+04  0.21105331486E+04  0.00000000000E+00 0. -1.
          1   -1    0    0  501    0 -0.00000000000E+00 -0.00000000000E+00 -0.44472951842E+03  0.44472951842E+03  0.00000000000E+00 0. -1.
         25    2    1    2    0    0  0.16664490773E+02  0.11513166855E+01  0.21188753295E+02  0.12787226563E+03  0.12499328889E+03 0.  0.
          2    1    1    2  501    0  0.86658767536E+02 -0.98735955658E+02 -0.37779938853E+03  0.39998863597E+03  0.00000000000E+00 0. -1.
          1    1    1    2  502    0 -0.10332325831E+03  0.97584638973E+02  0.20224142654E+04  0.20274017654E+04  0.00000000000E+00 0. -1.
         22    1    3    3    0    0  0.35726344559E+02 -0.39766191274E+02  0.50914350531E+02  0.73824066225E+02  0.00000000000E+00 0. -1.
         22    1    3    3    0    0 -0.19061853787E+02  0.40917507960E+02 -0.29725597236E+02  0.54048199401E+02  0.00000000000E+00 0. -1.
</event>
<event>
 7    1  0.4915160E-006  0.1294545E+03  0.7818608E-02  0.1386216E+00
          2   -1    0    0  502    0  0.00000000000E+00  0.00000000000E+00  0.32705809522E+03  0.32705809522E+03  0.00000000000E+00 0. -1.
          1   -1    0    0  501    0 -0.00000000000E+00 -0.00000000000E+00 -0.14093143601E+04  0.14093143601E+04  0.00000000000E+00 0. -1.
         25    2    1    2    0    0 -0.14871125238E+03  0.31185908494E+02  0.19675460093E+02  0.19774435926E+03  0.12501244105E+03 0.  0.
          2    1    1    2  501    0  0.24297271919E+02 -0.18470906158E+02 -0.13021786539E+04  0.13025362868E+04  0.00000000000E+00 0. -1.
          1    1    1    2  502    0  0.12441398046E+03 -0.12715002335E+02  0.20024692896E+03  0.23609180921E+03  0.00000000000E+00 0. -1.
         22    1    3    3    0    0 -0.48461969333E+01  0.38854408422E+02 -0.25537208108E+02  0.46747188969E+02  0.00000000000E+00 0. -1.
         22    1    3    3    0    0 -0.14386505545E+03 -0.76684999282E+01  0.45212668201E+02  0.15099717029E+03  0.00000000000E+00 0. -1.
</event>
<event>
 7    1  0.4915160E-006  0.8753100E+02  0.7818608E-02  0.1447791E+00
          2   -1    0    0  502    0  0.00000000000E+00  0.00000000000E+00  0.14453394567E+04  0.14453394567E+04  0.00000000000E+00 0. -1.
          1   -1    0    0  501    0 -0.00000000000E+00 -0.00000000000E+00 -0.12072803325E+03  0.12072803325E+03  0.00000000000E+00 0. -1.
         25    2    1    2    0    0  0.54801410798E+01 -0.69505360842E+02  0.11838497700E+03  0.18574141379E+03  0.12499537146E+03 0.  0.
          2    1    1    2  501    0 -0.22019360124E+02 -0.17373551218E+02 -0.83235844379E+02  0.87834493746E+02  0.00000000000E+00 0. -1.
          1    1    1    2  502    0  0.16539219044E+02  0.86878912060E+02  0.12894622909E+04  0.12924915825E+04  0.00000000000E+00 0. -1.
         22    1    3    3    0    0  0.62206585925E+02 -0.24977749565E+02  0.78874522867E+02  0.10351201700E+03  0.00000000000E+00 0.  1.
         22    1    3    3    0    0 -0.56726444845E+02 -0.44527611277E+02  0.39510454131E+02  0.82229396789E+02  0.00000000000E+00 0.  1.
</event>
<event>
 7    1  0.4915160E-006  0.1866425E+03  0.7818608E-02  0.1348253E+00
          2   -1    0    0  502    0  0.00000000000E+00  0.00000000000E+00  0.10977793731E+03  0.10977793731E+03  0.00000000000E+00 0. -1.
          1   -1    0    0  501    0 -0.00000000000E+00 -0.00000000000E+00 -0.19020022541E+04  0.19020022541E+04  0.00000000000E+00 0. -1.
         25    2    1    2    0    0  0.20485519430E+03  0.43356433377E+02 -0.64897828454E+03  0.69328466517E+03  0.12500152883E+03 0.  0.
          2    1    1    2  501    0 -0.28303522681E+02  0.64326175166E+01 -0.11344769625E+04  0.11348482041E+04  0.00000000000E+00 0. -1.
          1    1    1    2  502    0 -0.17655167162E+03 -0.49789050894E+02 -0.87690697616E+01  0.18364732213E+03  0.00000000000E+00 0. -1.
         22    1    3    3    0    0  0.76028662665E+02  0.71713841243E+01 -0.42946361173E+03  0.43620038985E+03  0.00000000000E+00 0. -1.
         22    1    3    3    0    0  0.12882653164E+03  0.36185049253E+02 -0.21951467280E+03  0.25708427532E+03  0.00000000000E+00 0. -1.
</event>
<event>
 7    1  0.4915160E-006  0.7350328E+02  0.7818608E-02  0.1443979E+00
          2   -1    0    0  502    0  0.00000000000E+00  0.00000000000E+00  0.31973677065E+03  0.31973677065E+03  0.00000000000E+00 0. -1.
          1   -1    0    0  501    0 -0.00000000000E+00 -0.00000000000E+00 -0.89340241385E+03  0.89340241385E+03  0.00000000000E+00 0. -1.
         25    2    1    2    0    0 -0.77998067197E+02  0.68746754016E+02  0.11703492809E+03  0.20034071187E+03  0.12501764581E+03 0.  0.
          2    1    1    2  501    0  0.45613191748E+02 -0.57271758663E+02 -0.84832211469E+03  0.85147579406E+03  0.00000000000E+00 0. -1.
          1    1    1    2  502    0  0.32384875449E+02 -0.11474995354E+02  0.15762154340E+03  0.16132267857E+03  0.00000000000E+00 0. -1.
         22    1    3    3    0    0 -0.10255525750E+03  0.83009085169E+02  0.10810337134E+03  0.17057088836E+03  0.00000000000E+00 0.  1.
         22    1    3    3    0    0  0.24557190305E+02 -0.14262331153E+02  0.89315567483E+01  0.29769823505E+02  0.00000000000E+00 0.  1.
</event>
<event>
 7    1  0.4915160E-006  0.1447816E+03  0.7818608E-02  0.1352769E+00
          2   -1    0    0  502    0  0.00000000000E+00  0.00000000000E+00  0.23914822011E+03  0.23914822011E+03  0.00000000000E+00 0. -1.
          1   -1    0    0  501    0 -0.00000000000E+00 -0.00000000000E+00 -0.14950361772E+04  0.14950361772E+04  0.00000000000E+00 0. -1.
         25    2    1    2    0    0  0.13951273882E+03  0.34351886415E+01 -0.70890352412E+03  0.73324319371E+03  0.12500307920E+03 0.  0.
          2    1    1    2  501    0  0.11018540188E+00  0.36004378497E+02 -0.75030188042E+03  0.75116525423E+03  0.00000000000E+00 0. -1.
          1    1    1    2  502    0 -0.13962292422E+03 -0.39439567138E+02  0.20331744747E+03  0.24977594934E+03  0.00000000000E+00 0. -1.
         22    1    3    3    0    0  0.12744006260E+03 -0.24168267048E+02 -0.35318138885E+03  0.37624748254E+03  0.00000000000E+00 0.  1.
         22    1    3    3    0    0  0.12072676214E+02  0.27603455690E+02 -0.35572213526E+03  0.35699571117E+03  0.00000000000E+00 0.  1.
</event>
<event>
 7    1  0.4915160E-006  0.8300412E+02  0.7818608E-02  0.1352939E+00
          2   -1    0    0  502    0  0.00000000000E+00  0.00000000000E+00  0.29996300999E+04  0.29996300999E+04  0.00000000000E+00 0. -1.
          1   -1    0    0  501    0 -0.00000000000E+00 -0.00000000000E+00 -0.19415467139E+03  0.19415467139E+03  0.00000000000E+00 0. -1.
         25    2    1    2    0    0  0.56763324746E+02  0.50322429314E+02  0.47600653433E+03  0.49795783909E+03  0.12500146741E+03 0.  0.
          2    1    1    2  501    0 -0.35579000951E+01 -0.83516462254E+02 -0.17322909381E+03  0.19234338321E+03  0.00000000000E+00 0. -1.
          1    1    1    2  502    0 -0.53205424651E+02  0.33194032940E+02  0.25026979880E+04  0.25034835490E+04  0.00000000000E+00 0. -1.
         22    1    3    3    0    0 -0.26258225273E+02 -0.23127820897E+02  0.13014048116E+03  0.13476251456E+03  0.00000000000E+00 0. -1.
         22    1    3    3    0    0  0.83021550018E+02  0.73450250211E+02  0.34586605318E+03  0.36319532454E+03  0.00000000000E+00 0. -1.
</event>
<event>
 7    1  0.4915160E-006  0.8301968E+02  0.7818608E-02  0.1344530E+00
          2   -1    0    0  502    0  0.00000000000E+00  0.00000000000E+00  0.54627463502E+03  0.54627463502E+03  0.00000000000E+00 0. -1.
          1   -1    0    0  501    0 -0.00000000000E+00 -0.00000000000E+00 -0.25063318868E+03  0.25063318868E+03  0.00000000000E+00 0. -1.
         25    2    1    2    0    0  0.20020271113E+02  0.68060267671E+02  0.12349167655E+03  0.18949624600E+03  0.12500248709E+03 0.  0.
          2    1    1    2  501    0  0.47303420838E+02 -0.70612890427E+02 -0.20624218617E+03  0.22306867389E+03  0.00000000000E+00 0. -1.
          1    1    1    2  502    0 -0.67323691951E+02  0.25526227566E+01  0.37839195595E+03  0.38434290381E+03  0.00000000000E+00 0. -1.
         22    1    3    3    0    0 -0.26896897713E+02 -0.16818113069E+02 -0.93799845255E+00  0.31735971308E+02  0.00000000000E+00 0.  1.
         22    1    3    3    0    0  0.46917168827E+02  0.84878380740E+02  0.12442967500E+03  0.15776027469E+03  0.00000000000E+00 0.  1.
</event>
<event>
 7    1  0.4915160E-006  0.7611984E+02  0.7818608E-02  0.1377891E+00
          2   -1    0    0  502    0  0.00000000000E+00  0.00000000000E+00  0.67683244486E+03  0.67683244486E+03  0.00000000000E+00 0. -1.
          1   -1    0    0  501    0 -0.00000000000E+00 -0.00000000000E+00 -0.14585034687E+04  0.14585034687E+04  0.00000000000E+00 0. -1.
         25    2    1    2    0    0  0.15419474654E+01  0.10014077221E+03 -0.16637478154E+03  0.23093938763E+03  0.12498752324E+03 0.  0.
          2    1    1    2  501    0 -0.42596070523E+02 -0.62732285818E+02 -0.12575057009E+04  0.12597898050E+04  0.00000000000E+00 0. -1.
          1    1    1    2  502    0  0.41054123057E+02 -0.37408486395E+02  0.64220945864E+03  0.64460672091E+03  0.00000000000E+00 0. -1.
         22    1    3    3    0    0 -0.36206714462E+02  0.84171864544E+02 -0.16639088013E+03  0.18995197799E+03  0.00000000000E+00 0.  1.
         22    1    3    3    0    0  0.37748661927E+02  0.15968907669E+02  0.16098595292E-01  0.40987409635E+02  0.00000000000E+00 0.  1.
</event>
<event>
 7    1  0.4915160E-006  0.5811841E+02  0.7818608E-02  0.1428649E+00
          2   -1    0    0  502    0  0.00000000000E+00  0.00000000000E+00  0.65132891367E+02  0.65132891367E+02  0.00000000000E+00 0. -1.
          1   -1    0    0  501    0 -0.00000000000E+00 -0.00000000000E+00 -0.57636296003E+03  0.57636296003E+03  0.00000000000E+00 0. -1.
         25    2    1    2    0    0 -0.52992352288E+02  0.44601645307E+02 -0.82080033307E+02  0.16480047390E+03  0.12499827265E+03 0.  0.
          2    1    1    2  501    0  0.46638235638E+02  0.14215792366E+02 -0.41231390697E+03  0.41518667086E+03  0.00000000000E+00 0. -1.
          1    1    1    2  502    0  0.63541166501E+01 -0.58817437673E+02 -0.16836128385E+02  0.61508706634E+02  0.00000000000E+00 0. -1.
         22    1    3    3    0    0  0.22878256906E+02 -0.12395170932E+02  0.14177539554E+02  0.29632035524E+02  0.00000000000E+00 0.  1.
         22    1    3    3    0    0 -0.75870609194E+02  0.56996816240E+02 -0.96257572862E+02  0.13516843838E+03  0.00000000000E+00 0.  1.
</event>
<event>
 7    1  0.4915160E-006  0.8287388E+02  0.7818608E-02  0.1329866E+00
          2   -1    0    0  502    0  0.00000000000E+00  0.00000000000E+00  0.20231444528E+03  0.20231444528E+03  0.00000000000E+00 0. -1.
          1   -1    0    0  501    0 -0.00000000000E+00 -0.00000000000E+00 -0.10533314729E+04  0.10533314729E+04  0.00000000000E+00 0. -1.
         25    2    1    2    0    0 -0.77403888247E+02 -0.28831994405E+02  0.95142711180E+02  0.17747357638E+03  0.12498835548E+03 0.  0.
          2    1    1    2  501    0  0.50490681599E+01  0.82719933405E+02 -0.97874763311E+03  0.98224997317E+03  0.00000000000E+00 0. -1.
          1    1    1    2  502    0  0.72354820087E+02 -0.53887939000E+02  0.32587894262E+02  0.95922368673E+02  0.00000000000E+00 0. -1.
         22    1    3    3    0    0 -0.10565488188E+03 -0.45455169868E+02  0.85468908619E+02  0.14329710700E+03  0.00000000000E+00 0.  1.
         22    1    3    3    0    0  0.28250993633E+02  0.16623175463E+02  0.96738025608E+01  0.34176469386E+02  0.00000000000E+00 0.  1.
</event>
<event>
 7    1  0.4915160E-006  0.3429789E+02  0.7818608E-02  0.1577250E+00
          2   -1    0    0  502    0  0.00000000000E+00  0.00000000000E+00  0.20983402679E+04  0.20983402679E+04  0.00000000000E+00 0. -1.
          1   -1    0    0  501    0 -0.00000000000E+00 -0.00000000000E+00 -0.15292604223E+02  0.15292604223E+02  0.00000000000E+00 0. -1.
         25    2    1    2    0    0 -0.26299341203E+02  0.48426173448E+01  0.57696483722E+03  0.59095596939E+03  0.12500171229E+03 0.  0.
          2    1    1    2  501    0  0.14751142296E+02 -0.32320349141E+02  0.30587789002E+02  0.46880849007E+02  0.00000000000E+00 0. -1.
          1    1    1    2  502    0  0.11548198907E+02  0.27477731796E+02  0.14754950374E+04  0.14757960537E+04  0.00000000000E+00 0. -1.
         22    1    3    3    0    0 -0.68415828659E+02  0.26395068031E+02  0.43954584951E+03  0.44562089162E+03  0.00000000000E+00 0. -1.
         22    1    3    3    0    0  0.42116487456E+02 -0.21552450686E+02  0.13741898771E+03  0.14533507777E+03  0.00000000000E+00 0. -1.
</event>
<event>
 7    1  0.4915160E-006  0.3484867E+03  0.7818608E-02  0.1162835E+00
          2   -1    0    0  502    0  0.00000000000E+00  0.00000000000E+00  0.17117343060E+04  0.17117343060E+04  0.00000000000E+00 0. -1.
          1   -1    0    0  501    0 -0.00000000000E+00 -0.00000000000E+00 -0.20985462739E+03  0.20985462739E+03  0.00000000000E+00 0. -1.
         25    2    1    2    0    0 -0.14304240600E+03 -0.39345187619E+03  0.44795221089E+03  0.62574117669E+03  0.12500131270E+03 0.  0.
          2    1    1    2  501    0  0.11057839957E+03  0.30050253840E+03  0.97999616866E+02  0.33486308089E+03  0.00000000000E+00 0. -1.
          1    1    1    2  502    0  0.32464006434E+02  0.92949337789E+02  0.95592785082E+03  0.96098467578E+03  0.00000000000E+00 0. -1.
         22    1    3    3    0    0  0.75661958364E+01 -0.11413654238E+03  0.78592192341E+02  0.13878447436E+03  0.00000000000E+00 0.  1.
         22    1    3    3    0    0 -0.15060860184E+03 -0.27931533381E+03  0.36936001855E+03  0.48695670234E+03  0.00000000000E+00 0.  1.
</event>
<event>
 7    1  0.4915160E-006  0.7102940E+02  0.7818608E-02  0.1388534E+00
          2   -1    0    0  502    0  0.00000000000E+00  0.00000000000E+00  0.28428714762E+04  0.28428714762E+04  0.00000000000E+00 0. -1.
          1   -1    0    0  501    0 -0.00000000000E+00 -0.00000000000E+00 -0.87341375438E+03  0.87341375438E+03  0.00000000000E+00 0. -1.
         25    2    1    2    0    0 -0.11003731229E+03  0.48219305857E+01  0.12999787786E+03  0.21131905127E+03  0.12499932828E+03 0.  0.
          2    1    1    2  501    0  0.62919836288E+02 -0.32401438456E+02 -0.83096997278E+03  0.83397832986E+03  0.00000000000E+00 0. -1.
          1    1    1    2  502    0  0.47117476000E+02  0.27579507870E+02  0.26704298167E+04  0.26709878494E+04  0.00000000000E+00 0. -1.
         22    1    3    3    0    0 -0.10791571850E+03 -0.25611941120E+02  0.14054626763E+03  0.17903917776E+03  0.00000000000E+00 0.  1.
         22    1    3    3    0    0 -0.21215937843E+01  0.30433871706E+02 -0.10548389768E+02  0.32279873511E+02  0.00000000000E+00 0.  1.
</event>
<event>
 7    1  0.4915160E-006  0.4871289E+02  0.7818608E-02  0.1464034E+00
          2   -1    0    0  502    0  0.00000000000E+00  0.00000000000E+00  0.11683956039E+04  0.11683956039E+04  0.00000000000E+00 0. -1.
          1   -1    0    0  501    0 -0.00000000000E+00 -0.00000000000E+00 -0.32231710865E+03  0.32231710865E+03  0.00000000000E+00 0. -1.
         25    2    1    2    0    0  0.13382614743E+02 -0.82478095587E+02  0.49872231598E+03  0.52089387171E+03  0.12499898597E+03 0.  0.
          2    1    1    2  501    0 -0.24723751594E+02  0.37311280279E+02 -0.30879255612E+03  0.31201961195E+03  0.00000000000E+00 0. -1.
          1    1    1    2  502    0  0.11341136851E+02  0.45166815308E+02  0.65614873534E+03  0.65779922885E+03  0.00000000000E+00 0. -1.
         22    1    3    3    0    0  0.16132490043E+02 -0.26384212328E+02  0.15820359869E+02  0.34737122528E+02  0.00000000000E+00 0.  1.
         22    1    3    3    0    0 -0.27498753004E+01 -0.56093883259E+02  0.48290195611E+03  0.48615674918E+03  0.00000000000E+00 0.  1.
</event>
<event>
 7    1  0.4915160E-006  0.4318248E+02  0.7818608E-02  0.1511583E+00
          2   -1    0    0  502    0  0.00000000000E+00  0.00000000000E+00  0.62014129491E+03  0.62014129491E+03  0.00000000000E+00 0. -1.
          1   -1    0    0  501    0 -0.00000000000E+00 -0.00000000000E+00 -0.19199803105E+03  0.19199803105E+03  0.00000000000E+00 0. -1.
         25    2    1    2    0    0  0.10633083105E+02 -0.97709365742E+01  0.55603769287E+02  0.13757159617E+03  0.12500252500E+03 0.  0.
          2    1    1    2  501    0 -0.44132392702E+02 -0.39882043082E+01 -0.14711966283E+03  0.15364819898E+03  0.00000000000E+00 0. -1.
          1    1    1    2  502    0  0.33499309598E+02  0.13759140882E+02  0.51965915740E+03  0.52091953080E+03  0.00000000000E+00 0. -1.
         22    1    3    3    0    0 -0.10575950066E+01 -0.61017461379E+02  0.59019957899E+02  0.84897612044E+02  0.00000000000E+00 0.  1.
         22    1    3    3    0    0  0.11690678111E+02  0.51246524805E+02 -0.34161886122E+01  0.52673984128E+02  0.00000000000E+00 0.  1.
</event>
<event>
 7    1  0.4915160E-006  0.6064414E+02  0.7818608E-02  0.1509575E+00
          2   -1    0    0  502    0  0.00000000000E+00  0.00000000000E+00  0.74954015630E+03  0.74954015630E+03  0.00000000000E+00 0. -1.
          1   -1    0    0  501    0 -0.00000000000E+00 -0.00000000000E+00 -0.22822155090E+02  0.22822155090E+02  0.00000000000E+00 0. -1.
         25    2    1    2    0    0  0.93678811361E+01 -0.60099031115E+02  0.61241158322E+03  0.62799087727E+03  0.12499977570E+03 0.  0.
          2    1    1    2  501    0  0.16747027754E+02  0.58944579281E+02  0.70994179412E+02  0.93782193809E+02  0.00000000000E+00 0. -1.
          1    1    1    2  502    0 -0.26114908890E+02  0.11544518342E+01  0.43312238575E+02  0.50589240316E+02  0.00000000000E+00 0. -1.
         22    1    3    3    0    0  0.14726457320E+02 -0.14062710449E+02  0.54936236784E+03  0.54973961070E+03  0.00000000000E+00 0.  1.
         22    1    3    3    0    0 -0.53585761835E+01 -0.46036320665E+02  0.63049215385E+02  0.78251266570E+02  0.00000000000E+00 0.  1.
</event>
<event>
 7    1  0.4915160E-006  0.2366211E+03  0.7818608E-02  0.1209572E+00
          2   -1    0    0  502    0  0.00000000000E+00  0.00000000000E+00  0.31827265938E+03  0.31827265938E+03  0.00000000000E+00 0. -1.
          1   -1    0    0  501    0 -0.00000000000E+00 -0.00000000000E+00 -0.10209095605E+04  0.10209095605E+04  0.00000000000E+00 0. -1.
         25    2    1    2    0    0 -0.28619073813E+03  0.94246601307E+02 -0.22697302058E+03  0.39740452776E+03  0.12500418459E+03 0.  0.
          2    1    1    2  501    0  0.22019095757E+03 -0.38775773280E+02 -0.68223554446E+03  0.71793659645E+03  0.00000000000E+00 0. -1.
          1    1    1    2  502    0  0.65999780552E+02 -0.55470828026E+02  0.20657166390E+03  0.22384109570E+03  0.00000000000E+00 0. -1.
         22    1    3    3    0    0 -0.10005663547E+03  0.22054610783E+02 -0.15373975209E+03  0.18475293646E+03  0.00000000000E+00 0.  1.
         22    1    3    3    0    0 -0.18613410265E+03  0.72191990523E+02 -0.73233268486E+02  0.21265159129E+03  0.00000000000E+00 0.  1.
</event>
<event>
 7    1  0.4915160E-006  0.6540875E+02  0.7818608E-02  0.1493694E+00
          2   -1    0    0  502    0  0.00000000000E+00  0.00000000000E+00  0.16739973169E+04  0.16739973169E+04  0.00000000000E+00 0. -1.
          1   -1    0    0  501    0 -0.00000000000E+00 -0.00000000000E+00 -0.10126061742E+04  0.10126061742E+04  0.00000000000E+00 0. -1.
         25    2    1    2    0    0  0.48644563424E+02  0.12603994993E+02  0.61024137469E+03  0.62493432904E+03  0.12499290373E+03 0.  0.
          2    1    1    2  501    0 -0.52263160384E+02 -0.39384612419E+02 -0.10040214697E+04  0.10061519256E+04  0.00000000000E+00 0. -1.
          1    1    1    2  502    0  0.36185969605E+01  0.26780617426E+02  0.10551712377E+04  0.10555172366E+04  0.00000000000E+00 0. -1.
         22    1    3    3    0    0  0.18512299193E+02  0.16880037568E+01  0.55579473137E+01  0.19402199783E+02  0.00000000000E+00 0.  1.
         22    1    3    3    0    0  0.30132264231E+02  0.10915991237E+02  0.60468342738E+03  0.60553212925E+03  0.00000000000E+00 0.  1.
</event>
<event>
 7    1  0.4915160E-006  0.6863977E+02  0.7818608E-02  0.1456785E+00
          2   -1    0    0  502    0  0.00000000000E+00  0.00000000000E+00  0.25526372488E+02  0.25526372488E+02  0.00000000000E+00 0. -1.
          1   -1    0    0  501    0 -0.00000000000E+00 -0.00000000000E+00 -0.12292438806E+04  0.12292438806E+04  0.00000000000E+00 0. -1.
         25    2    1    2    0    0  0.79232071638E+02 -0.46190400770E+02 -0.71786193985E+03  0.73441345015E+03  0.12500430698E+03 0.  0.
          2    1    1    2  501    0 -0.60608177433E+02  0.18366553555E+02 -0.48257738544E+03  0.48671512654E+03  0.00000000000E+00 0. -1.
          1    1    1    2  502    0 -0.18623894205E+02  0.27823847214E+02 -0.32781828220E+01  0.33641676412E+02  0.00000000000E+00 0. -1.
         22    1    3    3    0    0  0.76619803195E+02  0.23527874100E+02 -0.47557069296E+03  0.48227755401E+03  0.00000000000E+00 0. -1.
         22    1    3    3    0    0  0.26122684430E+01 -0.69718274869E+02 -0.24229124690E+03  0.25213589614E+03  0.00000000000E+00 0. -1.
</event>
<event>
 7    1  0.4915160E-006  0.3010932E+02  0.7818608E-02  0.1636165E+00
          2   -1    0    0  502    0  0.00000000000E+00  0.00000000000E+00  0.26295671086E+04  0.26295671086E+04  0.00000000000E+00 0. -1.
          1   -1    0    0  501    0 -0.00000000000E+00 -0.00000000000E+00 -0.34969304534E+02  0.34969304534E+02  0.00000000000E+00 0. -1.
         25    2    1    2    0    0  0.14172497795E+02  0.48305997995E+02  0.11516826446E+04  0.11595397212E+04  0.12500048882E+03 0.  0.
          2    1    1    2  501    0 -0.17161217194E+02 -0.24604686763E+02 -0.23672996812E+02  0.38213986502E+02  0.00000000000E+00 0. -1.
          1    1    1    2  502    0  0.29887193990E+01 -0.23701311232E+02  0.14665881563E+04  0.14667827054E+04  0.00000000000E+00 0. -1.
         22    1    3    3    0    0 -0.55069299236E+02  0.31595018260E+02  0.52901776541E+03  0.53281391593E+03  0.00000000000E+00 0. -1.
         22    1    3    3    0    0  0.69241797031E+02  0.16710979735E+02  0.62266487915E+03  0.62672580530E+03  0.00000000000E+00 0. -1.
</event>
<event>
 7    1  0.4915160E-006  0.1110248E+03  0.7818608E-02  0.1306741E+00
          2   -1    0    0  502    0  0.00000000000E+00  0.00000000000E+00  0.76918544504E+03  0.76918544504E+03  0.00000000000E+00 0. -1.
          1   -1    0    0  501    0 -0.00000000000E+00 -0.00000000000E+00 -0.59519618826E+03  0.59519618826E+03  0.00000000000E+00 0. -1.
         25    2    1    2    0    0  0.15731045432E+03 -0.76076990705E+02  0.17758743512E+03  0.27872781287E+03  0.12497043250E+03 0.  0.
          2    1    1    2  501    0 -0.65428463734E+02  0.26003813791E+02 -0.53724790626E+03  0.54184166966E+03  0.00000000000E+00 0. -1.
          1    1    1    2  502    0 -0.91881990582E+02  0.50073176913E+02  0.53364972791E+03  0.54381215078E+03  0.00000000000E+00 0. -1.
         22    1    3    3    0    0  0.93248016865E+02 -0.10724101699E+03  0.13328834706E+03  0.19483739845E+03  0.00000000000E+00 0. -1.
         22    1    3    3    0    0  0.64062437451E+02  0.31164026290E+02  0.44299088067E+02  0.83890414413E+02  0.00000000000E+00 0. -1.
</event>
<event>
 7    1  0.4915160E-006  0.8173407E+02  0.7818608E-02  0.1415413E+00
          2   -1    0    0  502    0  0.00000000000E+00  0.00000000000E+00  0.98551175710E+03  0.98551175710E+03  0.00000000000E+00 0. -1.
          1   -1    0    0  501    0 -0.00000000000E+00 -0.00000000000E+00 -0.19317786800E+03  0.19317786800E+03  0.00000000000E+00 0. -1.
         25    2    1    2    0    0 -0.10695073671E+02 -0.67263158721E+02 -0.77396752485E+02  0.16203154586E+03  0.12500098974E+03 0.  0.
          2    1    1    2  501    0  0.46507323443E+02  0.81045750455E+02 -0.43183622905E+02  0.10293770003E+03  0.00000000000E+00 0. -1.
          1    1    1    2  502    0 -0.35812249772E+02 -0.13782591734E+02  0.91291426449E+03  0.91372037921E+03  0.00000000000E+00 0. -1.
         22    1    3    3    0    0  0.31734041868E+02 -0.69011444368E+02 -0.89967797720E+02  0.11774478117E+03  0.00000000000E+00 0.  1.
         22    1    3    3    0    0 -0.42429115540E+02  0.17482856471E+01  0.12571045235E+02  0.44286764688E+02  0.00000000000E+00 0.  1.
</event>
<event>
 7    1  0.4915160E-006  0.5098588E+02  0.7818608E-02  0.1461610E+00
          2   -1    0    0  502    0  0.00000000000E+00  0.00000000000E+00  0.35961172976E+03  0.35961172976E+03  0.00000000000E+00 0. -1.
          1   -1    0    0  501    0 -0.00000000000E+00 -0.00000000000E+00 -0.63783048126E+03  0.63783048126E+03  0.00000000000E+00 0. -1.
         25    2    1    2    0    0  0.75748421548E+02 -0.20522809349E+02  0.41859550645E+02  0.15340957429E+03  0.12499306554E+03 0.  0.
          2    1    1    2  501    0 -0.48905511799E+02 -0.13733298950E+02 -0.57912857510E+03  0.58135209562E+03  0.00000000000E+00 0. -1.
          1    1    1    2  502    0 -0.26842909750E+02  0.34256108300E+02  0.25905027295E+03  0.26268054111E+03  0.00000000000E+00 0. -1.
         22    1    3    3    0    0  0.32836330516E+02  0.22969396176E+02 -0.36391500428E+02  0.54130943700E+02  0.00000000000E+00 0. -1.
         22    1    3    3    0    0  0.42912091032E+02 -0.43492205525E+02  0.78251051073E+02  0.99278630592E+02  0.00000000000E+00 0. -1.
</event>
<event>
 7    1  0.4915160E-006  0.6363648E+02  0.7818608E-02  0.1481313E+00
          2   -1    0    0  502    0  0.00000000000E+00  0.00000000000E+00  0.79248878701E+03  0.79248878701E+03  0.00000000000E+00 0. -1.
          1   -1    0    0  501    0 -0.00000000000E+00 -0.00000000000E+00 -0.77997628516E+03  0.77997628516E+03  0.00000000000E+00 0. -1.
         25    2    1    2    0    0 -0.54112911911E+02  0.43703625749E+02  0.16700024819E+03  0.21989295991E+03  0.12500246712E+03 0.  0.
          2    1    1    2  501    0 -0.78961483436E+01 -0.29240385242E+02 -0.75153203495E+03  0.75214210681E+03  0.00000000000E+00 0. -1.
          1    1    1    2  502    0  0.62009060255E+02 -0.14463240507E+02  0.59704428861E+03  0.60043000544E+03  0.00000000000E+00 0. -1.
         22    1    3    3    0    0 -0.71112850995E+02 -0.17826818377E+02  0.57615013935E+02  0.93243352905E+02  0.00000000000E+00 0. -1.
         22    1    3    3    0    0  0.16999939084E+02  0.61530444126E+02  0.10938523425E+03  0.12664960701E+03  0.00000000000E+00 0. -1.
</event>
<event>
 7    1  0.4915160E-006  0.2375676E+03  0.7818608E-02  0.1203876E+00
          2   -1    0    0  502    0  0.00000000000E+00  0.00000000000E+00  0.19445962305E+04  0.19445962305E+04  0.00000000000E+00 0. -1.
          1   -1    0    0  501    0 -0.00000000000E+00 -0.00000000000E+00 -0.96279834689E+03  0.96279834689E+03  0.00000000000E+00 0. -1.
         25    2    1    2    0    0  0.21698025297E+03 -0.21863305095E+03  0.16437679750E+04  0.16770449022E+04  0.12500242848E+03 0.  0.
          2    1    1    2  501    0 -0.12768825053E+03  0.19965483161E+03 -0.92345878701E+03  0.95338474522E+03  0.00000000000E+00 0. -1.
          1    1    1    2  502    0 -0.89292002442E+02  0.18978219344E+02  0.26148869560E+03  0.27696492997E+03  0.00000000000E+00 0. -1.
         22    1    3    3    0    0 -0.81025197503E+01 -0.47466260040E+02  0.18806745838E+03  0.19413414324E+03  0.00000000000E+00 0.  1.
         22    1    3    3    0    0  0.22508277272E+03 -0.17116679091E+03  0.14557005166E+04  0.14829107589E+04  0.00000000000E+00 0.  1.
</event>
<event>
 7    1  0.4915160E-006  0.1218175E+03  0.7818608E-02  0.1353081E+00
          2   -1    0    0  502    0  0.00000000000E+00  0.00000000000E+00  0.53701824492E+03  0.53701824492E+03  0.00000000000E+00 0. -1.
          1   -1    0    0  501    0 -0.00000000000E+00 -0.00000000000E+00 -0.44031712136E+03  0.44031712136E+03  0.00000000000E+00 0. -1.
         25    2    1    2    0    0  0.43325711255E+02  0.96838168947E+02  0.20816138407E+03  0.26497364343E+03  0.12500048669E+03 0.  0.
          2    1    1    2  501    0 -0.90938730713E+01 -0.12232606074E+03 -0.40118085787E+03  0.41951453418E+03  0.00000000000E+00 0. -1.
          1    1    1    2  502    0 -0.34231838184E+02  0.25487891796E+02  0.28972059737E+03  0.29284718867E+03  0.00000000000E+00 0. -1.
         22    1    3    3    0    0 -0.61429852461E+01  0.40702915690E+02 -0.26786863135E+01  0.41250926945E+02  0.00000000000E+00 0.  1.
         22    1    3    3    0    0  0.49468696502E+02  0.56135253257E+02  0.21084007038E+03  0.22372271648E+03  0.00000000000E+00 0.  1.
</event>
<event>
 7    1  0.4915160E-006  0.2480358E+03  0.7818608E-02  0.1138134E+00
          2   -1    0    0  502    0  0.00000000000E+00  0.00000000000E+00  0.24663198689E+03  0.24663198689E+03  0.00000000000E+00 0. -1.
          1   -1    0    0  501    0 -0.00000000000E+00 -0.00000000000E+00 -0.10813577674E+04  0.10813577674E+04  0.00000000000E+00 0. -1.
         25    2    1    2    0    0  0.70130749150E+02  0.45077875337E+02 -0.65674663774E+02  0.16397833018E+03  0.12500157793E+03 0.  0.
          2    1    1    2  501    0  0.98988438246E+02  0.22742696215E+03 -0.80400399440E+03  0.84139417459E+03  0.00000000000E+00 0. -1.
          1    1    1    2  502    0 -0.16911918740E+03 -0.27250483749E+03  0.34952877704E+02  0.32261724948E+03  0.00000000000E+00 0. -1.
         22    1    3    3    0    0 -0.78046918202E+01  0.67562986550E+02 -0.20015886376E+02  0.70896446127E+02  0.00000000000E+00 0. -1.
         22    1    3    3    0    0  0.77935440970E+02 -0.22485111213E+02 -0.45658777398E+02  0.93081884053E+02  0.00000000000E+00 0. -1.
</event>
<event>
 7    1  0.4915160E-006  0.5396415E+02  0.7818608E-02  0.1485242E+00
          2   -1    0    0  502    0  0.00000000000E+00  0.00000000000E+00  0.34820433213E+02  0.34820433213E+02  0.00000000000E+00 0. -1.
          1   -1    0    0  501    0 -0.00000000000E+00 -0.00000000000E+00 -0.11050548855E+04  0.11050548855E+04  0.00000000000E+00 0. -1.
         25    2    1    2    0    0  0.16755836540E+02 -0.69582014036E+02 -0.61679013242E+03  0.63339062266E+03  0.12502479229E+03 0.  0.
          2    1    1    2  501    0 -0.33966773904E+02  0.39401117848E+02 -0.46648344202E+03  0.46937510745E+03  0.00000000000E+00 0. -1.
          1    1    1    2  502    0  0.17210937363E+02  0.30180896188E+02  0.13039122152E+02  0.37109588601E+02  0.00000000000E+00 0. -1.
         22    1    3    3    0    0  0.62279621339E+02 -0.56643088275E+01 -0.21055650193E+03  0.21964716282E+03  0.00000000000E+00 0.  1.
         22    1    3    3    0    0 -0.45523784799E+02 -0.63917705209E+02 -0.40623363048E+03  0.41374345984E+03  0.00000000000E+00 0.  1.
</event>
<event>
 7    1  0.4915160E-006  0.1248147E+03  0.7818608E-02  0.1282922E+00
          2   -1    0    0  502    0  0.00000000000E+00  0.00000000000E+00  0.13739527908E+04  0.13739527908E+04  0.00000000000E+00 0. -1.
          1   -1    0    0  501    0 -0.00000000000E+00 -0.00000000000E+00 -0.54629597775E+03  0.54629597775E+03  0.00000000000E+00 0. -1.
         25    2    1    2    0    0  0.26146610786E+02 -0.15642865959E+03  0.15222141987E+02  0.20250912147E+03  0.12499863949E+03 0.  0.
          2    1    1    2  501    0  0.51173577665E+02  0.59060688511E+02 -0.44619353000E+03  0.45298517216E+03  0.00000000000E+00 0. -1.
          1    1    1    2  502    0 -0.77320188451E+02  0.97367971081E+02  0.12586282011E+04  0.12647544750E+04  0.00000000000E+00 0. -1.
         22    1    3    3    0    0 -0.34991326024E+02 -0.53002187623E+02  0.46077506296E+02  0.78465032825E+02  0.00000000000E+00 0. -1.
         22    1    3    3    0    0  0.61137936811E+02 -0.10342647197E+03 -0.30855364309E+02  0.12404408865E+03  0.00000000000E+00 0. -1.
</event>
<event>
 7    1  0.4915160E-006  0.9700606E+02  0.7818608E-02  0.1413738E+00
          2   -1    0    0  502    0  0.00000000000E+00  0.00000000000E+00  0.11127362139E+03  0.11127362139E+03  0.00000000000E+00 0. -1.
          1   -1    0    0  501    0 -0.00000000000E+00 -0.00000000000E+00 -0.20786104270E+04  0.20786104270E+04  0.00000000000E+00 0. -1.
         25    2    1    2    0    0  0.10232529401E+02 -0.69883301961E+02 -0.10468286682E+03  0.17768335715E+03  0.12499796900E+03 0.  0.
          2    1    1    2  501    0 -0.34771173755E+02  0.91578869297E+02 -0.19325392798E+04  0.19350203595E+04  0.00000000000E+00 0. -1.
          1    1    1    2  502    0  0.24538644354E+02 -0.21695567336E+02  0.69885341024E+02  0.77180331684E+02  0.00000000000E+00 0. -1.
         22    1    3    3    0    0 -0.68391894937E+01 -0.78441117170E+02 -0.80130603032E+01  0.79145388440E+02  0.00000000000E+00 0.  1.
         22    1    3    3    0    0  0.17071718895E+02  0.85578152095E+01 -0.96669806512E+02  0.98537968714E+02  0.00000000000E+00 0.  1.
</event>
<event>
 7    1  0.4915160E-006  0.1247406E+03  0.7818608E-02  0.1242875E+00
          2   -1    0    0  502    0  0.00000000000E+00  0.00000000000E+00  0.16099435320E+04  0.16099435320E+04  0.00000000000E+00 0. -1.
          1   -1    0    0  501    0 -0.00000000000E+00 -0.00000000000E+00 -0.24094743971E+04  0.24094743971E+04  0.00000000000E+00 0. -1.
         25    2    1    2    0    0 -0.16895661557E+03  0.15881441721E+03  0.28603646090E+02  0.26497279384E+03  0.12499622332E+03 0.  0.
          2    1    1    2  501    0  0.10767927358E+03 -0.60675731855E+02 -0.22873315577E+04  0.22906684669E+04  0.00000000000E+00 0. -1.
          1    1    1    2  502    0  0.61277341985E+02 -0.98138685357E+02  0.14591970466E+04  0.14637766684E+04  0.00000000000E+00 0. -1.
         22    1    3    3    0    0 -0.83705247106E+02  0.31641296158E+02  0.61232787916E+02  0.10843059684E+03  0.00000000000E+00 0.  1.
         22    1    3    3    0    0 -0.85251368463E+02  0.12717312105E+03 -0.32629141826E+02  0.15654219699E+03  0.00000000000E+00 0.  1.
</event>
<event>
 7    1  0.4915160E-006  0.7291895E+02  0.7818608E-02  0.1415492E+00
          2   -1    0    0  502    0  0.00000000000E+00  0.00000000000E+00  0.40506194413E+02  0.40506194413E+02  0.00000000000E+00 0. -1.
          1   -1    0    0  501    0 -0.00000000000E+00 -0.00000000000E+00 -0.10655104823E+04  0.10655104823E+04  0.00000000000E+00 0. -1.
         25    2    1    2    0    0  0.35542123699E+02 -0.87129290420E+01 -0.46452438516E+03  0.48243802800E+03  0.12499755501E+03 0.  0.
          2    1    1    2  501    0  0.41108295575E+02  0.12563952205E+02 -0.54321561582E+03  0.54491370889E+03  0.00000000000E+00 0. -1.
          1    1    1    2  502    0 -0.76650419274E+02 -0.38510231632E+01 -0.17264286889E+02  0.78664939815E+02  0.00000000000E+00 0. -1.
         22    1    3    3    0    0  0.77298001806E+01 -0.41087772187E+02 -0.41482729433E+03  0.41692881761E+03  0.00000000000E+00 0.  1.
         22    1    3    3    0    0  0.27812323519E+02  0.32374843145E+02 -0.49697090832E+02  0.65509210386E+02  0.00000000000E+00 0.  1.
</event>
<event>
 7    1  0.4915160E-006  0.1124692E+03  0.7818608E-02  0.1318458E+00
          2   -1    0    0  502    0  0.00000000000E+00  0.00000000000E+00  0.50274536158E+03  0.50274536158E+03  0.00000000000E+00 0. -1.
          1   -1    0    0  501    0 -0.00000000000E+00 -0.00000000000E+00 -0.55489208417E+03  0.55489208417E+03  0.00000000000E+00 0. -1.
         25    2    1    2    0    0  0.12934435404E+02 -0.64321097036E+02  0.16045925417E+01  0.14117596206E+03  0.12499429748E+03 0.  0.
          2    1    1    2  501    0  0.51918700511E+02 -0.34828379122E+02 -0.47488362299E+03  0.47898123433E+03  0.00000000000E+00 0. -1.
          1    1    1    2  502    0 -0.64853135914E+02  0.99149476158E+02  0.42113230786E+03  0.43748024936E+03  0.00000000000E+00 0. -1.
         22    1    3    3    0    0  0.62349860190E+02 -0.46041208833E+02 -0.25927032647E+02  0.81728263155E+02  0.00000000000E+00 0.  1.
         22    1    3    3    0    0 -0.49415424786E+02 -0.18279888203E+02  0.27531625189E+02  0.59447698905E+02  0.00000000000E+00 0.  1.
</event>
<event>
 7    1  0.4915160E-006  0.1065824E+03  0.7818608E-02  0.1377541E+00
          2   -1    0    0  502    0  0.00000000000E+00  0.00000000000E+00  0.25561334395E+03  0.25561334395E+03  0.00000000000E+00 0. -1.
          1   -1    0    0  501    0 -0.00000000000E+00 -0.00000000000E+00 -0.48582631919E+03  0.48582631919E+03  0.00000000000E+00 0. -1.
         25    2    1    2    0    0  0.10403258000E+03 -0.38716384549E+02 -0.20059677596E+02  0.16836947606E+03  0.12499661464E+03 0.  0.
          2    1    1    2  501    0  0.28548345008E+01  0.39678044461E+02 -0.37472538195E+03  0.37683100877E+03  0.00000000000E+00 0. -1.
          1    1    1    2  502    0 -0.10688741450E+03 -0.96165991228E+00  0.16457208431E+03  0.19623917831E+03  0.00000000000E+00 0. -1.
         22    1    3    3    0    0  0.24857757363E+02  0.39930933754E+02  0.18143201582E+02  0.50413920055E+02  0.00000000000E+00 0.  1.
         22    1    3    3    0    0  0.79174822637E+02 -0.78647318303E+02 -0.38202879178E+02  0.11795555601E+03  0.00000000000E+00 0.  1.
</event>
<event>
 7    1  0.4915160E-006  0.1221221E+03  0.7818608E-02  0.1309283E+00
          2   -1    0    0  502    0  0.00000000000E+00  0.00000000000E+00  0.27223583821E+03  0.27223583821E+03  0.00000000000E+00 0. -1.
          1   -1    0    0  501    0 -0.00000000000E+00 -0.00000000000E+00 -0.41183795724E+03  0.41183795724E+03  0.00000000000E+00 0. -1.
         25    2    1    2    0    0  0.78232087187E+02  0.39152067608E+02 -0.23758618192E+02  0.15441308786E+03  0.12500314357E+03 0.  0.
          2    1    1    2  501    0 -0.82206917010E+02 -0.10157008201E+03 -0.30426126730E+03  0.33113347391E+03  0.00000000000E+00 0. -1.
          1    1    1    2  502    0  0.39748298229E+01  0.62418014404E+02  0.18841776646E+03  0.19852723368E+03  0.00000000000E+00 0. -1.
         22    1    3    3    0    0  0.32436097574E+02 -0.45393058718E+00 -0.70709335585E+02  0.77795350874E+02  0.00000000000E+00 0.  1.
         22    1    3    3    0    0  0.45795989614E+02  0.39605998195E+02  0.46950717393E+02  0.76617736989E+02  0.00000000000E+00 0.  1.
</event>
<event>
 7    1  0.4915160E-006  0.7869138E+02  0.7818608E-02  0.1438325E+00
          2   -1    0    0  502    0  0.00000000000E+00  0.00000000000E+00  0.55400660857E+03  0.55400660857E+03  0.00000000000E+00 0. -1.
          1   -1    0    0  501    0 -0.00000000000E+00 -0.00000000000E+00 -0.13808070745E+04  0.13808070745E+04  0.00000000000E+00 0. -1.
         25    2    1    2    0    0  0.29113870161E+02 -0.94629200185E+02 -0.25807412876E+03  0.30336595852E+03  0.12500538345E+03 0.  0.
          2    1    1    2  501    0  0.15220838490E+02  0.29814793875E+02 -0.10969290361E+04  0.10974397050E+04  0.00000000000E+00 0. -1.
          1    1    1    2  502    0 -0.44334708651E+02  0.64814406310E+02  0.52820269899E+03  0.53400801949E+03  0.00000000000E+00 0. -1.
         22    1    3    3    0    0  0.87721669799E+01  0.22500406095E+02 -0.63342877281E+01  0.24966825769E+02  0.00000000000E+00 0.  1.
         22    1    3    3    0    0  0.20341703181E+02 -0.11712960628E+03 -0.25173984103E+03  0.27839913275E+03  0.00000000000E+00 0.  1.
</event>
<event>
 7    1  0.4915160E-006  0.9217779E+02  0.7818608E-02  0.1344556E+00
          2   -1    0    0  502    0  0.00000000000E+00  0.00000000000E+00  0.45875933390E+03  0.45875933390E+03  0.00000000000E+00 0. -1.
          1   -1    0    0  501    0 -0.00000000000E+00 -0.00000000000E+00 -0.81173690733E+03  0.81173690733E+03  0.00000000000E+00 0. -1.
         25    2    1    2    0    0 -0.90044359868E+02  0.97533343491E+02 -0.21040925801E+03  0.27841878572E+03  0.12499689816E+03 0.  0.
          2    1    1    2  501    0  0.63739794366E+01 -0.60328695616E+02 -0.56073263124E+03  0.56400466565E+03  0.00000000000E+00 0. -1.
          1    1    1    2  502    0  0.83670380431E+02 -0.37204647875E+02  0.41816431583E+03  0.42807278986E+03  0.00000000000E+00 0. -1.
         22    1    3    3    0    0  0.23111326072E+02  0.34224627786E+02 -0.15066272054E+02  0.43959653018E+02  0.00000000000E+00 0. -1.
         22    1    3    3    0    0 -0.11315568594E+03  0.63308715705E+02 -0.19534298596E+03  0.23445913270E+03  0.00000000000E+00 0. -1.
</event>
<event>
 7    1  0.4915160E-006  0.1352308E+03  0.7818608E-02  0.1330055E+00
          2   -1    0    0  502    0  0.00000000000E+00  0.00000000000E+00  0.13760761268E+04  0.13760761268E+04  0.00000000000E+00 0. -1.
          1   -1    0    0  501    0 -0.00000000000E+00 -0.00000000000E+00 -0.16084258913E+03  0.16084258913E+03  0.00000000000E+00 0. -1.
         25    2    1    2    0    0 -0.62428164486E+02 -0.15251723883E+03  0.43701139117E+03  0.48348885860E+03  0.12499494595E+03 0.  0.
          2    1    1    2  501    0  0.20297814342E+02  0.13188671123E+03 -0.10448365481E+03  0.16947843517E+03  0.00000000000E+00 0. -1.
          1    1    1    2  502    0  0.42130350145E+02  0.20630527604E+02  0.88270580127E+03  0.88395142212E+03  0.00000000000E+00 0. -1.
         22    1    3    3    0    0 -0.80676832482E+02 -0.15015627808E+03  0.43200695402E+03  0.46441971046E+03  0.00000000000E+00 0.  1.
         22    1    3    3    0    0  0.18248667995E+02 -0.23609607497E+01  0.50044371509E+01  0.19069148132E+02  0.00000000000E+00 0.  1.
</event>
<event>
 7    1  0.4915160E-006  0.8809596E+02  0.7818608E-02  0.1327376E+00
          2   -1    0    0  502    0  0.00000000000E+00  0.00000000000E+00  0.68915819183E+02  0.68915819183E+02  0.00000000000E+00 0. -1.
          1   -1    0    0  501    0 -0.00000000000E+00 -0.00000000000E+00 -0.10717590424E+04  0.10717590424E+04  0.00000000000E+00 0. -1.
         25    2    1    2    0    0  0.81379440662E+02  0.46882859194E+01 -0.45216066752E+03  0.47615366110E+03  0.12501378462E+03 0.  0.
          2    1    1    2  501    0 -0.27404413280E+02  0.68447273907E+02 -0.56734049760E+03  0.57211124039E+03  0.00000000000E+00 0. -1.
          1    1    1    2  502    0 -0.53975027382E+02 -0.73135559826E+02  0.16657941911E+02  0.92409960073E+02  0.00000000000E+00 0. -1.
         22    1    3    3    0    0  0.99283253222E+02 -0.31511901775E+02 -0.26611274685E+03  0.28577291397E+03  0.00000000000E+00 0.  1.
         22    1    3    3    0    0 -0.17903812560E+02  0.36200187694E+02 -0.18604792067E+03  0.19038074713E+03  0.00000000000E+00 0.  1.
</event>
<event>
 7    1  0.4915160E-006  0.5223708E+02  0.7818608E-02  0.1469269E+00
          2   -1    0    0  502    0  0.00000000000E+00  0.00000000000E+00  0.61262211165E+03  0.61262211165E+03  0.00000000000E+00 0. -1.
          1   -1    0    0  501    0 -0.00000000000E+00 -0.00000000000E+00 -0.11093691862E+03  0.11093691862E+03  0.00000000000E+00 0. -1.
         25    2    1    2    0    0 -0.22038349518E+02 -0.10434618511E+02  0.17909873919E+03  0.21976307393E+03  0.12499952068E+03 0.  0.
          2    1    1    2  501    0  0.18220817374E+02  0.50449276986E+02 -0.81580778042E+02  0.97634784171E+02  0.00000000000E+00 0. -1.
          1    1    1    2  502    0  0.38175321435E+01 -0.40014658476E+02  0.40416723189E+03  0.40616117217E+03  0.00000000000E+00 0. -1.
         22    1    3    3    0    0 -0.19805846292E+02 -0.67218072061E+02  0.89621729356E+02  0.11376552699E+03  0.00000000000E+00 0. -1.
         22    1    3    3    0    0 -0.22325032260E+01  0.56783453551E+02  0.89477009833E+02  0.10599754694E+03  0.00000000000E+00 0. -1.
</event>
<event>
 7    1  0.4915160E-006  0.4148538E+02  0.7818608E-02  0.1552168E+00
          2   -1    0    0  502    0  0.00000000000E+00  0.00000000000E+00  0.13008122450E+04  0.13008122450E+04  0.00000000000E+00 0. -1.
          1   -1    0    0  501    0 -0.00000000000E+00 -0.00000000000E+00 -0.29347673882E+03  0.29347673882E+03  0.00000000000E+00 0. -1.
         25    2    1    2    0    0 -0.29082027069E+02 -0.56704691450E+02 -0.11490308596E+03  0.18135614486E+03  0.12500458305E+03 0.  0.
          2    1    1    2  501    0  0.59503738521E+01  0.39447162352E+02 -0.14244200797E+03  0.14792299078E+03  0.00000000000E+00 0. -1.
          1    1    1    2  502    0  0.23131653217E+02  0.17257529098E+02  0.12646806001E+04  0.12650098482E+04  0.00000000000E+00 0. -1.
         22    1    3    3    0    0  0.44884777624E+02 -0.22354047411E+02 -0.14890637589E+02  0.52307530870E+02  0.00000000000E+00 0. -1.
         22    1    3    3    0    0 -0.73966804693E+02 -0.34350644039E+02 -0.10001244837E+03  0.12904861399E+03  0.00000000000E+00 0. -1.
</event>
<event>
 7    1  0.4915160E-006  0.1021893E+03  0.7818608E-02  0.1302023E+00
          2   -1    0    0  502    0  0.00000000000E+00  0.00000000000E+00  0.72558197424E+02  0.72558197424E+02  0.00000000000E+00 0. -1.
          1   -1    0    0  501    0 -0.00000000000E+00 -0.00000000000E+00 -0.11207021419E+04  0.11207021419E+04  0.00000000000E+00 0. -1.
         25    2    1    2    0    0 -0.94955915476E+02  0.31146833052E+02 -0.85782001620E+02  0.18157578026E+03  0.12499784431E+03 0.  0.
          2    1    1    2  501    0  0.45343318021E+02 -0.93739222446E+02 -0.91054184681E+03  0.91647668444E+03  0.00000000000E+00 0. -1.
          1    1    1    2  502    0  0.49612597456E+02  0.62592389394E+02 -0.51820096029E+02  0.95207874615E+02  0.00000000000E+00 0. -1.
         22    1    3    3    0    0 -0.21516345745E+02  0.20937078729E+02 -0.10144452621E+03  0.10579369688E+03  0.00000000000E+00 0. -1.
         22    1    3    3    0    0 -0.73439569731E+02  0.10209754324E+02  0.15662524593E+02  0.75782083386E+02  0.00000000000E+00 0. -1.
</event>
<event>
 7    1  0.4915160E-006  0.1126005E+03  0.7818608E-02  0.1353735E+00
          2   -1    0    0  502    0  0.00000000000E+00  0.00000000000E+00  0.16476742110E+04  0.16476742110E+04  0.00000000000E+00 0. -1.
          1   -1    0    0  501    0 -0.00000000000E+00 -0.00000000000E+00 -0.13112772754E+03  0.13112772754E+03  0.00000000000E+00 0. -1.
         25    2    1    2    0    0  0.49429929197E+02  0.52128166691E+02  0.24193039440E+03  0.28163054627E+03  0.12499914079E+03 0.  0.
          2    1    1    2  501    0 -0.75848943926E+02 -0.89682702103E+02 -0.79785207425E+02  0.14199200215E+03  0.00000000000E+00 0. -1.
          1    1    1    2  502    0  0.26419014729E+02  0.37554535412E+02  0.13544012965E+04  0.13551793901E+04  0.00000000000E+00 0. -1.
         22    1    3    3    0    0  0.32823155653E+02  0.45660328888E+02  0.25397130704E+03  0.26012237501E+03  0.00000000000E+00 0.  1.
         22    1    3    3    0    0  0.16606773544E+02  0.64678378021E+01 -0.12040912649E+02  0.21508171256E+02  0.00000000000E+00 0.  1.
</event>
<event>
 7    1  0.4915160E-006  0.4890749E+02  0.7818608E-02  0.1504983E+00
          2   -1    0    0  502    0  0.00000000000E+00  0.00000000000E+00  0.61037469337E+02  0.61037469337E+02  0.00000000000E+00 0. -1.
          1   -1    0    0  501    0 -0.00000000000E+00 -0.00000000000E+00 -0.46133763925E+03  0.46133763925E+03  0.00000000000E+00 0. -1.
         25    2    1    2    0    0  0.73685409522E+02  0.26100837766E+02 -0.15053177242E+03  0.21068529276E+03  0.12497073566E+03 0.  0.
          2    1    1    2  501    0 -0.46562760310E+02 -0.65375173731E+01 -0.26902290035E+03  0.27310098991E+03  0.00000000000E+00 0. -1.
          1    1    1    2  502    0 -0.27122649212E+02 -0.19563320393E+02  0.19254502850E+02  0.38588825909E+02  0.00000000000E+00 0. -1.
         22    1    3    3    0    0 -0.17450530315E+02  0.35824958978E+02 -0.71088382471E+01  0.40478195060E+02  0.00000000000E+00 0.  1.
         22    1    3    3    0    0  0.91135939836E+02 -0.97241212126E+01 -0.14342293417E+03  0.17020709770E+03  0.00000000000E+00 0.  1.
</event>
<event>
 7    1  0.4915160E-006  0.6494860E+02  0.7818608E-02  0.1488670E+00
          2   -1    0    0  502    0  0.00000000000E+00  0.00000000000E+00  0.99061500753E+03  0.99061500753E+03  0.00000000000E+00 0. -1.
          1   -1    0    0  501    0 -0.00000000000E+00 -0.00000000000E+00 -0.12589736245E+04  0.12589736245E+04  0.00000000000E+00 0. -1.
         25    2    1    2    0    0 -0.45682515154E+02 -0.25392737270E+02  0.46229131871E+03  0.48173577069E+03  0.12499762444E+03 0.  0.
          2    1    1    2  501    0  0.25679696883E+01 -0.28066006662E+02 -0.12468176958E+04  0.12471361841E+04  0.00000000000E+00 0. -1.
          1    1    1    2  502    0  0.43114545465E+02  0.53458743932E+02  0.51616776012E+03  0.52071667721E+03  0.00000000000E+00 0. -1.
         22    1    3    3    0    0  0.64757134923E+01 -0.71748199535E+00 -0.66196033872E+01  0.92880996254E+01  0.00000000000E+00 0.  1.
         22    1    3    3    0    0 -0.52158228646E+02 -0.24675255275E+02  0.46891092209E+03  0.47244767107E+03  0.00000000000E+00 0.  1.
</event>
<event>
 7    1  0.4915160E-006  0.5878156E+02  0.7818608E-02  0.1438556E+00
          2   -1    0    0  502    0  0.00000000000E+00  0.00000000000E+00  0.54796323561E+03  0.54796323561E+03  0.00000000000E+00 0. -1.
          1   -1    0    0  501    0 -0.00000000000E+00 -0.00000000000E+00 -0.20209412531E+03  0.20209412531E+03  0.00000000000E+00 0. -1.
         25    2    1    2    0    0 -0.55900969024E+02 -0.57829318355E+01 -0.12934146408E+03  0.18846250230E+03  0.12502215725E+03 0.  0.
          2    1    1    2  501    0  0.19204516212E+02 -0.40404309078E+02 -0.29410261170E+02  0.53537697906E+02  0.00000000000E+00 0. -1.
          1    1    1    2  502    0  0.36696452812E+02  0.46187240913E+02  0.50462083556E+03  0.50805716071E+03  0.00000000000E+00 0. -1.
         22    1    3    3    0    0 -0.68533544182E+02  0.25338060884E+00 -0.14918679439E+03  0.16417554782E+03  0.00000000000E+00 0. -1.
         22    1    3    3    0    0  0.12632575158E+02 -0.60363124443E+01  0.19845330309E+02  0.24286954484E+02  0.00000000000E+00 0. -1.
</event>
<event>
 7    1  0.4915160E-006  0.1612426E+03  0.7818608E-02  0.1206860E+00
          2   -1    0    0  502    0  0.00000000000E+00  0.00000000000E+00  0.22627488547E+03  0.22627488547E+03  0.00000000000E+00 0. -1.
          1   -1    0    0  501    0 -0.00000000000E+00 -0.00000000000E+00 -0.40753291747E+03  0.40753291747E+03  0.00000000000E+00 0. -1.
         25    2    1    2    0    0 -0.38146609230E+02 -0.92759568013E+02 -0.47191526934E+02  0.16706953942E+03  0.12500275811E+03 0.  0.
          2    1    1    2  501    0  0.16222992137E+03  0.13235163653E+03 -0.22541715279E+03  0.30764979416E+03  0.00000000000E+00 0. -1.
          1    1    1    2  502    0 -0.12408331214E+03 -0.39592068517E+02  0.91350647728E+02  0.15908846935E+03  0.00000000000E+00 0. -1.
         22    1    3    3    0    0  0.34665777860E+02 -0.78831001170E+02 -0.26569917128E+02  0.90122158187E+02  0.00000000000E+00 0. -1.
         22    1    3    3    0    0 -0.72812387091E+02 -0.13928566843E+02 -0.20621609806E+02  0.76947381236E+02  0.00000000000E+00 0. -1.
</event>
<event>
 7    1  0.4915160E-006  0.1791661E+03  0.7818608E-02  0.1388964E+00
          2   -1    0    0  502    0  0.00000000000E+00  0.00000000000E+00  0.94822233013E+03  0.94822233013E+03  0.00000000000E+00 0. -1.
          1   -1    0    0  501    0 -0.00000000000E+00 -0.00000000000E+00 -0.15236948611E+04  0.15236948611E+04  0.00000000000E+00 0. -1.
         25    2    1    2    0    0  0.18228044032E+02 -0.15943529786E+03  0.54994785609E+02  0.21071478259E+03  0.12499766944E+03 0.  0.
          2    1    1    2  501    0 -0.22048285486E+01 -0.21456413983E+02 -0.14356412855E+04  0.14358033081E+04  0.00000000000E+00 0. -1.
          1    1    1    2  502    0 -0.16023215483E+02  0.18089171184E+03  0.80517396894E+03  0.82539910050E+03  0.00000000000E+00 0. -1.
         22    1    3    3    0    0  0.51178356321E+02 -0.59014307468E+02 -0.20586145018E+02  0.80781817313E+02  0.00000000000E+00 0. -1.
         22    1    3    3    0    0 -0.32950312289E+02 -0.10042099039E+03  0.75580930627E+02  0.12993296528E+03  0.00000000000E+00 0. -1.
</event>
<event>
 7    1  0.4915160E-006  0.1580567E+03  0.7818608E-02  0.1368000E+00
          2   -1    0    0  502    0  0.00000000000E+00  0.00000000000E+00  0.20107589063E+04  0.20107589063E+04  0.00000000000E+00 0. -1.
          1   -1    0    0  501    0 -0.00000000000E+00 -0.00000000000E+00 -0.11373008145E+04  0.11373008145E+04  0.00000000000E+00 0. -1.
         25    2    1    2    0    0  0.16641275903E+03 -0.38302682821E+01  0.10827168795E+03  0.23464020461E+03  0.12500155954E+03 0.  0.
          2    1    1    2  501    0 -0.10407057230E+02  0.27090163952E+02 -0.10705380047E+04  0.10709312786E+04  0.00000000000E+00 0. -1.
          1    1    1    2  502    0 -0.15600570180E+03 -0.23259895670E+02  0.18357244086E+04  0.18424882377E+04  0.00000000000E+00 0. -1.
         22    1    3    3    0    0  0.54330701651E+02  0.21512274521E+02 -0.20616445126E+02  0.61964836049E+02  0.00000000000E+00 0.  1.
         22    1    3    3    0    0  0.11208205738E+03 -0.25342542803E+02  0.12888813307E+03  0.17267536856E+03  0.00000000000E+00 0.  1.
</event>
<event>
 7    1  0.4915160E-006  0.1362880E+03  0.7818608E-02  0.1243137E+00
          2   -1    0    0  502    0  0.00000000000E+00  0.00000000000E+00  0.85290548922E+03  0.85290548922E+03  0.00000000000E+00 0. -1.
          1   -1    0    0  501    0 -0.00000000000E+00 -0.00000000000E+00 -0.11447306111E+03  0.11447306111E+03  0.00000000000E+00 0. -1.
         25    2    1    2    0    0 -0.58908365597E+02  0.65114673956E+02  0.31985180322E+02  0.15607050870E+03  0.12499934250E+03 0.  0.
          2    1    1    2  501    0 -0.86339051278E+02 -0.60829480743E+02  0.17318991144E+02  0.10702618818E+03  0.00000000000E+00 0. -1.
          1    1    1    2  502    0  0.14524741688E+03 -0.42851932136E+01  0.68912825664E+03  0.70428185344E+03  0.00000000000E+00 0. -1.
         22    1    3    3    0    0 -0.14560615160E+01  0.65949163175E+02  0.62621130343E+02  0.90955033967E+02  0.00000000000E+00 0. -1.
         22    1    3    3    0    0 -0.57452304081E+02 -0.83448921855E+00 -0.30635950021E+02  0.65115474737E+02  0.00000000000E+00 0. -1.
</event>
<event>
 7    1  0.4915160E-006  0.2737734E+02  0.7818608E-02  0.1632566E+00
          2   -1    0    0  502    0  0.00000000000E+00  0.00000000000E+00  0.37053612908E+02  0.37053612908E+02  0.00000000000E+00 0. -1.
          1   -1    0    0  501    0 -0.00000000000E+00 -0.00000000000E+00 -0.87840928144E+03  0.87840928144E+03  0.00000000000E+00 0. -1.
         25    2    1    2    0    0  0.23213208669E+02  0.17007658593E+02 -0.36870952485E+03  0.39038594532E+03  0.12500543620E+03 0.  0.
          2    1    1    2  501    0 -0.24659789905E+02  0.10553162896E+02 -0.49112896925E+03  0.49186089388E+03  0.00000000000E+00 0. -1.
          1    1    1    2  502    0  0.14465812362E+01 -0.27560821489E+02  0.18482825576E+02  0.33216055149E+02  0.00000000000E+00 0. -1.
         22    1    3    3    0    0  0.73652161932E+02  0.30545340356E+01 -0.25025224513E+03  0.26088341712E+03  0.00000000000E+00 0.  1.
         22    1    3    3    0    0 -0.50438953263E+02  0.13953124557E+02 -0.11845727972E+03  0.12950252820E+03  0.00000000000E+00 0.  1.
</event>
<event>
 7    1  0.4915160E-006  0.5093301E+02  0.7818608E-02  0.1465660E+00
          2   -1    0    0  502    0  0.00000000000E+00  0.00000000000E+00  0.27384677899E+04  0.27384677899E+04  0.00000000000E+00 0. -1.
          1   -1    0    0  501    0 -0.00000000000E+00 -0.00000000000E+00 -0.18093166420E+04  0.18093166420E+04  0.00000000000E+00 0. -1.
         25    2    1    2    0    0 -0.74953181419E+02  0.80012931146E+01  0.12959582388E+02  0.14654181718E+03  0.12499821322E+03 0.  0.
          2    1    1    2  501    0  0.45628845475E+02  0.22496630394E+02 -0.17419858342E+04  0.17427285320E+04  0.00000000000E+00 0. -1.
          1    1    1    2  502    0  0.29324335945E+02 -0.30497923509E+02  0.26581773997E+04  0.26585140828E+04  0.00000000000E+00 0. -1.
         22    1    3    3    0    0 -0.95785603028E+02 -0.63112557571E+01  0.44763698750E+02  0.10591743210E+03  0.00000000000E+00 0.  1.
         22    1    3    3    0    0  0.20832421609E+02  0.14312548872E+02 -0.31804116362E+02  0.40624385077E+02  0.00000000000E+00 0.  1.
</event>
<event>
 7    1  0.4915160E-006  0.1041743E+03  0.7818608E-02  0.1383163E+00
          2   -1    0    0  502    0  0.00000000000E+00  0.00000000000E+00  0.26451355036E+04  0.26451355036E+04  0.00000000000E+00 0. -1.
          1   -1    0    0  501    0 -0.00000000000E+00 -0.00000000000E+00 -0.14695156927E+02  0.14695156927E+02  0.00000000000E+00 0. -1.
         25    2    1    2    0    0 -0.75652264247E+02  0.11248197829E+03  0.17363998405E+04  0.17461628031E+04  0.12499867194E+03 0.  0.
          2    1    1    2  501    0  0.44817080631E+02 -0.88804540778E+02  0.25910408136E+03  0.27754232499E+03  0.00000000000E+00 0. -1.
          1    1    1    2  502    0  0.30835183616E+02 -0.23677437514E+02  0.63493642474E+03  0.63612553247E+03  0.00000000000E+00 0. -1.
         22    1    3    3    0    0 -0.42402682449E+02 -0.19688791729E+02  0.35746028401E+03  0.36050449462E+03  0.00000000000E+00 0.  1.
         22    1    3    3    0    0 -0.33249581798E+02  0.13217077002E+03  0.13789395565E+04  0.13856583084E+04  0.00000000000E+00 0.  1.
</event>
<event>
 7    1  0.4915160E-006  0.5198062E+02  0.7818608E-02  0.1479563E+00
          2   -1    0    0  502    0  0.00000000000E+00  0.00000000000E+00  0.10300432179E+04  0.10300432179E+04  0.00000000000E+00 0. -1.
          1   -1    0    0  501    0 -0.00000000000E+00 -0.00000000000E+00 -0.71261904489E+02  0.71261904489E+02  0.00000000000E+00 0. -1.
         25    2    1    2    0    0 -0.11313036922E+02 -0.20721090694E+02  0.13045678715E+03  0.18221022091E+03  0.12499697151E+03 0.  0.
          2    1    1    2  501    0  0.20377551678E+02 -0.31528265637E+02 -0.36668897414E+02  0.52477463583E+02  0.00000000000E+00 0. -1.
          1    1    1    2  502    0 -0.90645147561E+01  0.52249356331E+02  0.86499342364E+03  0.86661743786E+03  0.00000000000E+00 0. -1.
         22    1    3    3    0    0  0.16722961181E+01  0.47642249929E+02  0.89664077253E+02  0.10154913738E+03  0.00000000000E+00 0.  1.
         22    1    3    3    0    0 -0.12985333040E+02 -0.68363340624E+02  0.40792709894E+02  0.80661083528E+02  0.00000000000E+00 0.  1.
</event>
<event>
 7    1  0.4915160E-006  0.1151509E+03  0.7818608E-02  0.1370236E+00
          2   -1    0    0  502    0  0.00000000000E+00  0.00000000000E+00  0.34944320122E+03  0.34944320122E+03  0.00000000000E+00 0. -1.
          1   -1    0    0  501    0 -0.00000000000E+00 -0.00000000000E+00 -0.30666688002E+04  0.30666688002E+04  0.00000000000E+00 0. -1.
         25    2    1    2    0    0 -0.99673574330E+02 -0.99705846217E+02 -0.86049581601E+03  0.88088239754E+03  0.12499868696E+03 0.  0.
          2    1    1    2  501    0  0.20873201193E+01  0.39046246246E+02 -0.21860705318E+04  0.21864202104E+04  0.00000000000E+00 0. -1.
          1    1    1    2  502    0  0.97586254211E+02  0.60659599971E+02  0.32934074890E+03  0.34880939346E+03  0.00000000000E+00 0. -1.
         22    1    3    3    0    0  0.18737845628E+02 -0.52704728722E+02 -0.36547349008E+03  0.36972931618E+03  0.00000000000E+00 0.  1.
         22    1    3    3    0    0 -0.11841141996E+03 -0.47001117495E+02 -0.49502232592E+03  0.51115308136E+03  0.00000000000E+00 0.  1.
</event>
<event>
 7    1  0.4915160E-006  0.5383586E+02  0.7818608E-02  0.1488658E+00
          2   -1    0    0  502    0  0.00000000000E+00  0.00000000000E+00  0.16675378612E+04  0.16675378612E+04  0.00000000000E+00 0. -1.
          1   -1    0    0  501    0 -0.00000000000E+00 -0.00000000000E+00 -0.31610918995E+03  0.31610918995E+03  0.00000000000E+00 0. -1.
         25    2    1    2    0    0  0.48548832517E+02 -0.44413308848E+02 -0.33134570394E+02  0.14509529776E+03  0.12500085814E+03 0.  0.
          2    1    1    2  501    0 -0.52590476443E+02  0.10650650389E+02 -0.22364102125E+03  0.22998804524E+03  0.00000000000E+00 0. -1.
          1    1    1    2  502    0  0.40416439263E+01  0.33762658459E+02  0.16082042629E+04  0.16085637082E+04  0.00000000000E+00 0. -1.
         22    1    3    3    0    0  0.37754541477E+02 -0.46188666864E+01 -0.76390362658E+02  0.85335964508E+02  0.00000000000E+00 0. -1.
         22    1    3    3    0    0  0.10794291040E+02 -0.39794442162E+02  0.43255792264E+02  0.59759333249E+02  0.00000000000E+00 0. -1.
</event>
<event>
 7    1  0.4915160E-006  0.7617178E+02  0.7818608E-02  0.1389286E+00
          2   -1    0    0  502    0  0.00000000000E+00  0.00000000000E+00  0.71679106432E+02  0.71679106432E+02  0.00000000000E+00 0. -1.
          1   -1    0    0  501    0 -0.00000000000E+00 -0.00000000000E+00 -0.57860221316E+03  0.57860221316E+03  0.00000000000E+00 0. -1.
         25    2    1    2    0    0 -0.69603890450E+02  0.69258088335E+02 -0.17541692008E+03  0.23672205292E+03  0.12499940050E+03 0.  0.
          2    1    1    2  501    0 -0.22942279717E+01 -0.50550676619E+02 -0.33537065475E+03  0.33916678856E+03  0.00000000000E+00 0. -1.
          1    1    1    2  502    0  0.71898118422E+02 -0.18707411716E+02  0.38644681093E+01  0.74392478111E+02  0.00000000000E+00 0. -1.
         22    1    3    3    0    0 -0.10462089022E+03  0.48588445512E+02 -0.14815526499E+03  0.18776674427E+03  0.00000000000E+00 0. -1.
         22    1    3    3    0    0  0.35016999771E+02  0.20669642823E+02 -0.27261655088E+02  0.48955308656E+02  0.00000000000E+00 0. -1.
</event>
<event>
 7    1  0.4915160E-006  0.7219041E+02  0.7818608E-02  0.1353203E+00
          2   -1    0    0  502    0  0.00000000000E+00  0.00000000000E+00  0.65486063844E+02  0.65486063844E+02  0.00000000000E+00 0. -1.
          1   -1    0    0  501    0 -0.00000000000E+00 -0.00000000000E+00 -0.66347688912E+03  0.66347688912E+03  0.00000000000E+00 0. -1.
         25    2    1    2    0    0  0.42510935736E+02  0.15783442259E+02 -0.22266633728E+03  0.25934828328E+03  0.12499975030E+03 0.  0.
          2    1    1    2  501    0 -0.65028427163E+02  0.52544785229E+02 -0.38770285262E+03  0.39661461487E+03  0.00000000000E+00 0. -1.
          1    1    1    2  502    0  0.22517491427E+02 -0.68328227488E+02  0.12378364631E+02  0.73000054813E+02  0.00000000000E+00 0. -1.
         22    1    3    3    0    0  0.10707743991E+02  0.57625546328E+02 -0.18664654956E+03  0.19563305916E+03  0.00000000000E+00 0.  1.
         22    1    3    3    0    0  0.31803191746E+02 -0.41842104069E+02 -0.36019787720E+02  0.63715224127E+02  0.00000000000E+00 0.  1.
</event>
<event>
 7    1  0.4915160E-006  0.4266235E+02  0.7818608E-02  0.1496739E+00
          2   -1    0    0  502    0  0.00000000000E+00  0.00000000000E+00  0.54609745477E+03  0.54609745477E+03  0.00000000000E+00 0. -1.
          1   -1    0    0  501    0 -0.00000000000E+00 -0.00000000000E+00 -0.91209172215E+03  0.91209172215E+03  0.00000000000E+00 0. -1.
         25    2    1    2    0    0  0.19475588388E+02  0.80235201259E+02 -0.27851592127E+03  0.31624618844E+03  0.12499418882E+03 0.  0.
          2    1    1    2  501    0 -0.48550041798E+01 -0.40277533647E+02 -0.61318084330E+03  0.61452143769E+03  0.00000000000E+00 0. -1.
          1    1    1    2  502    0 -0.14620584208E+02 -0.39957667613E+02  0.52570249719E+03  0.52742155079E+03  0.00000000000E+00 0. -1.
         22    1    3    3    0    0  0.22032054459E+02 -0.22584574054E+02 -0.14120211391E+03  0.14468417806E+03  0.00000000000E+00 0. -1.
         22    1    3    3    0    0 -0.25564660706E+01  0.10281977531E+03 -0.13731380736E+03  0.17156201038E+03  0.00000000000E+00 0. -1.
</event>
<event>
 7    1  0.4915160E-006  0.4803835E+02  0.7818608E-02  0.1564818E+00
          2   -1    0    0  502    0  0.00000000000E+00  0.00000000000E+00  0.90290419743E+03  0.90290419743E+03  0.00000000000E+00 0. -1.
          1   -1    0    0  501    0 -0.00000000000E+00 -0.00000000000E+00 -0.33575891363E+02  0.33575891363E+02  0.00000000000E+00 0. -1.
         25    2    1    2    0    0  0.58484363060E+02 -0.54827579051E+00  0.46810720617E+03  0.48802697820E+03  0.12500101460E+03 0.  0.
          2    1    1    2  501    0 -0.44012352143E+02  0.18423338046E+02  0.11552656546E+01  0.47726734276E+02  0.00000000000E+00 0. -1.
          1    1    1    2  502    0 -0.14472010917E+02 -0.17875062256E+02  0.40006583424E+03  0.40072637632E+03  0.00000000000E+00 0. -1.
         22    1    3    3    0    0  0.88698280122E+02 -0.26229203182E+02  0.25488466956E+03  0.27114857693E+03  0.00000000000E+00 0. -1.
         22    1    3    3    0    0 -0.30213917062E+02  0.25680927392E+02  0.21322253662E+03  0.21687840127E+03  0.00000000000E+00 0. -1.
</event>
<event>
 7    1  0.4915160E-006  0.1201042E+03  0.7818608E-02  0.1303117E+00
          2   -1    0    0  502    0  0.00000000000E+00  0.00000000000E+00  0.38149149611E+02  0.38149149611E+02  0.00000000000E+00 0. -1.
          1   -1    0    0  501    0 -0.00000000000E+00 -0.00000000000E+00 -0.37914528942E+04  0.37914528942E+04  0.00000000000E+00 0. -1.
         25    2    1    2    0    0 -0.46190557213E+02 -0.39315487746E+02 -0.30897590183E+04  0.30928818678E+04  0.12501272736E+03 0.  0.
          2    1    1    2  501    0 -0.17811543449E+02 -0.64876551516E+02 -0.59042678837E+03  0.59424743200E+03  0.00000000000E+00 0. -1.
          1    1    1    2  502    0  0.64002100662E+02  0.10419203926E+03 -0.73117937934E+02  0.14247274400E+03  0.00000000000E+00 0. -1.
         22    1    3    3    0    0 -0.47248974295E+02  0.96604724844E+01 -0.43402978951E+03  0.43670086843E+03  0.00000000000E+00 0. -1.
         22    1    3    3    0    0  0.10584170819E+01 -0.48975960230E+02 -0.26557292288E+04  0.26561809994E+04  0.00000000000E+00 0. -1.
</event>
<event>
 7    1  0.4915160E-006  0.1106207E+03  0.7818608E-02  0.1320198E+00
          2   -1    0    0  502    0  0.00000000000E+00  0.00000000000E+00  0.12156543538E+04  0.12156543538E+04  0.00000000000E+00 0. -1.
          1   -1    0    0  501    0 -0.00000000000E+00 -0.00000000000E+00 -0.16684052367E+03  0.16684052367E+03  0.00000000000E+00 0. -1.
         25    2    1    2    0    0  0.21747398906E+02  0.88043274353E+02  0.72437802258E+03  0.74065674106E+03  0.12499728379E+03 0.  0.
          2    1    1    2  501    0  0.38578386749E+02 -0.10469465972E+03 -0.13671175899E+03  0.17646350541E+03  0.00000000000E+00 0. -1.
          1    1    1    2  502    0 -0.60325785655E+02  0.16651385364E+02  0.46114756651E+03  0.46537463096E+03  0.00000000000E+00 0. -1.
         22    1    3    3    0    0  0.67067655309E+02  0.28675282470E+02  0.46695032435E+03  0.47261289406E+03  0.00000000000E+00 0. -1.
         22    1    3    3    0    0 -0.45320256403E+02  0.59367991883E+02  0.25742769823E+03  0.26804384700E+03  0.00000000000E+00 0. -1.
</event>
<event>
 7    1  0.4915160E-006  0.3669915E+02  0.7818608E-02  0.1621177E+00
          2   -1    0    0  502    0  0.00000000000E+00  0.00000000000E+00  0.87321140665E+03  0.87321140665E+03  0.00000000000E+00 0. -1.
          1   -1    0    0  501    0 -0.00000000000E+00 -0.00000000000E+00 -0.15400381233E+03  0.15400381233E+03  0.00000000000E+00 0. -1.
         25    2    1    2    0    0  0.14867064576E+02  0.43737464975E+02  0.29643131578E+03  0.32500868551E+03  0.12500050092E+03 0.  0.
          2    1    1    2  501    0 -0.19984532997E+02 -0.75963057401E+01 -0.13830071251E+03  0.13994346180E+03  0.00000000000E+00 0. -1.
          1    1    1    2  502    0  0.51174684209E+01 -0.36141159235E+02  0.56107699105E+03  0.56226307167E+03  0.00000000000E+00 0. -1.
         22    1    3    3    0    0 -0.38414683119E+02  0.48994882292E+02  0.23689204038E+03  0.24493677789E+03  0.00000000000E+00 0. -1.
         22    1    3    3    0    0  0.53281747694E+02 -0.52574173173E+01  0.59539275397E+02  0.80071907614E+02  0.00000000000E+00 0. -1.
</event>
<event>
 7    1  0.4915160E-006  0.3756524E+02  0.7818608E-02  0.1551798E+00
          2   -1    0    0  502    0  0.00000000000E+00  0.00000000000E+00  0.11172579881E+03  0.11172579881E+03  0.00000000000E+00 0. -1.
          1   -1    0    0  501    0 -0.00000000000E+00 -0.00000000000E+00 -0.77566790117E+03  0.77566790117E+03  0.00000000000E+00 0. -1.
         25    2    1    2    0    0  0.92117763584E+01  0.54205074550E+02 -0.28283295273E+02  0.13945481528E+03  0.12499861512E+03 0.  0.
          2    1    1    2  501    0  0.15606888209E+02 -0.34088821310E+02 -0.68670070037E+03  0.68772339977E+03  0.00000000000E+00 0. -1.
          1    1    1    2  502    0 -0.24818664568E+02 -0.20116253241E+02  0.51041893285E+02  0.60215484931E+02  0.00000000000E+00 0. -1.
         22    1    3    3    0    0  0.10280009420E+02  0.70912711241E+02 -0.66483913286E+02  0.97746621092E+02  0.00000000000E+00 0.  1.
         22    1    3    3    0    0 -0.10682330616E+01 -0.16707636690E+02  0.38200618013E+02  0.41708194186E+02  0.00000000000E+00 0.  1.
</event>
<event>
 7    1  0.4915160E-006  0.1020123E+03  0.7818608E-02  0.1371059E+00
          2   -1    0    0  502    0  0.00000000000E+00  0.00000000000E+00  0.26563173894E+04  0.26563173894E+04  0.00000000000E+00 0. -1.
          1   -1    0    0  501    0 -0.00000000000E+00 -0.00000000000E+00 -0.33109274681E+03  0.33109274681E+03  0.00000000000E+00 0. -1.
         25    2    1    2    0    0  0.33549734150E+02 -0.60836121380E+02 -0.58289206665E+02  0.15442788542E+03  0.12499488732E+03 0.  0.
          2    1    1    2  501    0 -0.39750426114E+02  0.10423407256E+03 -0.21069364018E+03  0.23840437972E+03  0.00000000000E+00 0. -1.
          1    1    1    2  502    0  0.62006919646E+01 -0.43397951178E+02  0.25942074895E+04  0.25945778711E+04  0.00000000000E+00 0. -1.
         22    1    3    3    0    0  0.20159664589E+02 -0.53749480611E+02 -0.97080526068E+02  0.11278318706E+03  0.00000000000E+00 0.  1.
         22    1    3    3    0    0  0.13390069560E+02 -0.70866407691E+01  0.38791319403E+02  0.41644698357E+02  0.00000000000E+00 0.  1.
</event>
<event>
 7    1  0.4915160E-006  0.7211553E+02  0.7818608E-02  0.1373557E+00
          2   -1    0    0  502    0  0.00000000000E+00  0.00000000000E+00  0.28756315857E+04  0.28756315857E+04  0.00000000000E+00 0. -1.
          1   -1    0    0  501    0 -0.00000000000E+00 -0.00000000000E+00 -0.28180890090E+03  0.28180890090E+03  0.00000000000E+00 0. -1.
         25    2    1    2    0    0 -0.42661376225E+02  0.12267703794E+03  0.58381575580E+01  0.18035778833E+03  0.12500079627E+03 0.  0.
          2    1    1    2  501    0  0.31964465503E+02 -0.51658203353E+02 -0.18933139881E+03  0.19883831523E+03  0.00000000000E+00 0. -1.
          1    1    1    2  502    0  0.10696910722E+02 -0.71018834584E+02  0.27773159261E+04  0.27782443830E+04  0.00000000000E+00 0. -1.
         22    1    3    3    0    0  0.17895970906E+02 -0.18920581379E+02  0.39612680864E+01  0.26342851388E+02  0.00000000000E+00 0. -1.
         22    1    3    3    0    0 -0.60557347131E+02  0.14159761932E+03  0.18768894717E+01  0.15401493694E+03  0.00000000000E+00 0. -1.
</event>
<event>
 7    1  0.4915160E-006  0.5210748E+02  0.7818608E-02  0.1456647E+00
          2   -1    0    0  502    0  0.00000000000E+00  0.00000000000E+00  0.17148246332E+04  0.17148246332E+04  0.00000000000E+00 0. -1.
          1   -1    0    0  501    0 -0.00000000000E+00 -0.00000000000E+00 -0.55026483519E+02  0.55026483519E+02  0.00000000000E+00 0. -1.
         25    2    1    2    0    0 -0.28323713939E+02  0.55445818556E+02  0.64081840794E+03  0.65585765449E+03  0.12499823774E+03 0.  0.
          2    1    1    2  501    0 -0.21522971140E+02 -0.38547028326E+02 -0.36450504666E+02  0.57251646002E+02  0.00000000000E+00 0. -1.
          1    1    1    2  502    0  0.49846685079E+02 -0.16898790230E+02  0.10554302464E+04  0.10567418162E+04  0.00000000000E+00 0. -1.
         22    1    3    3    0    0  0.41879250382E+02  0.34129222592E+02  0.41295483532E+03  0.41647373442E+03  0.00000000000E+00 0. -1.
         22    1    3    3    0    0 -0.70202964321E+02  0.21316595964E+02  0.22786357262E+03  0.23938392007E+03  0.00000000000E+00 0. -1.
</event>
<event>
 7    1  0.4915160E-006  0.8210105E+02  0.7818608E-02  0.1465249E+00
          2   -1    0    0  502    0  0.00000000000E+00  0.00000000000E+00  0.40689419073E+03  0.40689419073E+03  0.00000000000E+00 0. -1.
          1   -1    0    0  501    0 -0.00000000000E+00 -0.00000000000E+00 -0.20608893713E+04  0.20608893713E+04  0.00000000000E+00 0. -1.
         25    2    1    2    0    0  0.10708762054E+03  0.11908127443E+02 -0.15755964227E+03  0.22816599520E+03  0.12500047407E+03 0.  0.
          2    1    1    2  501    0 -0.26302836598E+02 -0.10805978525E+01 -0.18634628899E+04  0.18636488266E+04  0.00000000000E+00 0. -1.
          1    1    1    2  502    0 -0.80784783943E+02 -0.10827529590E+02  0.36702735165E+03  0.37596874016E+03  0.00000000000E+00 0. -1.
         22    1    3    3    0    0  0.34059611709E+02  0.29007705983E+02 -0.14547077027E+03  0.15219477376E+03  0.00000000000E+00 0.  1.
         22    1    3    3    0    0  0.73028008833E+02 -0.17099578540E+02 -0.12088871999E+02  0.75971221436E+02  0.00000000000E+00 0.  1.
</event>
<event>
 7    1  0.4915160E-006  0.4887003E+02  0.7818608E-02  0.1537272E+00
          2   -1    0    0  502    0  0.00000000000E+00  0.00000000000E+00  0.35800182697E+03  0.35800182697E+03  0.00000000000E+00 0. -1.
          1   -1    0    0  501    0 -0.00000000000E+00 -0.00000000000E+00 -0.53472507565E+03  0.53472507565E+03  0.00000000000E+00 0. -1.
         25    2    1    2    0    0  0.54621974185E+01  0.22816657260E+02 -0.42083841870E+03  0.43963708450E+03  0.12500142385E+03 0.  0.
          2    1    1    2  501    0 -0.66509660956E+01  0.26144196520E+02 -0.10098785727E+03  0.10452895138E+03  0.00000000000E+00 0. -1.
          1    1    1    2  502    0  0.11887686771E+01 -0.48960853780E+02  0.34510302729E+03  0.34856086674E+03  0.00000000000E+00 0. -1.
         22    1    3    3    0    0 -0.26144861603E+02  0.90375791393E+00 -0.11636560815E+02  0.28631802496E+02  0.00000000000E+00 0.  1.
         22    1    3    3    0    0  0.31607059021E+02  0.21912899346E+02 -0.40920185789E+03  0.41100528201E+03  0.00000000000E+00 0.  1.
</event>
<event>
 7    1  0.4915160E-006  0.3500954E+02  0.7818608E-02  0.1559920E+00
          2   -1    0    0  502    0  0.00000000000E+00  0.00000000000E+00  0.15171861472E+04  0.15171861472E+04  0.00000000000E+00 0. -1.
          1   -1    0    0  501    0 -0.00000000000E+00 -0.00000000000E+00 -0.29055587701E+03  0.29055587701E+03  0.00000000000E+00 0. -1.
         25    2    1    2    0    0 -0.15931571564E+02  0.35511431267E+02  0.10110793894E+03  0.16541542582E+03  0.12499828423E+03 0.  0.
          2    1    1    2  501    0 -0.18115927455E+02 -0.27042867853E+02 -0.25715366649E+03  0.25920553952E+03  0.00000000000E+00 0. -1.
          1    1    1    2  502    0  0.34047499019E+02 -0.84685634145E+01  0.13826759977E+04  0.13831210588E+04  0.00000000000E+00 0. -1.
         22    1    3    3    0    0  0.28959398700E+02 -0.21006048317E+02  0.83910107491E+02  0.91218457442E+02  0.00000000000E+00 0.  1.
         22    1    3    3    0    0 -0.44890970264E+02  0.56517479584E+02  0.17197831446E+02  0.74196968377E+02  0.00000000000E+00 0.  1.
</event>
<event>
 7    1  0.4915160E-006  0.6949984E+02  0.7818608E-02  0.1367569E+00
          2   -1    0    0  502    0  0.00000000000E+00  0.00000000000E+00  0.21196156378E+03  0.21196156378E+03  0.00000000000E+00 0. -1.
          1   -1    0    0  501    0 -0.00000000000E+00 -0.00000000000E+00 -0.84976523847E+03  0.84976523847E+03  0.00000000000E+00 0. -1.
         25    2    1    2    0    0  0.22545353390E+02 -0.33360975510E+01 -0.26390530172E+02  0.12977347320E+03  0.12500108703E+03 0.  0.
          2    1    1    2  501    0 -0.36564194914E+02 -0.61398287049E+02 -0.76309860608E+03  0.76643732464E+03  0.00000000000E+00 0. -1.
          1    1    1    2  502    0  0.14018841524E+02  0.64734384600E+02  0.15168546156E+03  0.16551600441E+03  0.00000000000E+00 0. -1.
         22    1    3    3    0    0  0.63145077694E+02  0.13663457833E+02  0.18197502267E+02  0.67120339732E+02  0.00000000000E+00 0.  1.
         22    1    3    3    0    0 -0.40599724304E+02 -0.16999555384E+02 -0.44588032438E+02  0.62653133469E+02  0.00000000000E+00 0.  1.
</event>
<event>
 7    1  0.4915160E-006  0.4927039E+02  0.7818608E-02  0.1469058E+00
          2   -1    0    0  502    0  0.00000000000E+00  0.00000000000E+00  0.73364353142E+03  0.73364353142E+03  0.00000000000E+00 0. -1.
          1   -1    0    0  501    0 -0.00000000000E+00 -0.00000000000E+00 -0.62638183781E+02  0.62638183781E+02  0.00000000000E+00 0. -1.
         25    2    1    2    0    0  0.63660388223E+02  0.80031265303E+00  0.44048856705E+03  0.46228980818E+03  0.12501361335E+03 0.  0.
          2    1    1    2  501    0 -0.37034689405E+02  0.32557515667E+02 -0.37906222326E+02  0.62196798445E+02  0.00000000000E+00 0. -1.
          1    1    1    2  502    0 -0.26625698818E+02 -0.33357828320E+02  0.26842300292E+03  0.27179510857E+03  0.00000000000E+00 0. -1.
         22    1    3    3    0    0  0.42268154833E+02 -0.35355082041E+02  0.68393692390E+02  0.87830950683E+02  0.00000000000E+00 0. -1.
         22    1    3    3    0    0  0.21392233389E+02  0.36155394694E+02  0.37209487466E+03  0.37445885750E+03  0.00000000000E+00 0. -1.
</event>
<event>
 7    1  0.4915160E-006  0.1988801E+03  0.7818608E-02  0.1341184E+00
          2   -1    0    0  502    0  0.00000000000E+00  0.00000000000E+00  0.48816335461E+03  0.48816335461E+03  0.00000000000E+00 0. -1.
          1   -1    0    0  501    0 -0.00000000000E+00 -0.00000000000E+00 -0.13289008222E+04  0.13289008222E+04  0.00000000000E+00 0. -1.
         25    2    1    2    0    0  0.18197595310E+03  0.88251547251E+02 -0.88551931767E+02  0.25371497764E+03  0.12500504855E+03 0.  0.
          2    1    1    2  501    0  0.73275968411E+01 -0.28004049069E+02 -0.11332449270E+04  0.11336145664E+04  0.00000000000E+00 0. -1.
          1    1    1    2  502    0 -0.18930354994E+03 -0.60247498182E+02  0.38105939117E+03  0.42973463283E+03  0.00000000000E+00 0. -1.
         22    1    3    3    0    0  0.16767081070E+03  0.23223745421E+02 -0.77703437168E+02  0.18625430803E+03  0.00000000000E+00 0.  1.
         22    1    3    3    0    0  0.14305142397E+02  0.65027801829E+02 -0.10848494600E+02  0.67460669614E+02  0.00000000000E+00 0.  1.
</event>
<event>
 7    1  0.4915160E-006  0.7371760E+02  0.7818608E-02  0.1411909E+00
          2   -1    0    0  502    0  0.00000000000E+00  0.00000000000E+00  0.66927035123E+03  0.66927035123E+03  0.00000000000E+00 0. -1.
          1   -1    0    0  501    0 -0.00000000000E+00 -0.00000000000E+00 -0.56405331126E+03  0.56405331126E+03  0.00000000000E+00 0. -1.
         25    2    1    2    0    0  0.33670414010E+02  0.18957475482E+02 -0.87256558092E+02  0.15726499173E+03  0.12500195213E+03 0.  0.
          2    1    1    2  501    0  0.74318886169E+01  0.43082530279E+02 -0.43851884776E+03  0.44069276966E+03  0.00000000000E+00 0. -1.
          1    1    1    2  502    0 -0.41102302627E+02 -0.62040005761E+02  0.63099244582E+03  0.63536590110E+03  0.00000000000E+00 0. -1.
         22    1    3    3    0    0 -0.40639424473E+02  0.60887607947E+01 -0.67962767615E+02  0.79420234270E+02  0.00000000000E+00 0. -1.
         22    1    3    3    0    0  0.74309838483E+02  0.12868714687E+02 -0.19293790476E+02  0.77844757460E+02  0.00000000000E+00 0. -1.
</event>
<event>
 7    1  0.4915160E-006  0.5152699E+02  0.7818608E-02  0.1468388E+00
          2   -1    0    0  502    0  0.00000000000E+00  0.00000000000E+00  0.19750903522E+03  0.19750903522E+03  0.00000000000E+00 0. -1.
          1   -1    0    0  501    0 -0.00000000000E+00 -0.00000000000E+00 -0.38761367800E+03  0.38761367800E+03  0.00000000000E+00 0. -1.
         25    2    1    2    0    0  0.68637530975E+02  0.40114218827E+02 -0.10368123078E+03  0.18081766808E+03  0.12499988105E+03 0.  0.
          2    1    1    2  501    0 -0.40923423787E+02  0.26410419319E+01 -0.23949274354E+03  0.24297834456E+03  0.00000000000E+00 0. -1.
          1    1    1    2  502    0 -0.27714107188E+02 -0.42755260758E+02  0.15306933154E+03  0.16132670057E+03  0.00000000000E+00 0. -1.
         22    1    3    3    0    0  0.98395459013E+02  0.39068115332E+02 -0.10740366215E+03  0.15080958402E+03  0.00000000000E+00 0.  1.
         22    1    3    3    0    0 -0.29757928038E+02  0.10461034944E+01  0.37224313664E+01  0.30008084059E+02  0.00000000000E+00 0.  1.
</event>
<event>
 7    1  0.4915160E-006  0.6211412E+02  0.7818608E-02  0.1497999E+00
          2   -1    0    0  502    0  0.00000000000E+00  0.00000000000E+00  0.26122830719E+03  0.26122830719E+03  0.00000000000E+00 0. -1.
          1   -1    0    0  501    0 -0.00000000000E+00 -0.00000000000E+00 -0.19258093921E+03  0.19258093921E+03  0.00000000000E+00 0. -1.
         25    2    1    2    0    0 -0.51144088799E+02 -0.26536554248E+02  0.20268483745E+03  0.24500423395E+03  0.12500409908E+03 0.  0.
          2    1    1    2  501    0  0.36973052678E+02  0.50247862486E+02 -0.15948162144E+03  0.17124906389E+03  0.00000000000E+00 0. -1.
          1    1    1    2  502    0  0.14171036121E+02 -0.23711308238E+02  0.25444151963E+02  0.37555948560E+02  0.00000000000E+00 0. -1.
         22    1    3    3    0    0 -0.14559592749E+02  0.27944877484E+02  0.16770318333E+03  0.17063779070E+03  0.00000000000E+00 0.  1.
         22    1    3    3    0    0 -0.36584496051E+02 -0.54481431731E+02  0.34981654127E+02  0.74366443240E+02  0.00000000000E+00 0.  1.
</event>
<event>
 7    1  0.4915160E-006  0.4898522E+02  0.7818608E-02  0.1501514E+00
          2   -1    0    0  502    0  0.00000000000E+00  0.00000000000E+00  0.49558224041E+03  0.49558224041E+03  0.00000000000E+00 0. -1.
          1   -1    0    0  501    0 -0.00000000000E+00 -0.00000000000E+00 -0.16466952252E+04  0.16466952252E+04  0.00000000000E+00 0. -1.
         25    2    1    2    0    0 -0.55283693851E+02 -0.61942313276E+02 -0.26597646899E+03  0.30538061412E+03  0.12498280060E+03 0.  0.
          2    1    1    2  501    0  0.22963939294E+02  0.25331167267E+02 -0.13595482772E+04  0.13599781353E+04  0.00000000000E+00 0. -1.
          1    1    1    2  502    0  0.32319754557E+02  0.36611146009E+02  0.47441176136E+03  0.47691871620E+03  0.00000000000E+00 0. -1.
         22    1    3    3    0    0 -0.66494110590E+02 -0.45434859779E+02 -0.65210069658E+02  0.10362502792E+03  0.00000000000E+00 0.  1.
         22    1    3    3    0    0  0.11210416739E+02 -0.16507453497E+02 -0.20076639933E+03  0.20175558620E+03  0.00000000000E+00 0.  1.
</event>
<event>
 7    1  0.4915160E-006  0.7943753E+02  0.7818608E-02  0.1445238E+00
          2   -1    0    0  502    0  0.00000000000E+00  0.00000000000E+00  0.12446057699E+04  0.12446057699E+04  0.00000000000E+00 0. -1.
          1   -1    0    0  501    0 -0.00000000000E+00 -0.00000000000E+00 -0.48787341769E+03  0.48787341769E+03  0.00000000000E+00 0. -1.
         25    2    1    2    0    0 -0.72880952912E+02 -0.71011937692E+02 -0.23433436242E+02  0.16287561221E+03  0.12500004211E+03 0.  0.
          2    1    1    2  501    0  0.67355503975E+02  0.40004848236E+02 -0.39061798804E+03  0.39839624042E+03  0.00000000000E+00 0. -1.
          1    1    1    2  502    0  0.55254489368E+01  0.31007089456E+02  0.11707837764E+04  0.11712073349E+04  0.00000000000E+00 0. -1.
         22    1    3    3    0    0 -0.23916477846E+02  0.35126124658E+02 -0.17129571498E+02  0.45817734184E+02  0.00000000000E+00 0.  1.
         22    1    3    3    0    0 -0.48964475067E+02 -0.10613806235E+03 -0.63038647437E+01  0.11705787803E+03  0.00000000000E+00 0.  1.
</event>
<event>
 7    1  0.4915160E-006  0.9200304E+02  0.7818608E-02  0.1349167E+00
          2   -1    0    0  502    0  0.00000000000E+00  0.00000000000E+00  0.49248291021E+03  0.49248291021E+03  0.00000000000E+00 0. -1.
          1   -1    0    0  501    0 -0.00000000000E+00 -0.00000000000E+00 -0.81442865711E+02  0.81442865711E+02  0.00000000000E+00 0. -1.
         25    2    1    2    0    0 -0.79638952472E+02  0.95254033697E+02  0.24923814083E+03  0.30522242102E+03  0.12500152705E+03 0.  0.
          2    1    1    2  501    0  0.21947492794E+02 -0.86030473263E+02 -0.79863599818E+01  0.89144358854E+02  0.00000000000E+00 0. -1.
          1    1    1    2  502    0  0.57691459679E+02 -0.92235604342E+01  0.16978826365E+03  0.17955899604E+03  0.00000000000E+00 0. -1.
         22    1    3    3    0    0 -0.21538503094E+02 -0.30550432862E+02  0.46723778356E+02  0.59836005276E+02  0.00000000000E+00 0. -1.
         22    1    3    3    0    0 -0.58100449379E+02  0.12580446656E+03  0.20251436247E+03  0.24538641575E+03  0.00000000000E+00 0. -1.
</event>
<event>
 7    1  0.4915160E-006  0.6252195E+02  0.7818608E-02  0.1510625E+00
          2   -1    0    0  502    0  0.00000000000E+00  0.00000000000E+00  0.26875225060E+03  0.26875225060E+03  0.00000000000E+00 0. -1.
          1   -1    0    0  501    0 -0.00000000000E+00 -0.00000000000E+00 -0.19736931865E+04  0.19736931865E+04  0.00000000000E+00 0. -1.
         25    2    1    2    0    0 -0.59011026131E+01  0.80084667476E+02 -0.48556042920E+02  0.15630647641E+03  0.12500259312E+03 0.  0.
          2    1    1    2  501    0 -0.10973118586E+02 -0.61401418219E+02 -0.18700027552E+04  0.18710427167E+04  0.00000000000E+00 0. -1.
          1    1    1    2  502    0  0.16874221199E+02 -0.18683249257E+02  0.21361786216E+03  0.21509624399E+03  0.00000000000E+00 0. -1.
         22    1    3    3    0    0  0.29763292894E+02  0.74157809430E+02  0.16765377085E+02  0.81647487237E+02  0.00000000000E+00 0. -1.
         22    1    3    3    0    0 -0.35664395507E+02  0.59268580465E+01 -0.65321420005E+02  0.74658989175E+02  0.00000000000E+00 0. -1.
</event>
<event>
 7    1  0.4915160E-006  0.2452835E+03  0.7818608E-02  0.1186726E+00
          2   -1    0    0  502    0  0.00000000000E+00  0.00000000000E+00  0.37135109347E+03  0.37135109347E+03  0.00000000000E+00 0. -1.
          1   -1    0    0  501    0 -0.00000000000E+00 -0.00000000000E+00 -0.17581027601E+04  0.17581027601E+04  0.00000000000E+00 0. -1.
         25    2    1    2    0    0  0.14454917180E+03 -0.45179686130E+02 -0.35621288218E+03  0.40675712923E+03  0.12501230997E+03 0.  0.
          2    1    1    2  501    0  0.94683870299E+02 -0.49137258110E+02 -0.13264094645E+04  0.13306921405E+04  0.00000000000E+00 0. -1.
          1    1    1    2  502    0 -0.23923304210E+03  0.94316944240E+02  0.29587068004E+03  0.39200458378E+03  0.00000000000E+00 0. -1.
         22    1    3    3    0    0  0.12137453844E+03 -0.14758812427E+02 -0.13449357904E+03  0.18176392362E+03  0.00000000000E+00 0.  1.
         22    1    3    3    0    0  0.23174633356E+02 -0.30420873703E+02 -0.22171930314E+03  0.22499320561E+03  0.00000000000E+00 0.  1.
</event>
<event>
 7    1  0.4915160E-006  0.9032835E+02  0.7818608E-02  0.1401603E+00
          2   -1    0    0  502    0  0.00000000000E+00  0.00000000000E+00  0.92242893309E+03  0.92242893309E+03  0.00000000000E+00 0. -1.
          1   -1    0    0  501    0 -0.00000000000E+00 -0.00000000000E+00 -0.13936938916E+03  0.13936938916E+03  0.00000000000E+00 0. -1.
         25    2    1    2    0    0  0.57922071813E+02 -0.10258640792E+03  0.20877757454E+03  0.27035506511E+03  0.12499939244E+03 0.  0.
          2    1    1    2  501    0 -0.61084435509E+02  0.64034268996E+02 -0.89891995294E+02  0.12614383332E+03  0.00000000000E+00 0. -1.
          1    1    1    2  502    0  0.31623636965E+01  0.38552138928E+02  0.66417396468E+03  0.66529942381E+03  0.00000000000E+00 0. -1.
         22    1    3    3    0    0  0.62625065045E+02 -0.89560727020E+02  0.22432814425E+03  0.24953183945E+03  0.00000000000E+00 0.  1.
         22    1    3    3    0    0 -0.47029932327E+01 -0.13025680905E+02 -0.15550569718E+02  0.20823225661E+02  0.00000000000E+00 0.  1.
</event>
<event>
 7    1  0.4915160E-006  0.5529740E+02  0.7818608E-02  0.1421428E+00
          2   -1    0    0  502    0  0.00000000000E+00  0.00000000000E+00  0.51667101685E+02  0.51667101685E+02  0.00000000000E+00 0. -1.
          1   -1    0    0  501    0 -0.00000000000E+00 -0.00000000000E+00 -0.65725500217E+03  0.65725500217E+03  0.00000000000E+00 0. -1.
         25    2    1    2    0    0 -0.75162476259E+01  0.63018629556E+02 -0.34406412211E+03  0.37152748748E+03  0.12499884872E+03 0.  0.
          2    1    1    2  501    0  0.49829502363E+02 -0.27418191380E+02 -0.27471906682E+03  0.28054465277E+03  0.00000000000E+00 0. -1.
          1    1    1    2  502    0 -0.42313254737E+02 -0.35600438176E+02  0.13195288442E+02  0.56849963605E+02  0.00000000000E+00 0. -1.
         22    1    3    3    0    0 -0.38772605099E+02  0.43323797238E+02 -0.54740759686E+02  0.79854975326E+02  0.00000000000E+00 0.  1.
         22    1    3    3    0    0  0.31256357473E+02  0.19694832318E+02 -0.28932336242E+03  0.29167251215E+03  0.00000000000E+00 0.  1.
</event>
<event>
 7    1  0.4915160E-006  0.8141900E+02  0.7818608E-02  0.1480102E+00
          2   -1    0    0  502    0  0.00000000000E+00  0.00000000000E+00  0.12181506560E+02  0.12181506560E+02  0.00000000000E+00 0. -1.
          1   -1    0    0  501    0 -0.00000000000E+00 -0.00000000000E+00 -0.34773123021E+04  0.34773123021E+04  0.00000000000E+00 0. -1.
         25    2    1    2    0    0  0.66374741461E+02  0.34239135017E+02 -0.22030345126E+04  0.22078412112E+04  0.12499530166E+03 0.  0.
          2    1    1    2  501    0  0.14394304586E+02 -0.19048996250E+02 -0.10967284398E+04  0.10969883003E+04  0.00000000000E+00 0. -1.
          1    1    1    2  502    0 -0.80769046048E+02 -0.15190138767E+02 -0.16536784310E+03  0.18466429717E+03  0.00000000000E+00 0. -1.
         22    1    3    3    0    0  0.72774972365E+02 -0.31618515595E+02 -0.11617774941E+04  0.11644839513E+04  0.00000000000E+00 0.  1.
         22    1    3    3    0    0 -0.64002309037E+01  0.65857650612E+02 -0.10412570185E+04  0.10433572598E+04  0.00000000000E+00 0.  1.
</event>
<event>
 7    1  0.4915160E-006  0.6329670E+02  0.7818608E-02  0.1465161E+00
          2   -1    0    0  502    0  0.00000000000E+00  0.00000000000E+00  0.50607084986E+03  0.50607084986E+03  0.00000000000E+00 0. -1.
          1   -1    0    0  501    0 -0.00000000000E+00 -0.00000000000E+00 -0.86624857617E+03  0.86624857617E+03  0.00000000000E+00 0. -1.
         25    2    1    2    0    0  0.69547835369E+02  0.26080832839E+02 -0.16083287573E+03  0.21681600118E+03  0.12499941282E+03 0.  0.
          2    1    1    2  501    0 -0.27089902286E+02  0.20821686319E+02 -0.67489706013E+03  0.67576138333E+03  0.00000000000E+00 0. -1.
          1    1    1    2  502    0 -0.42457933083E+02 -0.46902519158E+02  0.47555220956E+03  0.47974204152E+03  0.00000000000E+00 0. -1.
         22    1    3    3    0    0  0.79694936793E+02 -0.30575700904E+02 -0.75937669530E+02  0.11424835268E+03  0.00000000000E+00 0.  1.
         22    1    3    3    0    0 -0.10147101424E+02  0.56656533743E+02 -0.84895206205E+02  0.10256764850E+03  0.00000000000E+00 0.  1.
</event>
<event>
 7    1  0.4915160E-006  0.3009267E+02  0.7818608E-02  0.1648355E+00
          2   -1    0    0  502    0  0.00000000000E+00  0.00000000000E+00  0.25844559939E+03  0.25844559939E+03  0.00000000000E+00 0. -1.
          1   -1    0    0  501    0 -0.00000000000E+00 -0.00000000000E+00 -0.75053689225E+03  0.75053689225E+03  0.00000000000E+00 0. -1.
         25    2    1    2    0    0  0.43532011308E+02  0.15938962818E+02 -0.96395146492E+01  0.13366645527E+03  0.12499885790E+03 0.  0.
          2    1    1    2  501    0 -0.13685433851E+02 -0.17603382078E+02 -0.67756217955E+03  0.67792896185E+03  0.00000000000E+00 0. -1.
          1    1    1    2  502    0 -0.29846577457E+02  0.16644192600E+01  0.19511040133E+03  0.19738707452E+03  0.00000000000E+00 0. -1.
         22    1    3    3    0    0 -0.68212910304E+01 -0.19390667293E+02  0.46214867797E+02  0.50580055308E+02  0.00000000000E+00 0.  1.
         22    1    3    3    0    0  0.50353302338E+02  0.35329630111E+02 -0.55854382447E+02  0.83086399962E+02  0.00000000000E+00 0.  1.
</event>
<event>
 7    1  0.4915160E-006  0.6644610E+02  0.7818608E-02  0.1409099E+00
          2   -1    0    0  502    0  0.00000000000E+00  0.00000000000E+00  0.29114227902E+03  0.29114227902E+03  0.00000000000E+00 0. -1.
          1   -1    0    0  501    0 -0.00000000000E+00 -0.00000000000E+00 -0.76152305517E+03  0.76152305517E+03  0.00000000000E+00 0. -1.
         25    2    1    2    0    0 -0.37998460070E+02  0.66946084632E+02 -0.12021667256E+03  0.18974187885E+03  0.12499708402E+03 0.  0.
          2    1    1    2  501    0 -0.24269928908E+02 -0.43230672217E+02 -0.60117678801E+03  0.60321758173E+03  0.00000000000E+00 0. -1.
          1    1    1    2  502    0  0.62268388978E+02 -0.23715412415E+02  0.25101268442E+03  0.25970587361E+03  0.00000000000E+00 0. -1.
         22    1    3    3    0    0  0.33201137457E+02  0.60903967322E+02 -0.32493215817E+02  0.76599072044E+02  0.00000000000E+00 0.  1.
         22    1    3    3    0    0 -0.71199597527E+02  0.60421173099E+01 -0.87723456741E+02  0.11314280681E+03  0.00000000000E+00 0.  1.
</event>
<event>
 7    1  0.4915160E-006  0.8475886E+02  0.7818608E-02  0.1427137E+00
          2   -1    0    0  502    0  0.00000000000E+00  0.00000000000E+00  0.56420302172E+02  0.56420302172E+02  0.00000000000E+00 0. -1.
          1   -1    0    0  501    0 -0.00000000000E+00 -0.00000000000E+00 -0.55373800082E+03  0.55373800082E+03  0.00000000000E+00 0. -1.
         25    2    1    2    0    0 -0.50673340763E+02 -0.22288198140E+02 -0.36469437269E+03  0.38947615563E+03  0.12500055637E+03 0.  0.
          2    1    1    2  501    0 -0.33446830715E+02 -0.50001713278E+01 -0.12770815092E+03  0.13211004507E+03  0.00000000000E+00 0. -1.
          1    1    1    2  502    0  0.84120171478E+02  0.27288369468E+02 -0.49151750388E+01  0.88572102286E+02  0.00000000000E+00 0. -1.
         22    1    3    3    0    0 -0.79520963156E+02  0.22601270030E+02 -0.24019847511E+03  0.25402698367E+03  0.00000000000E+00 0.  1.
         22    1    3    3    0    0  0.28847622392E+02 -0.44889468170E+02 -0.12449589758E+03  0.13544917196E+03  0.00000000000E+00 0.  1.
</event>
<event>
 7    1  0.4915160E-006  0.1123026E+03  0.7818608E-02  0.1285291E+00
          2   -1    0    0  502    0  0.00000000000E+00  0.00000000000E+00  0.87625945307E+03  0.87625945307E+03  0.00000000000E+00 0. -1.
          1   -1    0    0  501    0 -0.00000000000E+00 -0.00000000000E+00 -0.56516581783E+03  0.56516581783E+03  0.00000000000E+00 0. -1.
         25    2    1    2    0    0  0.51984832338E+02 -0.74415587865E+02 -0.28516112874E+03  0.32431713150E+03  0.12499851970E+03 0.  0.
          2    1    1    2  501    0 -0.77064283310E+02 -0.35695533648E+02 -0.24964864034E+03  0.26369967484E+03  0.00000000000E+00 0. -1.
          1    1    1    2  502    0  0.25079450972E+02  0.11011112151E+03  0.84590340433E+03  0.85340846457E+03  0.00000000000E+00 0. -1.
         22    1    3    3    0    0 -0.42615191571E+00 -0.29835182066E+02 -0.24037283153E+03  0.24221770751E+03  0.00000000000E+00 0. -1.
         22    1    3    3    0    0  0.52410984254E+02 -0.44580405799E+02 -0.44788297207E+02  0.82099423983E+02  0.00000000000E+00 0. -1.
</event>
<event>
 7    1  0.4915160E-006  0.5840465E+02  0.7818608E-02  0.1452101E+00
          2   -1    0    0  502    0  0.00000000000E+00  0.00000000000E+00  0.91065176920E+03  0.91065176920E+03  0.00000000000E+00 0. -1.
          1   -1    0    0  501    0 -0.00000000000E+00 -0.00000000000E+00 -0.59792569743E+03  0.59792569743E+03  0.00000000000E+00 0. -1.
         25    2    1    2    0    0  0.56287594307E+02 -0.73273726324E+02  0.34455231905E+02  0.15921607744E+03  0.12500105626E+03 0.  0.
          2    1    1    2  501    0 -0.47189204152E+02  0.33581534121E+02 -0.53346744572E+03  0.53660232581E+03  0.00000000000E+00 0. -1.
          1    1    1    2  502    0 -0.90983901546E+01  0.39692192203E+02  0.81173828559E+03  0.81275906339E+03  0.00000000000E+00 0. -1.
         22    1    3    3    0    0 -0.11602689231E+01 -0.54654717576E+02 -0.36734227363E+02  0.65862643716E+02  0.00000000000E+00 0.  1.
         22    1    3    3    0    0  0.57447863230E+02 -0.18619008748E+02  0.71189459268E+02  0.93353433720E+02  0.00000000000E+00 0.  1.
</event>
<event>
 7    1  0.4915160E-006  0.5682207E+02  0.7818608E-02  0.1478510E+00
          2   -1    0    0  502    0  0.00000000000E+00  0.00000000000E+00  0.11981013528E+04  0.11981013528E+04  0.00000000000E+00 0. -1.
          1   -1    0    0  501    0 -0.00000000000E+00 -0.00000000000E+00 -0.82560355884E+03  0.82560355884E+03  0.00000000000E+00 0. -1.
         25    2    1    2    0    0 -0.12134638809E+02 -0.25802706725E+02  0.33903929770E+03  0.36247353516E+03  0.12500555657E+03 0.  0.
          2    1    1    2  501    0 -0.31158795736E+02 -0.15039265337E+02 -0.81247267366E+03  0.81320901096E+03  0.00000000000E+00 0. -1.
          1    1    1    2  502    0  0.43293434545E+02  0.40841972062E+02  0.84593116994E+03  0.84802236553E+03  0.00000000000E+00 0. -1.
         22    1    3    3    0    0 -0.34548091935E+02  0.23325456533E+02  0.27744982983E+03  0.28056381743E+03  0.00000000000E+00 0. -1.
         22    1    3    3    0    0  0.22413453126E+02 -0.49128163257E+02  0.61589467872E+02  0.81909717731E+02  0.00000000000E+00 0. -1.
</event>
<event>
 7    1  0.4915160E-006  0.1139604E+03  0.7818608E-02  0.1426651E+00
          2   -1    0    0  502    0  0.00000000000E+00  0.00000000000E+00  0.82651128700E+02  0.82651128700E+02  0.00000000000E+00 0. -1.
          1   -1    0    0  501    0 -0.00000000000E+00 -0.00000000000E+00 -0.11852005328E+04  0.11852005328E+04  0.00000000000E+00 0. -1.
         25    2    1    2    0    0 -0.39924646798E+02 -0.12669104180E+03 -0.56190884831E+03  0.59077202084E+03  0.12500171723E+03 0.  0.
          2    1    1    2  501    0 -0.67586037336E+01  0.24324678909E+02 -0.56199548445E+03  0.56256225724E+03  0.00000000000E+00 0. -1.
          1    1    1    2  502    0  0.46683250531E+02  0.10236636289E+03  0.21354928638E+02  0.11451738344E+03  0.00000000000E+00 0. -1.
         22    1    3    3    0    0 -0.77578187630E+02 -0.82742979636E+02 -0.26463691053E+03  0.28791920792E+03  0.00000000000E+00 0.  1.
         22    1    3    3    0    0  0.37653540832E+02 -0.43948062166E+02 -0.29727193777E+03  0.30285281292E+03  0.00000000000E+00 0.  1.
</event>
<event>
 7    1  0.4915160E-006  0.1708643E+03  0.7818608E-02  0.1342419E+00
          2   -1    0    0  502    0  0.00000000000E+00  0.00000000000E+00  0.16362714565E+04  0.16362714565E+04  0.00000000000E+00 0. -1.
          1   -1    0    0  501    0 -0.00000000000E+00 -0.00000000000E+00 -0.18191688678E+03  0.18191688678E+03  0.00000000000E+00 0. -1.
         25    2    1    2    0    0  0.14134881386E+03 -0.50914542087E+02  0.20396866338E+03  0.28249104736E+03  0.12500479361E+03 0.  0.
          2    1    1    2  501    0  0.29085221820E+02  0.16288290203E+02 -0.13519501278E+03  0.13924420996E+03  0.00000000000E+00 0. -1.
          1    1    1    2  502    0 -0.17043403568E+03  0.34626251884E+02  0.13855809191E+04  0.13964530859E+04  0.00000000000E+00 0. -1.
         22    1    3    3    0    0  0.33104005484E+02  0.38171079051E+02  0.83763838039E+02  0.97822732624E+02  0.00000000000E+00 0.  1.
         22    1    3    3    0    0  0.10824480837E+03 -0.89085621138E+02  0.12020482534E+03  0.18466831474E+03  0.00000000000E+00 0.  1.
</event>
<event>
 7    1  0.4915160E-006  0.1767158E+03  0.7818608E-02  0.1231889E+00
          2   -1    0    0  502    0  0.00000000000E+00  0.00000000000E+00  0.12486112933E+04  0.12486112933E+04  0.00000000000E+00 0. -1.
          1   -1    0    0  501    0 -0.00000000000E+00 -0.00000000000E+00 -0.10573916927E+04  0.10573916927E+04  0.00000000000E+00 0. -1.
         25    2    1    2    0    0 -0.58129653569E+02  0.98008046750E+02  0.19032360348E+03  0.25462250168E+03  0.12499964186E+03 0.  0.
          2    1    1    2  501    0  0.64737879059E+01  0.91123141719E+02 -0.10138047475E+04  0.10179122767E+04  0.00000000000E+00 0. -1.
          1    1    1    2  502    0  0.51655865663E+02 -0.18913118847E+03  0.10147007447E+04  0.10334682076E+04  0.00000000000E+00 0. -1.
         22    1    3    3    0    0 -0.55427185203E+02  0.11172011848E+03  0.20133368142E+03  0.23683076026E+03  0.00000000000E+00 0. -1.
         22    1    3    3    0    0 -0.27024683655E+01 -0.13712071729E+02 -0.11010077935E+02  0.17791741413E+02  0.00000000000E+00 0. -1.
</event>
<event>
 7    1  0.4915160E-006  0.5138581E+02  0.7818608E-02  0.1469392E+00
          2   -1    0    0  502    0  0.00000000000E+00  0.00000000000E+00  0.38432603835E+03  0.38432603835E+03  0.00000000000E+00 0. -1.
          1   -1    0    0  501    0 -0.00000000000E+00 -0.00000000000E+00 -0.12143962193E+03  0.12143962193E+03  0.00000000000E+00 0. -1.
         25    2    1    2    0    0 -0.20451009494E+02  0.78939111405E+02  0.57839654480E+02  0.16006267302E+03  0.12500002627E+03 0.  0.
          2    1    1    2  501    0 -0.10648590801E+02 -0.39412987408E+02 -0.61849708613E+02  0.74109125740E+02  0.00000000000E+00 0. -1.
          1    1    1    2  502    0  0.31099600296E+02 -0.39526123996E+02  0.26689647056E+03  0.27159386152E+03  0.00000000000E+00 0. -1.
         22    1    3    3    0    0 -0.47810279857E+02  0.55055650368E+01  0.65549644085E+02  0.81319677484E+02  0.00000000000E+00 0.  1.
         22    1    3    3    0    0  0.27359270363E+02  0.73433546368E+02 -0.77099896049E+01  0.78742995540E+02  0.00000000000E+00 0.  1.
</event>
<event>
 7    1  0.4915160E-006  0.6438541E+02  0.7818608E-02  0.1393477E+00
          2   -1    0    0  502    0  0.00000000000E+00  0.00000000000E+00  0.14901680366E+03  0.14901680366E+03  0.00000000000E+00 0. -1.
          1   -1    0    0  501    0 -0.00000000000E+00 -0.00000000000E+00 -0.55654377601E+03  0.55654377601E+03  0.00000000000E+00 0. -1.
         25    2    1    2    0    0 -0.89679220411E+01  0.42702063917E+02 -0.10420167774E+03  0.16848732224E+03  0.12500439281E+03 0.  0.
          2    1    1    2  501    0 -0.54374168348E+02 -0.19859886319E+02 -0.40828675916E+03  0.41237003161E+03  0.00000000000E+00 0. -1.
          1    1    1    2  502    0  0.63342090389E+02 -0.22842177598E+02  0.10496146455E+03  0.12470322583E+03  0.00000000000E+00 0. -1.
         22    1    3    3    0    0 -0.26234183964E+02 -0.39800811011E+02 -0.44344452441E+02  0.65105817157E+02  0.00000000000E+00 0. -1.
         22    1    3    3    0    0  0.17266261923E+02  0.82502874928E+02 -0.59857225298E+02  0.10338150508E+03  0.00000000000E+00 0. -1.
</event>
<event>
 7    1  0.4915160E-006  0.1450464E+03  0.7818608E-02  0.1263862E+00
          2   -1    0    0  502    0  0.00000000000E+00  0.00000000000E+00  0.16821045027E+04  0.16821045027E+04  0.00000000000E+00 0. -1.
          1   -1    0    0  501    0 -0.00000000000E+00 -0.00000000000E+00 -0.16154995538E+03  0.16154995538E+03  0.00000000000E+00 0. -1.
         25    2    1    2    0    0  0.15013951029E+03  0.13497700278E+03  0.23661259769E+03  0.33521827094E+03  0.12500041582E+03 0.  0.
          2    1    1    2  501    0 -0.12466676429E+03 -0.58323792020E+02 -0.68392704723E+02  0.15369134294E+03  0.00000000000E+00 0. -1.
          1    1    1    2  502    0 -0.25472745992E+02 -0.76653210762E+02  0.13523346543E+04  0.13547448442E+04  0.00000000000E+00 0. -1.
         22    1    3    3    0    0 -0.21960991267E+02  0.73396434433E+01  0.21374347267E+02  0.31512191679E+02  0.00000000000E+00 0. -1.
         22    1    3    3    0    0  0.17210050155E+03  0.12763735934E+03  0.21523825042E+03  0.30370607926E+03  0.00000000000E+00 0. -1.
</event>
<event>
 7    1  0.4915160E-006  0.6497243E+02  0.7818608E-02  0.1379011E+00
          2   -1    0    0  502    0  0.00000000000E+00  0.00000000000E+00  0.35699807157E+03  0.35699807157E+03  0.00000000000E+00 0. -1.
          1   -1    0    0  501    0 -0.00000000000E+00 -0.00000000000E+00 -0.29895765595E+03  0.29895765595E+03  0.00000000000E+00 0. -1.
         25    2    1    2    0    0 -0.16409620571E+02  0.19813802774E+02 -0.10705244366E+03  0.16657182082E+03  0.12499633343E+03 0.  0.
          2    1    1    2  501    0 -0.53124244854E+01 -0.80521877101E+02 -0.14861921637E+03  0.16911435782E+03  0.00000000000E+00 0. -1.
          1    1    1    2  502    0  0.21722045056E+02  0.60708074327E+02  0.31371207565E+03  0.32026954888E+03  0.00000000000E+00 0. -1.
         22    1    3    3    0    0 -0.45945339958E+02 -0.39678701585E+02 -0.58411002227E+02  0.84244992756E+02  0.00000000000E+00 0.  1.
         22    1    3    3    0    0  0.29535719387E+02  0.59492504360E+02 -0.48641441433E+02  0.82326828066E+02  0.00000000000E+00 0.  1.
</event>
<event>
 7    1  0.4915160E-006  0.8135747E+02  0.7818608E-02  0.1409231E+00
          2   -1    0    0  502    0  0.00000000000E+00  0.00000000000E+00  0.10387637721E+04  0.10387637721E+04  0.00000000000E+00 0. -1.
          1   -1    0    0  501    0 -0.00000000000E+00 -0.00000000000E+00 -0.54975972348E+03  0.54975972348E+03  0.00000000000E+00 0. -1.
         25    2    1    2    0    0 -0.43350218291E+02  0.11259673034E+03  0.37484503642E+03  0.41314823715E+03  0.12500159768E+03 0.  0.
          2    1    1    2  501    0  0.35314030421E+02 -0.72954012208E+02 -0.52687174291E+03  0.53306960345E+03  0.00000000000E+00 0. -1.
          1    1    1    2  502    0  0.80361878705E+01 -0.39642718134E+02  0.64103075514E+03  0.64230565500E+03  0.00000000000E+00 0. -1.
         22    1    3    3    0    0  0.17317080513E+01 -0.21007913178E+02  0.12915701838E+02  0.24721379064E+02  0.00000000000E+00 0.  1.
         22    1    3    3    0    0 -0.45081926343E+02  0.13360464352E+03  0.36192933458E+03  0.38842685809E+03  0.00000000000E+00 0.  1.
</event>
<event>
 7    1  0.4915160E-006  0.7589897E+02  0.7818608E-02  0.1345392E+00
          2   -1    0    0  502    0  0.00000000000E+00  0.00000000000E+00  0.22902522985E+03  0.22902522985E+03  0.00000000000E+00 0. -1.
          1   -1    0    0  501    0 -0.00000000000E+00 -0.00000000000E+00 -0.22977311705E+04  0.22977311705E+04  0.00000000000E+00 0. -1.
         25    2    1    2    0    0 -0.89628064222E+02 -0.87703925287E+02 -0.91563636948E+02  0.19933250358E+03  0.12499751584E+03 0.  0.
          2    1    1    2  501    0  0.17387109333E+02  0.71052267227E+02 -0.21437860934E+04  0.21450336945E+04  0.00000000000E+00 0. -1.
          1    1    1    2  502    0  0.72240954888E+02  0.16651658060E+02  0.16664378965E+03  0.18239020233E+03  0.00000000000E+00 0. -1.
         22    1    3    3    0    0 -0.45853642738E+02 -0.79957390560E+02  0.57441232323E+01  0.92351154889E+02  0.00000000000E+00 0.  1.
         22    1    3    3    0    0 -0.43774421483E+02 -0.77465347268E+01 -0.97307760181E+02  0.10698134869E+03  0.00000000000E+00 0.  1.
</event>
<event>
 7    1  0.4915160E-006  0.9426063E+02  0.7818608E-02  0.1425333E+00
          2   -1    0    0  502    0  0.00000000000E+00  0.00000000000E+00  0.21472350457E+04  0.21472350457E+04  0.00000000000E+00 0. -1.
          1   -1    0    0  501    0 -0.00000000000E+00 -0.00000000000E+00 -0.18083873006E+03  0.18083873006E+03  0.00000000000E+00 0. -1.
         25    2    1    2    0    0 -0.61737067859E+02  0.67790994545E+02  0.31216330242E+03  0.34853904984E+03  0.12500582946E+03 0.  0.
          2    1    1    2  501    0  0.24136718184E+02  0.19181840548E+02 -0.15994231023E+03  0.16288666850E+03  0.00000000000E+00 0. -1.
          1    1    1    2  502    0  0.37600349674E+02 -0.86972835093E+02  0.18141753235E+04  0.18166480575E+04  0.00000000000E+00 0. -1.
         22    1    3    3    0    0 -0.49287834587E+02  0.98241657407E+02  0.16865761237E+03  0.20131096368E+03  0.00000000000E+00 0. -1.
         22    1    3    3    0    0 -0.12449233272E+02 -0.30450662863E+02  0.14350569005E+03  0.14722808616E+03  0.00000000000E+00 0. -1.
</event>
<event>
 7    1  0.4915160E-006  0.7686422E+02  0.7818608E-02  0.1356648E+00
          2   -1    0    0  502    0  0.00000000000E+00  0.00000000000E+00  0.16758898943E+04  0.16758898943E+04  0.00000000000E+00 0. -1.
          1   -1    0    0  501    0 -0.00000000000E+00 -0.00000000000E+00 -0.43441038273E+03  0.43441038273E+03  0.00000000000E+00 0. -1.
         25    2    1    2    0    0 -0.51762539261E+02  0.50202309531E+02  0.44004108643E+03  0.46309998439E+03  0.12500322172E+03 0.  0.
          2    1    1    2  501    0 -0.82896206414E+01 -0.76669808945E+02 -0.41847587087E+03  0.42552206984E+03  0.00000000000E+00 0. -1.
          1    1    1    2  502    0  0.60052159902E+02  0.26467499413E+02  0.12199142961E+04  0.12216782228E+04  0.00000000000E+00 0. -1.
         22    1    3    3    0    0 -0.33449289531E+02 -0.20273553046E+02  0.32227827240E+03  0.32464312219E+03  0.00000000000E+00 0. -1.
         22    1    3    3    0    0 -0.18313249730E+02  0.70475862578E+02  0.11776281403E+03  0.13845686220E+03  0.00000000000E+00 0. -1.
</event>
<event>
 7    1  0.4915160E-006  0.1279612E+03  0.7818608E-02  0.1404790E+00
          2   -1    0    0  502    0  0.00000000000E+00  0.00000000000E+00  0.12721347780E+04  0.12721347780E+04  0.00000000000E+00 0. -1.
          1   -1    0    0  501    0 -0.00000000000E+00 -0.00000000000E+00 -0.29805407307E+03  0.29805407307E+03  0.00000000000E+00 0. -1.
         25    2    1    2    0    0 -0.11776293941E+03  0.60365739884E+02  0.88405744776E+03  0.90260458070E+03  0.12500130287E+03 0.  0.
          2    1    1    2  501    0  0.12324774802E+03 -0.34308474834E+02 -0.27410129885E+03  0.30248735654E+03  0.00000000000E+00 0. -1.
          1    1    1    2  502    0 -0.54848086063E+01 -0.26057265050E+02  0.36412455602E+03  0.36509691383E+03  0.00000000000E+00 0. -1.
         22    1    3    3    0    0 -0.12700289448E+03  0.13887444672E+02  0.51945977420E+03  0.53494023343E+03  0.00000000000E+00 0.  1.
         22    1    3    3    0    0  0.92399550658E+01  0.46478295213E+02  0.36459767355E+03  0.36766434727E+03  0.00000000000E+00 0.  1.
</event>
<event>
 7    1  0.4915160E-006  0.9262574E+02  0.7818608E-02  0.1362688E+00
          2   -1    0    0  502    0  0.00000000000E+00  0.00000000000E+00  0.24900798639E+04  0.24900798639E+04  0.00000000000E+00 0. -1.
          1   -1    0    0  501    0 -0.00000000000E+00 -0.00000000000E+00 -0.28563100084E+04  0.28563100084E+04  0.00000000000E+00 0. -1.
         25    2    1    2    0    0  0.57399922866E+02  0.37449270330E+02  0.46601960768E+03  0.48733640078E+03  0.12500117518E+03 0.  0.
          2    1    1    2  501    0  0.38773346096E+02 -0.34292648884E+02 -0.28442662880E+04  0.28447372594E+04  0.00000000000E+00 0. -1.
          1    1    1    2  502    0 -0.96173268963E+02 -0.31566214458E+01  0.20120165358E+04  0.20143162121E+04  0.00000000000E+00 0. -1.
         22    1    3    3    0    0  0.90245845645E+02  0.53549388601E+02  0.31814413748E+03  0.33500379384E+03  0.00000000000E+00 0.  1.
         22    1    3    3    0    0 -0.32845922778E+02 -0.16100118271E+02  0.14787547020E+03  0.15233260694E+03  0.00000000000E+00 0.  1.
</event>
<event>
 7    1  0.4915160E-006  0.1418875E+03  0.7818608E-02  0.1353770E+00
          2   -1    0    0  502    0  0.00000000000E+00  0.00000000000E+00  0.22994579427E+04  0.22994579427E+04  0.00000000000E+00 0. -1.
          1   -1    0    0  501    0 -0.00000000000E+00 -0.00000000000E+00 -0.42168195281E+03  0.42168195281E+03  0.00000000000E+00 0. -1.
         25    2    1    2    0    0  0.12042479408E+03 -0.10925216190E+03  0.85342316008E+03  0.87772108471E+03  0.12500018587E+03 0.  0.
          2    1    1    2  501    0 -0.12147336191E+03  0.72839198787E+02 -0.39704618369E+03  0.42155307912E+03  0.00000000000E+00 0. -1.
          1    1    1    2  502    0  0.10485678252E+01  0.36412963118E+02  0.14213990135E+04  0.14218657317E+04  0.00000000000E+00 0. -1.
         22    1    3    3    0    0  0.74502800866E+02 -0.34369242754E+02  0.66247670606E+03  0.66753823730E+03  0.00000000000E+00 0. -1.
         22    1    3    3    0    0  0.45921993217E+02 -0.74882919151E+02  0.19094645402E+03  0.21018284741E+03  0.00000000000E+00 0. -1.
</event>
<event>
 7    1  0.4915160E-006  0.9138745E+02  0.7818608E-02  0.1409873E+00
          2   -1    0    0  502    0  0.00000000000E+00  0.00000000000E+00  0.45348512945E+03  0.45348512945E+03  0.00000000000E+00 0. -1.
          1   -1    0    0  501    0 -0.00000000000E+00 -0.00000000000E+00 -0.21621514922E+03  0.21621514922E+03  0.00000000000E+00 0. -1.
         25    2    1    2    0    0  0.53463540264E+02 -0.34443354275E+02  0.10930357598E+03  0.17781149456E+03  0.12499984434E+03 0.  0.
          2    1    1    2  501    0  0.35153058288E+02 -0.69306248770E+01 -0.17235739240E+03  0.17604215910E+03  0.00000000000E+00 0. -1.
          1    1    1    2  502    0 -0.88616598552E+02  0.41373979152E+02  0.30032379664E+03  0.31584662499E+03  0.00000000000E+00 0. -1.
         22    1    3    3    0    0  0.90177650735E+02 -0.21386013936E+02  0.10261934015E+03  0.13827544705E+03  0.00000000000E+00 0.  1.
         22    1    3    3    0    0 -0.36714110470E+02 -0.13057340338E+02  0.66842358342E+01  0.39536047514E+02  0.00000000000E+00 0.  1.
</event>
<event>
 7    1  0.4915160E-006  0.6179445E+02  0.7818608E-02  0.1442870E+00
          2   -1    0    0  502    0  0.00000000000E+00  0.00000000000E+00  0.10895344244E+04  0.10895344244E+04  0.00000000000E+00 0. -1.
          1   -1    0    0  501    0 -0.00000000000E+00 -0.00000000000E+00 -0.20981689106E+02  0.20981689106E+02  0.00000000000E+00 0. -1.
         25    2    1    2    0    0 -0.28307370670E+02 -0.18416431733E+02  0.47211227538E+03  0.48955107307E+03  0.12501912009E+03 0.  0.
          2    1    1    2  501    0  0.34483093512E+02  0.59157406193E+02  0.91186688694E+02  0.11403374343E+03  0.00000000000E+00 0. -1.
          1    1    1    2  502    0 -0.61757228420E+01 -0.40740974460E+02  0.50525377122E+03  0.50693129701E+03  0.00000000000E+00 0. -1.
         22    1    3    3    0    0 -0.79486483011E+01 -0.64967467919E+02  0.15289244325E+03  0.16631311464E+03  0.00000000000E+00 0. -1.
         22    1    3    3    0    0 -0.20358722369E+02  0.46551036186E+02  0.31921983213E+03  0.32323795843E+03  0.00000000000E+00 0. -1.
</event>
<event>
 7    1  0.4915160E-006  0.5413436E+02  0.7818608E-02  0.1491944E+00
          2   -1    0    0  502    0  0.00000000000E+00  0.00000000000E+00  0.13489633889E+04  0.13489633889E+04  0.00000000000E+00 0. -1.
          1   -1    0    0  501    0 -0.00000000000E+00 -0.00000000000E+00 -0.55685450654E+03  0.55685450654E+03  0.00000000000E+00 0. -1.
         25    2    1    2    0    0 -0.44576427713E+01 -0.85384174749E+02 -0.10256224835E+03  0.18290894211E+03  0.12500535365E+03 0.  0.
          2    1    1    2  501    0 -0.11645493014E+01  0.52814705048E+02 -0.41222437858E+03  0.41559558171E+03  0.00000000000E+00 0. -1.
          1    1    1    2  502    0  0.56221920727E+01  0.32569469701E+02  0.13068955093E+04  0.13073133717E+04  0.00000000000E+00 0. -1.
         22    1    3    3    0    0  0.53224905667E+02 -0.69104252069E+01 -0.30284060584E+02  0.61626040642E+02  0.00000000000E+00 0. -1.
         22    1    3    3    0    0 -0.57682548438E+02 -0.78473749542E+02 -0.72278187768E+02  0.12128290147E+03  0.00000000000E+00 0. -1.
</event>
<event>
 7    1  0.4915160E-006  0.1207150E+03  0.7818608E-02  0.1356640E+00
          2   -1    0    0  502    0  0.00000000000E+00  0.00000000000E+00  0.48044972469E+03  0.48044972469E+03  0.00000000000E+00 0. -1.
          1   -1    0    0  501    0 -0.00000000000E+00 -0.00000000000E+00 -0.83210415770E+03  0.83210415770E+03  0.00000000000E+00 0. -1.
         25    2    1    2    0    0  0.71509173511E+02 -0.54005171635E+02  0.75247995830E+02  0.17122495619E+03  0.12500241712E+03 0.  0.
          2    1    1    2  501    0  0.18688672866E+02 -0.37377766789E+02 -0.77199400070E+03  0.77312424685E+03  0.00000000000E+00 0. -1.
          1    1    1    2  502    0 -0.90197846376E+02  0.91382938423E+02  0.34509157186E+03  0.36820467935E+03  0.00000000000E+00 0. -1.
         22    1    3    3    0    0 -0.18603936002E+00 -0.71342456868E+02  0.86839914505E+01  0.71869273477E+02  0.00000000000E+00 0. -1.
         22    1    3    3    0    0  0.71695212871E+02  0.17337285233E+02  0.66564004380E+02  0.99355682711E+02  0.00000000000E+00 0. -1.
</event>
<event>
 7    1  0.4915160E-006  0.4619130E+02  0.7818608E-02  0.1523563E+00
          2   -1    0    0  502    0  0.00000000000E+00  0.00000000000E+00  0.10332464114E+03  0.10332464114E+03  0.00000000000E+00 0. -1.
          1   -1    0    0  501    0 -0.00000000000E+00 -0.00000000000E+00 -0.86809453180E+03  0.86809453180E+03  0.00000000000E+00 0. -1.
         25    2    1    2    0    0  0.30872347355E+02  0.25340653371E+02 -0.53212963081E+03  0.54807110900E+03  0.12499898398E+03 0.  0.
          2    1    1    2  501    0 -0.98720759482E+01 -0.48470987876E+02 -0.32350373709E+03  0.32726375060E+03  0.00000000000E+00 0. -1.
          1    1    1    2  502    0 -0.21000271407E+02  0.23130334504E+02  0.90863477231E+02  0.96084313330E+02  0.00000000000E+00 0. -1.
         22    1    3    3    0    0  0.68694097039E+02  0.50046304834E+02 -0.31305191181E+03  0.32438404875E+03  0.00000000000E+00 0.  1.
         22    1    3    3    0    0 -0.37821749684E+02 -0.24705651463E+02 -0.21907771900E+03  0.22368706025E+03  0.00000000000E+00 0.  1.
</event>
<event>
 7    1  0.4915160E-006  0.3834503E+02  0.7818608E-02  0.1541541E+00
          2   -1    0    0  502    0  0.00000000000E+00  0.00000000000E+00  0.18671098647E+02  0.18671098647E+02  0.00000000000E+00 0. -1.
          1   -1    0    0  501    0 -0.00000000000E+00 -0.00000000000E+00 -0.26299840132E+04  0.26299840132E+04  0.00000000000E+00 0. -1.
         25    2    1    2    0    0 -0.79505845252E+01 -0.54805168037E+02 -0.56352794301E+03  0.57987690810E+03  0.12500667084E+03 0.  0.
          2    1    1    2  501    0 -0.18628842562E+02  0.27768772150E+02 -0.20234512720E+04  0.20237275480E+04  0.00000000000E+00 0. -1.
          1    1    1    2  502    0  0.26579427087E+02  0.27036395887E+02 -0.24333699528E+02  0.45050655706E+02  0.00000000000E+00 0. -1.
         22    1    3    3    0    0  0.16652504440E+02  0.90955194651E+01 -0.42428025736E+03  0.42470433382E+03  0.00000000000E+00 0. -1.
         22    1    3    3    0    0 -0.24603088965E+02 -0.63900687502E+02 -0.13924768565E+03  0.15517257428E+03  0.00000000000E+00 0. -1.
</event>
<event>
 7    1  0.4915160E-006  0.1294862E+03  0.7818608E-02  0.1390871E+00
          2   -1    0    0  502    0  0.00000000000E+00  0.00000000000E+00  0.45284776565E+03  0.45284776565E+03  0.00000000000E+00 0. -1.
          1   -1    0    0  501    0 -0.00000000000E+00 -0.00000000000E+00 -0.74184567630E+03  0.74184567630E+03  0.00000000000E+00 0. -1.
         25    2    1    2    0    0 -0.71515256739E+02  0.14069510033E+03 -0.40217793253E+03  0.44976199807E+03  0.12501688805E+03 0.  0.
          2    1    1    2  501    0  0.92419641866E+01 -0.27900095317E+02 -0.30548167510E+03  0.30689229877E+03  0.00000000000E+00 0. -1.
          1    1    1    2  502    0  0.62273292553E+02 -0.11279500501E+03  0.41866169699E+03  0.43803914511E+03  0.00000000000E+00 0. -1.
         22    1    3    3    0    0  0.24408685886E+02  0.88878261910E+02 -0.19287700827E+03  0.21376779390E+03  0.00000000000E+00 0. -1.
         22    1    3    3    0    0 -0.95923942626E+02  0.51816838421E+02 -0.20930092425E+03  0.23599420418E+03  0.00000000000E+00 0. -1.
</event>
<event>
 7    1  0.4915160E-006  0.6857147E+02  0.7818608E-02  0.1395299E+00
          2   -1    0    0  502    0  0.00000000000E+00  0.00000000000E+00  0.11058077900E+03  0.11058077900E+03  0.00000000000E+00 0. -1.
          1   -1    0    0  501    0 -0.00000000000E+00 -0.00000000000E+00 -0.39796041561E+03  0.39796041561E+03  0.00000000000E+00 0. -1.
         25    2    1    2    0    0  0.47059787169E+02 -0.32698247112E+02  0.47214005227E+01  0.13759072444E+03  0.12500046759E+03 0.  0.
          2    1    1    2  501    0  0.35558475584E+02  0.40064887218E+02 -0.28240372568E+03  0.28743949738E+03  0.00000000000E+00 0. -1.
          1    1    1    2  502    0 -0.82618262753E+02 -0.73666401061E+01 -0.96973114496E+01  0.83510972788E+02  0.00000000000E+00 0. -1.
         22    1    3    3    0    0  0.23993527564E+02  0.47199962607E+02  0.11400581812E+02  0.54161786350E+02  0.00000000000E+00 0.  1.
         22    1    3    3    0    0  0.23066259605E+02 -0.79898209719E+02 -0.66791812889E+01  0.83428938091E+02  0.00000000000E+00 0.  1.
</event>
<event>
 7    1  0.4915160E-006  0.3914450E+02  0.7818608E-02  0.1549822E+00
          2   -1    0    0  502    0  0.00000000000E+00  0.00000000000E+00  0.11345652755E+04  0.11345652755E+04  0.00000000000E+00 0. -1.
          1   -1    0    0  501    0 -0.00000000000E+00 -0.00000000000E+00 -0.10598880326E+04  0.10598880326E+04  0.00000000000E+00 0. -1.
         25    2    1    2    0    0 -0.55744448090E+02  0.42095124103E+02  0.75990042448E+02  0.16210741509E+03  0.12499953804E+03 0.  0.
          2    1    1    2  501    0  0.23767945153E+02 -0.19978983610E+02 -0.10162200120E+04  0.10166942450E+04  0.00000000000E+00 0. -1.
          1    1    1    2  502    0  0.31976502937E+02 -0.22116140493E+02  0.10149072124E+04  0.10156516481E+04  0.00000000000E+00 0. -1.
         22    1    3    3    0    0 -0.95817959283E+02  0.36088071341E+02  0.49781314620E+02  0.11384906455E+03  0.00000000000E+00 0. -1.
         22    1    3    3    0    0  0.40073511193E+02  0.60070527616E+01  0.26208727828E+02  0.48258350538E+02  0.00000000000E+00 0. -1.
</event>
<event>
 7    1  0.4915160E-006  0.6330866E+02  0.7818608E-02  0.1388502E+00
          2   -1    0    0  502    0  0.00000000000E+00  0.00000000000E+00  0.11551611949E+04  0.11551611949E+04  0.00000000000E+00 0. -1.
          1   -1    0    0  501    0 -0.00000000000E+00 -0.00000000000E+00 -0.39446332232E+02  0.39446332232E+02  0.00000000000E+00 0. -1.
         25    2    1    2    0    0  0.32114097039E+02 -0.30424645103E+02  0.74490002355E+03  0.75660920294E+03  0.12499786656E+03 0.  0.
          2    1    1    2  501    0  0.20355328084E+02  0.62061831283E+02  0.32858330081E+01  0.65397301031E+02  0.00000000000E+00 0. -1.
          1    1    1    2  502    0 -0.52469425123E+02 -0.31637186181E+02  0.36752900614E+03  0.37260102319E+03  0.00000000000E+00 0. -1.
         22    1    3    3    0    0 -0.13398000424E+02  0.64019155978E+01  0.60197633384E+03  0.60215944520E+03  0.00000000000E+00 0.  1.
         22    1    3    3    0    0  0.45512097463E+02 -0.36826560700E+02  0.14292368970E+03  0.15444975774E+03  0.00000000000E+00 0.  1.
</event>
<event>
 7    1  0.4915160E-006  0.1377888E+03  0.7818608E-02  0.1250547E+00
          2   -1    0    0  502    0  0.00000000000E+00  0.00000000000E+00  0.20218457353E+04  0.20218457353E+04  0.00000000000E+00 0. -1.
          1   -1    0    0  501    0 -0.00000000000E+00 -0.00000000000E+00 -0.12216278735E+04  0.12216278735E+04  0.00000000000E+00 0. -1.
         25    2    1    2    0    0 -0.17037133730E+02 -0.10736642348E+03  0.22272030894E+02  0.16711772899E+03  0.12495790958E+03 0.  0.
          2    1    1    2  501    0 -0.79579316701E+02  0.11569745922E+03 -0.11436881223E+04  0.11522765687E+04  0.00000000000E+00 0. -1.
          1    1    1    2  502    0  0.96616450431E+02 -0.83310357450E+01  0.19216339533E+04  0.19240793110E+04  0.00000000000E+00 0. -1.
         22    1    3    3    0    0 -0.63633822217E+02 -0.27614851568E+02 -0.82097500060E+01  0.69851580886E+02  0.00000000000E+00 0. -1.
         22    1    3    3    0    0  0.46596688487E+02 -0.79751571911E+02  0.30481780900E+02  0.97266148104E+02  0.00000000000E+00 0. -1.
</event>
<event>
 7    1  0.4915160E-006  0.8187031E+02  0.7818608E-02  0.1361285E+00
          2   -1    0    0  502    0  0.00000000000E+00  0.00000000000E+00  0.61970450727E+03  0.61970450727E+03  0.00000000000E+00 0. -1.
          1   -1    0    0  501    0 -0.00000000000E+00 -0.00000000000E+00 -0.20363272094E+04  0.20363272094E+04  0.00000000000E+00 0. -1.
         25    2    1    2    0    0 -0.14617741409E+01 -0.24009724073E+02 -0.15723192992E+04  0.15774638117E+04  0.12500197981E+03 0.  0.
          2    1    1    2  501    0  0.19510014484E+02 -0.55950913665E+02 -0.45679152610E+03  0.46061876179E+03  0.00000000000E+00 0. -1.
          1    1    1    2  502    0 -0.18048240343E+02  0.79960637738E+02  0.61248812315E+03  0.61794914319E+03  0.00000000000E+00 0. -1.
         22    1    3    3    0    0 -0.43601676063E+01  0.20110679757E+02 -0.13789604473E+04  0.13791139785E+04  0.00000000000E+00 0.  1.
         22    1    3    3    0    0  0.28983934654E+01 -0.44120403831E+02 -0.19335885188E+03  0.19834983317E+03  0.00000000000E+00 0.  1.
</event>
<event>
 7    1  0.4915160E-006  0.8207051E+02  0.7818608E-02  0.1337544E+00
          2   -1    0    0  502    0  0.00000000000E+00  0.00000000000E+00  0.55131944014E+03  0.55131944014E+03  0.00000000000E+00 0. -1.
          1   -1    0    0  501    0 -0.00000000000E+00 -0.00000000000E+00 -0.29475491163E+03  0.29475491163E+03  0.00000000000E+00 0. -1.
         25    2    1    2    0    0 -0.10270388451E+03  0.10303141739E+03  0.36020917484E+03  0.40809231562E+03  0.12500051025E+03 0.  0.
          2    1    1    2  501    0  0.37255715386E+02 -0.72085649474E+02 -0.25640329263E+03  0.26893675401E+03  0.00000000000E+00 0. -1.
          1    1    1    2  502    0  0.65448169126E+02 -0.30945767912E+02  0.15275864630E+03  0.16904528213E+03  0.00000000000E+00 0. -1.
         22    1    3    3    0    0 -0.75189741522E+02  0.16404586873E+02  0.70174305123E+02  0.10414912770E+03  0.00000000000E+00 0. -1.
         22    1    3    3    0    0 -0.27514142989E+02  0.86626830514E+02  0.29003486972E+03  0.30394318792E+03  0.00000000000E+00 0. -1.
</event>
<event>
 7    1  0.4915160E-006  0.1205450E+03  0.7818608E-02  0.1303888E+00
          2   -1    0    0  502    0  0.00000000000E+00  0.00000000000E+00  0.12960413954E+04  0.12960413954E+04  0.00000000000E+00 0. -1.
          1   -1    0    0  501    0 -0.00000000000E+00 -0.00000000000E+00 -0.96061080183E+02  0.96061080183E+02  0.00000000000E+00 0. -1.
         25    2    1    2    0    0  0.67791130035E+01 -0.13588955214E+03  0.38980400918E+03  0.43137400444E+03  0.12499775750E+03 0.  0.
          2    1    1    2  501    0  0.53629689995E+02  0.10794481189E+03 -0.24837995816E+02  0.12306564142E+03  0.00000000000E+00 0. -1.
          1    1    1    2  502    0 -0.60408802999E+02  0.27944740252E+02  0.83501430189E+03  0.83766282975E+03  0.00000000000E+00 0. -1.
         22    1    3    3    0    0 -0.28202414435E+02  0.53715805911E+01  0.13427834679E+03  0.13731316206E+03  0.00000000000E+00 0.  1.
         22    1    3    3    0    0  0.34981527439E+02 -0.14126113273E+03  0.25552566239E+03  0.29406084238E+03  0.00000000000E+00 0.  1.
</event>
<event>
 7    1  0.4915160E-006  0.1121115E+03  0.7818608E-02  0.1276341E+00
          2   -1    0    0  502    0  0.00000000000E+00  0.00000000000E+00  0.75340279916E+03  0.75340279916E+03  0.00000000000E+00 0. -1.
          1   -1    0    0  501    0 -0.00000000000E+00 -0.00000000000E+00 -0.19548583564E+03  0.19548583564E+03  0.00000000000E+00 0. -1.
         25    2    1    2    0    0 -0.26869954444E+02 -0.48227933815E+02  0.20614257891E+03  0.24732012691E+03  0.12499821713E+03 0.  0.
          2    1    1    2  501    0 -0.40370099211E+02  0.11193470463E+03 -0.14991542679E+03  0.19139947284E+03  0.00000000000E+00 0. -1.
          1    1    1    2  502    0  0.67240053655E+02 -0.63706770819E+02  0.50168981140E+03  0.51016903505E+03  0.00000000000E+00 0. -1.
         22    1    3    3    0    0 -0.53594662986E+02  0.26578060969E+01  0.17265057864E+03  0.18079732890E+03  0.00000000000E+00 0. -1.
         22    1    3    3    0    0  0.26724708543E+02 -0.50885739912E+02  0.33492000269E+02  0.66522798010E+02  0.00000000000E+00 0. -1.
</event>
<event>
 7    1  0.4915160E-006  0.2175593E+03  0.7818608E-02  0.1273680E+00
          2   -1    0    0  502    0  0.00000000000E+00  0.00000000000E+00  0.22361240473E+03  0.22361240473E+03  0.00000000000E+00 0. -1.
          1   -1    0    0  501    0 -0.00000000000E+00 -0.00000000000E+00 -0.14554286806E+04  0.14554286806E+04  0.00000000000E+00 0. -1.
         25    2    1    2    0    0 -0.17236334850E+03 -0.97479348822E+02 -0.14245380406E+03  0.27409448204E+03  0.12499340559E+03 0.  0.
          2    1    1    2  501    0 -0.41996324823E+02  0.25179441963E+02 -0.11652917663E+04  0.11663201089E+04  0.00000000000E+00 0. -1.
          1    1    1    2  502    0  0.21435967333E+03  0.72299906859E+02  0.75929294527E+02  0.23862649444E+03  0.00000000000E+00 0. -1.
         22    1    3    3    0    0 -0.15545005330E+03 -0.32927783347E+02 -0.64529383295E+02  0.17150218452E+03  0.00000000000E+00 0. -1.
         22    1    3    3    0    0 -0.16913295207E+02 -0.64551565475E+02 -0.77924420764E+02  0.10259229752E+03  0.00000000000E+00 0. -1.
</event>
<event>
 7    1  0.4915160E-006  0.1307013E+03  0.7818608E-02  0.1409048E+00
          2   -1    0    0  502    0  0.00000000000E+00  0.00000000000E+00  0.15063034499E+03  0.15063034499E+03  0.00000000000E+00 0. -1.
          1   -1    0    0  501    0 -0.00000000000E+00 -0.00000000000E+00 -0.42102235403E+03  0.42102235403E+03  0.00000000000E+00 0. -1.
         25    2    1    2    0    0  0.11792328302E+03  0.43074006762E+02  0.33836243448E+02  0.18036876887E+03  0.12500692251E+03 0.  0.
          2    1    1    2  501    0 -0.11276108540E+03 -0.67754258417E+02 -0.32998463532E+03  0.35524014618E+03  0.00000000000E+00 0. -1.
          1    1    1    2  502    0 -0.51621976197E+01  0.24680251656E+02  0.25756382837E+02  0.36043783970E+02  0.00000000000E+00 0. -1.
         22    1    3    3    0    0  0.66435589187E+02  0.40083407795E+02 -0.42327884312E+02  0.88385614675E+02  0.00000000000E+00 0. -1.
         22    1    3    3    0    0  0.51487693829E+02  0.29905989669E+01  0.76164127759E+02  0.91983154193E+02  0.00000000000E+00 0. -1.
</event>
<event>
 7    1  0.4915160E-006  0.1800579E+03  0.7818608E-02  0.1317650E+00
          2   -1    0    0  502    0  0.00000000000E+00  0.00000000000E+00  0.25474288234E+04  0.25474288234E+04  0.00000000000E+00 0. -1.
          1   -1    0    0  501    0 -0.00000000000E+00 -0.00000000000E+00 -0.10463714497E+04  0.10463714497E+04  0.00000000000E+00 0. -1.
         25    2    1    2    0    0 -0.16780293978E+03 -0.14067481780E+02  0.24108007051E+03  0.31952140548E+03  0.12497442746E+03 0.  0.
          2    1    1    2  501    0 -0.57526940308E+01 -0.38911866056E+02 -0.10031336482E+04  0.10039045488E+04  0.00000000000E+00 0. -1.
          1    1    1    2  502    0  0.17355563381E+03  0.52979347836E+02  0.22631109514E+04  0.22703743188E+04  0.00000000000E+00 0. -1.
         22    1    3    3    0    0 -0.17724898269E+03 -0.40283874563E+02  0.21168617284E+03  0.27901797108E+03  0.00000000000E+00 0.  1.
         22    1    3    3    0    0  0.94460429190E+01  0.26216392782E+02  0.29393897678E+02  0.40503434398E+02  0.00000000000E+00 0.  1.
</event>
<event>
 7    1  0.4915160E-006  0.3472250E+02  0.7818608E-02  0.1596082E+00
          2   -1    0    0  502    0  0.00000000000E+00  0.00000000000E+00  0.21216142269E+03  0.21216142269E+03  0.00000000000E+00 0. -1.
          1   -1    0    0  501    0 -0.00000000000E+00 -0.00000000000E+00 -0.75886961071E+03  0.75886961071E+03  0.00000000000E+00 0. -1.
         25    2    1    2    0    0  0.15231928281E+02  0.39779006574E+02 -0.17119049064E+02  0.13316394400E+03  0.12500077255E+03 0.  0.
          2    1    1    2  501    0  0.10167946871E+02 -0.33208905369E+02 -0.68216674236E+03  0.68305027847E+03  0.00000000000E+00 0. -1.
          1    1    1    2  502    0 -0.25399875152E+02 -0.65701012049E+01  0.15257760340E+03  0.15481681093E+03  0.00000000000E+00 0. -1.
         22    1    3    3    0    0 -0.20427133357E+02  0.19435038756E+02  0.48301437744E+02  0.55928681343E+02  0.00000000000E+00 0. -1.
         22    1    3    3    0    0  0.35659061638E+02  0.20343967819E+02 -0.65420486809E+02  0.77235262658E+02  0.00000000000E+00 0. -1.
</event>
<event>
 7    1  0.4915160E-006  0.1012278E+03  0.7818608E-02  0.1307714E+00
          2   -1    0    0  502    0  0.00000000000E+00  0.00000000000E+00  0.80171318370E+03  0.80171318370E+03  0.00000000000E+00 0. -1.
          1   -1    0    0  501    0 -0.00000000000E+00 -0.00000000000E+00 -0.11136854400E+03  0.11136854400E+03  0.00000000000E+00 0. -1.
         25    2    1    2    0    0 -0.11354136262E+03 -0.94252446605E+02  0.22179334618E+03  0.29426322625E+03  0.12499357263E+03 0.  0.
          2    1    1    2  501    0  0.76414296698E+02  0.43636670731E+01 -0.49871098981E+02  0.91352683835E+02  0.00000000000E+00 0. -1.
          1    1    1    2  502    0  0.37127065919E+02  0.89888779532E+02  0.51842239249E+03  0.52746581761E+03  0.00000000000E+00 0. -1.
         22    1    3    3    0    0 -0.13010931031E+03 -0.43142605436E+02  0.13642504451E+03  0.19339469952E+03  0.00000000000E+00 0. -1.
         22    1    3    3    0    0  0.16567947692E+02 -0.51109841169E+02  0.85368301673E+02  0.10086852674E+03  0.00000000000E+00 0. -1.
</event>
<event>
 7    1  0.4915160E-006  0.2188748E+03  0.7818608E-02  0.1206137E+00
          2   -1    0    0  502    0  0.00000000000E+00  0.00000000000E+00  0.19765580228E+04  0.19765580228E+04  0.00000000000E+00 0. -1.
          1   -1    0    0  501    0 -0.00000000000E+00 -0.00000000000E+00 -0.12292307831E+04  0.12292307831E+04  0.00000000000E+00 0. -1.
         25    2    1    2    0    0  0.22543602551E+03  0.21365433355E+03  0.44691335000E+03  0.55841396587E+03  0.12500015611E+03 0.  0.
          2    1    1    2  501    0 -0.14273882640E+03 -0.16353585564E+03 -0.11618316916E+04  0.11819353740E+04  0.00000000000E+00 0. -1.
          1    1    1    2  502    0 -0.82697199110E+02 -0.50118477911E+02  0.14622455813E+04  0.14654394660E+04  0.00000000000E+00 0. -1.
         22    1    3    3    0    0  0.16336744721E+03  0.13775371044E+03  0.19975697777E+03  0.29251984158E+03  0.00000000000E+00 0. -1.
         22    1    3    3    0    0  0.62068578297E+02  0.75900623110E+02  0.24715637223E+03  0.26589412429E+03  0.00000000000E+00 0. -1.
</event>
<event>
 7    1  0.4915160E-006  0.8005254E+02  0.7818608E-02  0.1507363E+00
          2   -1    0    0  502    0  0.00000000000E+00  0.00000000000E+00  0.37621529255E+03  0.37621529255E+03  0.00000000000E+00 0. -1.
          1   -1    0    0  501    0 -0.00000000000E+00 -0.00000000000E+00 -0.22568712302E+03  0.22568712302E+03  0.00000000000E+00 0. -1.
         25    2    1    2    0    0 -0.20245414983E+02 -0.73114411078E+02 -0.18857715675E+02  0.14743010548E+03  0.12499771449E+03 0.  0.
          2    1    1    2  501    0  0.18163601000E+01  0.81144328884E+02 -0.13062564862E+03  0.15378804034E+03  0.00000000000E+00 0. -1.
          1    1    1    2  502    0  0.18429054883E+02 -0.80299178062E+01  0.30001153383E+03  0.30068426975E+03  0.00000000000E+00 0. -1.
         22    1    3    3    0    0  0.39452779419E+02 -0.27319882570E+02 -0.46932217294E+02  0.67123250872E+02  0.00000000000E+00 0.  1.
         22    1    3    3    0    0 -0.59698194402E+02 -0.45794528508E+02  0.28074501620E+02  0.80306854610E+02  0.00000000000E+00 0.  1.
</event>
<event>
 7    1  0.4915160E-006  0.7547441E+02  0.7818608E-02  0.1344044E+00
          2   -1    0    0  502    0  0.00000000000E+00  0.00000000000E+00  0.16964967167E+04  0.16964967167E+04  0.00000000000E+00 0. -1.
          1   -1    0    0  501    0 -0.00000000000E+00 -0.00000000000E+00 -0.87957778937E+03  0.87957778937E+03  0.00000000000E+00 0. -1.
         25    2    1    2    0    0  0.92915480649E+02 -0.61484533545E+01  0.41767786135E+03  0.44581533531E+03  0.12500170926E+03 0.  0.
          2    1    1    2  501    0 -0.43478176318E+02  0.61771777124E+02 -0.86276265617E+03  0.86606322237E+03  0.00000000000E+00 0. -1.
          1    1    1    2  502    0 -0.49437304331E+02 -0.55623323769E+02  0.12620037221E+04  0.12641959484E+04  0.00000000000E+00 0. -1.
         22    1    3    3    0    0  0.29562890230E+02  0.22811422944E+02  0.33768896123E+03  0.33974720018E+03  0.00000000000E+00 0.  1.
         22    1    3    3    0    0  0.63352590420E+02 -0.28959876299E+02  0.79988900121E+02  0.10606813513E+03  0.00000000000E+00 0.  1.
</event>
<event>
 7    1  0.4915160E-006  0.2787447E+03  0.7818608E-02  0.1226169E+00
          2   -1    0    0  502    0  0.00000000000E+00  0.00000000000E+00  0.11605192730E+04  0.11605192730E+04  0.00000000000E+00 0. -1.
          1   -1    0    0  501    0 -0.00000000000E+00 -0.00000000000E+00 -0.56739707304E+03  0.56739707304E+03  0.00000000000E+00 0. -1.
         25    2    1    2    0    0  0.31623146600E+03  0.28008323479E+02  0.14589108987E+03  0.37107350408E+03  0.12499811621E+03 0.  0.
          2    1    1    2  501    0 -0.26568078141E+03 -0.62936390898E+02 -0.41263307625E+03  0.49478613817E+03  0.00000000000E+00 0. -1.
          1    1    1    2  502    0 -0.50550684584E+02  0.34928067418E+02  0.85986418633E+03  0.86205670378E+03  0.00000000000E+00 0. -1.
         22    1    3    3    0    0  0.27488909334E+03 -0.15878621176E+02  0.14405169938E+03  0.31075237142E+03  0.00000000000E+00 0.  1.
         22    1    3    3    0    0  0.41342372653E+02  0.43886944656E+02  0.18393904895E+01  0.60321132658E+02  0.00000000000E+00 0.  1.
</event>
<event>
 7    1  0.4915160E-006  0.5174060E+02  0.7818608E-02  0.1436809E+00
          2   -1    0    0  502    0  0.00000000000E+00  0.00000000000E+00  0.62936447026E+03  0.62936447026E+03  0.00000000000E+00 0. -1.
          1   -1    0    0  501    0 -0.00000000000E+00 -0.00000000000E+00 -0.48732380507E+03  0.48732380507E+03  0.00000000000E+00 0. -1.
         25    2    1    2    0    0  0.72668158024E+01  0.35378502523E+02 -0.67369962608E+02  0.14651910937E+03  0.12499876998E+03 0.  0.
          2    1    1    2  501    0 -0.51167371558E+02 -0.76804889246E+01 -0.37746892120E+03  0.38099852532E+03  0.00000000000E+00 0. -1.
          1    1    1    2  502    0  0.43900555756E+02 -0.27698013598E+02  0.58687954900E+03  0.58917064063E+03  0.00000000000E+00 0. -1.
         22    1    3    3    0    0 -0.30074005337E+01  0.67046826161E+02  0.45484983519E+01  0.67268196003E+02  0.00000000000E+00 0.  1.
         22    1    3    3    0    0  0.10274216336E+02 -0.31668323638E+02 -0.71918460960E+02  0.79250913372E+02  0.00000000000E+00 0.  1.
</event>
<event>
 7    1  0.4915160E-006  0.1256218E+03  0.7818608E-02  0.1242775E+00
          2   -1    0    0  502    0  0.00000000000E+00  0.00000000000E+00  0.10889109941E+03  0.10889109941E+03  0.00000000000E+00 0. -1.
          1   -1    0    0  501    0 -0.00000000000E+00 -0.00000000000E+00 -0.21660055180E+04  0.21660055180E+04  0.00000000000E+00 0. -1.
         25    2    1    2    0    0  0.56612752296E+02 -0.22419756168E+03 -0.82794081873E+03  0.86866497581E+03  0.12499316173E+03 0.  0.
          2    1    1    2  501    0 -0.49356682704E+02  0.10387341714E+03 -0.12728390806E+04  0.12780239020E+04  0.00000000000E+00 0. -1.
          1    1    1    2  502    0 -0.72560695920E+01  0.12032414454E+03  0.43665480707E+02  0.12820773967E+03  0.00000000000E+00 0. -1.
         22    1    3    3    0    0 -0.10876813762E+02  0.12435560318E+02 -0.62314988953E+02  0.64467868634E+02  0.00000000000E+00 0.  1.
         22    1    3    3    0    0  0.67489566058E+02 -0.23663312200E+03 -0.76562582978E+03  0.80419710717E+03  0.00000000000E+00 0.  1.
</event>
<event>
 7    1  0.4915160E-006  0.6423200E+02  0.7818608E-02  0.1465769E+00
          2   -1    0    0  502    0  0.00000000000E+00  0.00000000000E+00  0.54785200597E+03  0.54785200597E+03  0.00000000000E+00 0. -1.
          1   -1    0    0  501    0 -0.00000000000E+00 -0.00000000000E+00 -0.47935449284E+03  0.47935449284E+03  0.00000000000E+00 0. -1.
         25    2    1    2    0    0 -0.26414168603E+01  0.88710572723E+02 -0.91598931230E+02  0.17857937931E+03  0.12499475076E+03 0.  0.
          2    1    1    2  501    0  0.19491928317E+02 -0.59730816647E+02 -0.34083369082E+03  0.34657655796E+03  0.00000000000E+00 0. -1.
          1    1    1    2  502    0 -0.16850511457E+02 -0.28979756076E+02  0.50093013519E+03  0.50205056154E+03  0.00000000000E+00 0. -1.
         22    1    3    3    0    0 -0.99530352433E+01 -0.11504571438E+02  0.22108399566E+02  0.26836531182E+02  0.00000000000E+00 0.  1.
         22    1    3    3    0    0  0.73116183830E+01  0.10021514416E+03 -0.11370733080E+03  0.15174284813E+03  0.00000000000E+00 0.  1.
</event>
<event>
 7    1  0.4915160E-006  0.1602010E+03  0.7818608E-02  0.1207305E+00
          2   -1    0    0  502    0  0.00000000000E+00  0.00000000000E+00  0.11076440399E+04  0.11076440399E+04  0.00000000000E+00 0. -1.
          1   -1    0    0  501    0 -0.00000000000E+00 -0.00000000000E+00 -0.16682484931E+03  0.16682484931E+03  0.00000000000E+00 0. -1.
         25    2    1    2    0    0 -0.49198436146E+02  0.70040929243E+02  0.34441903486E+02  0.15536203350E+03  0.12499959539E+03 0.  0.
          2    1    1    2  501    0  0.20126346209E+03 -0.19636791634E+02  0.36264398061E+01  0.20225166457E+03  0.00000000000E+00 0. -1.
          1    1    1    2  502    0 -0.15206502594E+03 -0.50404137609E+02  0.90275084734E+03  0.91685519117E+03  0.00000000000E+00 0. -1.
         22    1    3    3    0    0 -0.27931572438E+02  0.10279537640E+03  0.53364528924E+01  0.10665617600E+03  0.00000000000E+00 0. -1.
         22    1    3    3    0    0 -0.21266863708E+02 -0.32754447160E+02  0.29105450594E+02  0.48705857502E+02  0.00000000000E+00 0. -1.
</event>
<event>
 7    1  0.4915160E-006  0.4506567E+02  0.7818608E-02  0.1514276E+00
          2   -1    0    0  502    0  0.00000000000E+00  0.00000000000E+00  0.19292918859E+03  0.19292918859E+03  0.00000000000E+00 0. -1.
          1   -1    0    0  501    0 -0.00000000000E+00 -0.00000000000E+00 -0.46555328800E+03  0.46555328800E+03  0.00000000000E+00 0. -1.
         25    2    1    2    0    0 -0.42983870655E+02  0.46396381163E+02 -0.11301951310E+03  0.17999592958E+03  0.12499954800E+03 0.  0.
          2    1    1    2  501    0  0.33988679133E+02 -0.24423425465E+01 -0.31495208867E+03  0.31679017268E+03  0.00000000000E+00 0. -1.
          1    1    1    2  502    0  0.89951915221E+01 -0.43954038617E+02  0.15534750236E+03  0.16169637433E+03  0.00000000000E+00 0. -1.
         22    1    3    3    0    0 -0.75868380468E+02 -0.80409745681E+01 -0.66381083610E+02  0.10112920789E+03  0.00000000000E+00 0.  1.
         22    1    3    3    0    0  0.32884509813E+02  0.54437355731E+02 -0.46638429492E+02  0.78866721690E+02  0.00000000000E+00 0.  1.
</event>
<event>
 7    1  0.4915160E-006  0.1028628E+03  0.7818608E-02  0.1324407E+00
          2   -1    0    0  502    0  0.00000000000E+00  0.00000000000E+00  0.70984428349E+03  0.70984428349E+03  0.00000000000E+00 0. -1.
          1   -1    0    0  501    0 -0.00000000000E+00 -0.00000000000E+00 -0.12146423931E+03  0.12146423931E+03  0.00000000000E+00 0. -1.
         25    2    1    2    0    0 -0.79187468157E+02  0.11838982010E+03  0.12209077081E+03  0.22542968621E+03  0.12500232993E+03 0.  0.
          2    1    1    2  501    0  0.61743705131E+02 -0.19753712756E+02 -0.48799399772E+02  0.81141085210E+02  0.00000000000E+00 0. -1.
          1    1    1    2  502    0  0.17443763026E+02 -0.98636107347E+02  0.51508867314E+03  0.52473775139E+03  0.00000000000E+00 0. -1.
         22    1    3    3    0    0 -0.41136900928E+02  0.91490501848E+02  0.61807766202E+01  0.10050352504E+03  0.00000000000E+00 0. -1.
         22    1    3    3    0    0 -0.38050567228E+02  0.26899318254E+02  0.11590999419E+03  0.12492616116E+03  0.00000000000E+00 0. -1.
</event>
<event>
 7    1  0.4915160E-006  0.6151984E+02  0.7818608E-02  0.1489746E+00
          2   -1    0    0  502    0  0.00000000000E+00  0.00000000000E+00  0.91498995697E+03  0.91498995697E+03  0.00000000000E+00 0. -1.
          1   -1    0    0  501    0 -0.00000000000E+00 -0.00000000000E+00 -0.16540281323E+03  0.16540281323E+03  0.00000000000E+00 0. -1.
         25    2    1    2    0    0  0.41782597493E+02 -0.10297144335E+01  0.11345910505E+03  0.17390896092E+03  0.12499804959E+03 0.  0.
          2    1    1    2  501    0 -0.58079184757E+02 -0.23598295623E+02 -0.12760880586E+03  0.14217622372E+03  0.00000000000E+00 0. -1.
          1    1    1    2  502    0  0.16296587264E+02  0.24628010057E+02  0.76373684455E+03  0.76430758557E+03  0.00000000000E+00 0. -1.
         22    1    3    3    0    0 -0.44195495583E+02 -0.87360166066E+01  0.45665150217E+02  0.64147219428E+02  0.00000000000E+00 0. -1.
         22    1    3    3    0    0  0.85978093076E+02  0.77063021732E+01  0.67793954836E+02  0.10976174149E+03  0.00000000000E+00 0. -1.
</event>
<event>
 7    1  0.4915160E-006  0.1557270E+03  0.7818608E-02  0.1211316E+00
          2   -1    0    0  502    0  0.00000000000E+00  0.00000000000E+00  0.24928545468E+04  0.24928545468E+04  0.00000000000E+00 0. -1.
          1   -1    0    0  501    0 -0.00000000000E+00 -0.00000000000E+00 -0.94652902205E+02  0.94652902205E+02  0.00000000000E+00 0. -1.
         25    2    1    2    0    0 -0.61172285793E+01 -0.19272424989E+03  0.89878707744E+03  0.92769826314E+03  0.12500319947E+03 0.  0.
          2    1    1    2  501    0 -0.10097172852E+03  0.79616606543E+02 -0.21990276629E+02  0.13045177754E+03  0.00000000000E+00 0. -1.
          1    1    1    2  502    0  0.10708895710E+03  0.11310764334E+03  0.15214048437E+04  0.15293574083E+04  0.00000000000E+00 0. -1.
         22    1    3    3    0    0  0.29139270395E+02 -0.16384985664E+03  0.81968064925E+03  0.83640435159E+03  0.00000000000E+00 0.  1.
         22    1    3    3    0    0 -0.35256498974E+02 -0.28874393247E+02  0.79106428195E+02  0.91293911556E+02  0.00000000000E+00 0.  1.
</event>
<event>
 7    1  0.4915160E-006  0.3215700E+03  0.7818608E-02  0.1263598E+00
          2   -1    0    0  502    0  0.00000000000E+00  0.00000000000E+00  0.16410367644E+04  0.16410367644E+04  0.00000000000E+00 0. -1.
          1   -1    0    0  501    0 -0.00000000000E+00 -0.00000000000E+00 -0.17257799558E+03  0.17257799558E+03  0.00000000000E+00 0. -1.
         25    2    1    2    0    0  0.26565876441E+03 -0.15440331279E+03  0.44696351283E+03  0.55661126562E+03  0.12499902844E+03 0.  0.
          2    1    1    2  501    0 -0.29822803340E+03  0.13786341372E+03  0.11250617948E+03  0.34728075266E+03  0.00000000000E+00 0. -1.
          1    1    1    2  502    0  0.32569268986E+02  0.16539899071E+02  0.90898907656E+03  0.90972274175E+03  0.00000000000E+00 0. -1.
         22    1    3    3    0    0  0.24853942711E+03 -0.17571899322E+03  0.41028870996E+03  0.51086772939E+03  0.00000000000E+00 0. -1.
         22    1    3    3    0    0  0.17119337299E+02  0.21315680434E+02  0.36674802863E+02  0.45743536232E+02  0.00000000000E+00 0. -1.
</event>
<event>
 7    1  0.4915160E-006  0.5142883E+02  0.7818608E-02  0.1458449E+00
          2   -1    0    0  502    0  0.00000000000E+00  0.00000000000E+00  0.14898720884E+04  0.14898720884E+04  0.00000000000E+00 0. -1.
          1   -1    0    0  501    0 -0.00000000000E+00 -0.00000000000E+00 -0.13668796694E+03  0.13668796694E+03  0.00000000000E+00 0. -1.
         25    2    1    2    0    0 -0.22999413110E+02  0.41074492911E+01  0.25952476301E+03  0.28900340431E+03  0.12499608372E+03 0.  0.
          2    1    1    2  501    0  0.35600442446E+02  0.38203655448E+02 -0.11593715082E+03  0.12715476291E+03  0.00000000000E+00 0. -1.
          1    1    1    2  502    0 -0.12601029336E+02 -0.42311104739E+02  0.12095965093E+04  0.12104018881E+04  0.00000000000E+00 0. -1.
         22    1    3    3    0    0 -0.20977642007E+02  0.21677598236E+02  0.13211563001E+01  0.30194787356E+02  0.00000000000E+00 0.  1.
         22    1    3    3    0    0 -0.20217711028E+01 -0.17570148945E+02  0.25820360671E+03  0.25880861695E+03  0.00000000000E+00 0.  1.
</event>
<event>
 7    1  0.4915160E-006  0.9189964E+02  0.7818608E-02  0.1316655E+00
          2   -1    0    0  502    0  0.00000000000E+00  0.00000000000E+00  0.68434716248E+02  0.68434716248E+02  0.00000000000E+00 0. -1.
          1   -1    0    0  501    0 -0.00000000000E+00 -0.00000000000E+00 -0.11088234448E+04  0.11088234448E+04  0.00000000000E+00 0. -1.
         25    2    1    2    0    0 -0.99728519373E+01  0.16128814241E+03 -0.38139561784E+03  0.43266767846E+03  0.12500152007E+03 0.  0.
          2    1    1    2  501    0  0.11603959318E+02 -0.76888587952E+02 -0.65550725580E+03  0.66010322620E+03  0.00000000000E+00 0. -1.
          1    1    1    2  502    0 -0.16311073809E+01 -0.84399554461E+02 -0.34858548952E+01  0.84487256370E+02  0.00000000000E+00 0. -1.
         22    1    3    3    0    0 -0.55263039176E+02  0.62949307313E+02 -0.24250557540E+03  0.25656494868E+03  0.00000000000E+00 0. -1.
         22    1    3    3    0    0  0.45290187239E+02  0.98338835101E+02 -0.13889004244E+03  0.17610272979E+03  0.00000000000E+00 0. -1.
</event>
<event>
 7    1  0.4915160E-006  0.2556113E+03  0.7818608E-02  0.1220868E+00
          2   -1    0    0  502    0  0.00000000000E+00  0.00000000000E+00  0.16004298611E+04  0.16004298611E+04  0.00000000000E+00 0. -1.
          1   -1    0    0  501    0 -0.00000000000E+00 -0.00000000000E+00 -0.83576653733E+03  0.83576653733E+03  0.00000000000E+00 0. -1.
         25    2    1    2    0    0 -0.20060367762E+03  0.19696031798E+02 -0.59457158480E+02  0.24452100118E+03  0.12500238869E+03 0.  0.
          2    1    1    2  501    0  0.26846952835E+03 -0.39923619861E+02 -0.65596262986E+03  0.70989911597E+03  0.00000000000E+00 0. -1.
          1    1    1    2  502    0 -0.67865850726E+02  0.20227588063E+02  0.14800831121E+04  0.14817762812E+04  0.00000000000E+00 0. -1.
         22    1    3    3    0    0 -0.11895072800E+03 -0.66560379990E+01  0.27597116434E+02  0.12229137078E+03  0.00000000000E+00 0. -1.
         22    1    3    3    0    0 -0.81652949629E+02  0.26352069797E+02 -0.87054274914E+02  0.12222963040E+03  0.00000000000E+00 0. -1.
</event>
<event>
 7    1  0.4915160E-006  0.1049504E+03  0.7818608E-02  0.1277882E+00
          2   -1    0    0  502    0  0.00000000000E+00  0.00000000000E+00  0.60777868541E+03  0.60777868541E+03  0.00000000000E+00 0. -1.
          1   -1    0    0  501    0 -0.00000000000E+00 -0.00000000000E+00 -0.10805145722E+04  0.10805145722E+04  0.00000000000E+00 0. -1.
         25    2    1    2    0    0 -0.20461850030E+02 -0.44334701330E+01  0.10054101099E+03  0.16177664446E+03  0.12499937936E+03 0.  0.
          2    1    1    2  501    0  0.35880316712E+02  0.10070675820E+03 -0.10421471039E+04  0.10476162630E+04  0.00000000000E+00 0. -1.
          1    1    1    2  502    0 -0.15418466682E+02 -0.96273288069E+02  0.46887020618E+03  0.47890035013E+03  0.00000000000E+00 0. -1.
         22    1    3    3    0    0  0.35864260555E+02  0.10116110059E+00  0.98946571309E+02  0.10524580463E+03  0.00000000000E+00 0. -1.
         22    1    3    3    0    0 -0.56326110585E+02 -0.45346312336E+01  0.15944396761E+01  0.56530839831E+02  0.00000000000E+00 0. -1.
</event>
<event>
 7    1  0.4915160E-006  0.2397021E+03  0.7818608E-02  0.1201814E+00
          2   -1    0    0  502    0  0.00000000000E+00  0.00000000000E+00  0.10911753822E+04  0.10911753822E+04  0.00000000000E+00 0. -1.
          1   -1    0    0  501    0 -0.00000000000E+00 -0.00000000000E+00 -0.27670071131E+03  0.27670071131E+03  0.00000000000E+00 0. -1.
         25    2    1    2    0    0 -0.30816808805E+03  0.71417826833E+02  0.63873466694E+03  0.72365291808E+03  0.12499397833E+03 0.  0.
          2    1    1    2  501    0  0.23256903819E+03 -0.18096337219E+02 -0.16850326319E+03  0.28776585039E+03  0.00000000000E+00 0. -1.
          1    1    1    2  502    0  0.75599049859E+02 -0.53321489613E+02  0.34424326713E+03  0.35645732502E+03  0.00000000000E+00 0. -1.
         22    1    3    3    0    0 -0.98627844708E+02  0.19831232081E+02  0.34370066343E+03  0.35812131403E+03  0.00000000000E+00 0. -1.
         22    1    3    3    0    0 -0.20954024334E+03  0.51586594751E+02  0.29503400351E+03  0.36553160406E+03  0.00000000000E+00 0. -1.
</event>
<event>
 7    1  0.4915160E-006  0.9997767E+02  0.7818608E-02  0.1402891E+00
          2   -1    0    0  502    0  0.00000000000E+00  0.00000000000E+00  0.25286474015E+03  0.25286474015E+03  0.00000000000E+00 0. -1.
          1   -1    0    0  501    0 -0.00000000000E+00 -0.00000000000E+00 -0.93218620151E+03  0.93218620151E+03  0.00000000000E+00 0. -1.
         25    2    1    2    0    0 -0.71396250536E+02 -0.11026019527E+03 -0.57046688463E+03  0.59859118018E+03  0.12499679706E+03 0.  0.
          2    1    1    2  501    0  0.79966736939E+01  0.33657968812E+02 -0.33638041264E+03  0.33815468008E+03  0.00000000000E+00 0. -1.
          1    1    1    2  502    0  0.63399576843E+02  0.76602226460E+02  0.22752583591E+03  0.24830508140E+03  0.00000000000E+00 0. -1.
         22    1    3    3    0    0 -0.17842756118E+02 -0.11546948172E+03 -0.28366297469E+03  0.30678371594E+03  0.00000000000E+00 0.  1.
         22    1    3    3    0    0 -0.53553494418E+02  0.52092864497E+01 -0.28680390993E+03  0.29180746424E+03  0.00000000000E+00 0.  1.
</event>
<event>
 7    1  0.4915160E-006  0.1122254E+03  0.7818608E-02  0.1338353E+00
          2   -1    0    0  502    0  0.00000000000E+00  0.00000000000E+00  0.32313312313E+03  0.32313312313E+03  0.00000000000E+00 0. -1.
          1   -1    0    0  501    0 -0.00000000000E+00 -0.00000000000E+00 -0.60921917016E+03  0.60921917016E+03  0.00000000000E+00 0. -1.
         25    2    1    2    0    0 -0.22486878325E+02  0.95452401065E+02  0.10718492940E+03  0.19165225721E+03  0.12500063214E+03 0.  0.
          2    1    1    2  501    0  0.46234630078E+02  0.25023462965E+02 -0.54385854212E+03  0.54639356562E+03  0.00000000000E+00 0. -1.
          1    1    1    2  502    0 -0.23747751754E+02 -0.12047586403E+03  0.15058756569E+03  0.19430647047E+03  0.00000000000E+00 0. -1.
         22    1    3    3    0    0 -0.60169829218E+02  0.29953842445E+02  0.90873117964E+01  0.67824923598E+02  0.00000000000E+00 0. -1.
         22    1    3    3    0    0  0.37682950893E+02  0.65498558619E+02  0.98097617605E+02  0.12382733361E+03  0.00000000000E+00 0. -1.
</event>
<event>
 7    1  0.4915160E-006  0.7249829E+02  0.7818608E-02  0.1378812E+00
          2   -1    0    0  502    0  0.00000000000E+00  0.00000000000E+00  0.39260815794E+03  0.39260815794E+03  0.00000000000E+00 0. -1.
          1   -1    0    0  501    0 -0.00000000000E+00 -0.00000000000E+00 -0.41458875407E+03  0.41458875407E+03  0.00000000000E+00 0. -1.
         25    2    1    2    0    0  0.84927205514E+02 -0.38987436894E+02 -0.37402263076E+02  0.16048846206E+03  0.12499986680E+03 0.  0.
          2    1    1    2  501    0 -0.70309589125E+02 -0.17014631896E+02 -0.30890283709E+03  0.31725998610E+03  0.00000000000E+00 0. -1.
          1    1    1    2  502    0 -0.14617616389E+02  0.56002068790E+02  0.32432450404E+03  0.32944846385E+03  0.00000000000E+00 0. -1.
         22    1    3    3    0    0  0.70993954096E+02 -0.26992441468E+01  0.34327196307E+02  0.78903636440E+02  0.00000000000E+00 0.  1.
         22    1    3    3    0    0  0.13933251419E+02 -0.36288192747E+02 -0.71729459383E+02  0.81584825619E+02  0.00000000000E+00 0.  1.
</event>
<event>
 7    1  0.4915160E-006  0.1380381E+03  0.7818608E-02  0.1277051E+00
          2   -1    0    0  502    0  0.00000000000E+00  0.00000000000E+00  0.12972655638E+04  0.12972655638E+04  0.00000000000E+00 0. -1.
          1   -1    0    0  501    0 -0.00000000000E+00 -0.00000000000E+00 -0.10993255827E+03  0.10993255827E+03  0.00000000000E+00 0. -1.
         25    2    1    2    0    0 -0.19872965931E+03  0.70361650715E+01  0.66038929899E+03  0.70091555449E+03  0.12500241276E+03 0.  0.
          2    1    1    2  501    0  0.12925820421E+03 -0.34546317459E+02 -0.35878439653E+02  0.13852217815E+03  0.00000000000E+00 0. -1.
          1    1    1    2  502    0  0.69471455091E+02  0.27510152388E+02  0.56282214620E+03  0.56776038943E+03  0.00000000000E+00 0. -1.
         22    1    3    3    0    0 -0.19402654847E+03  0.18722403183E+02  0.45318861896E+03  0.49333229597E+03  0.00000000000E+00 0. -1.
         22    1    3    3    0    0 -0.47031108384E+01 -0.11686238112E+02  0.20720068003E+03  0.20758325852E+03  0.00000000000E+00 0. -1.
</event>
<event>
 7    1  0.4915160E-006  0.6368650E+02  0.7818608E-02  0.1388343E+00
          2   -1    0    0  502    0  0.00000000000E+00  0.00000000000E+00  0.49358114718E+03  0.49358114718E+03  0.00000000000E+00 0. -1.
          1   -1    0    0  501    0 -0.00000000000E+00 -0.00000000000E+00 -0.53510486027E+03  0.53510486027E+03  0.00000000000E+00 0. -1.
         25    2    1    2    0    0 -0.13407143638E+02 -0.51808375390E+02  0.11000307747E+03  0.17489729055E+03  0.12499810369E+03 0.  0.
          2    1    1    2  501    0  0.62796183669E+02  0.10611773058E+02 -0.49766633252E+03  0.50172477409E+03  0.00000000000E+00 0. -1.
          1    1    1    2  502    0 -0.49389040031E+02  0.41196602332E+02  0.34613954196E+03  0.35206394281E+03  0.00000000000E+00 0. -1.
         22    1    3    3    0    0 -0.87137942700E+00  0.16607057800E+02 -0.20872401288E+02  0.26687277988E+02  0.00000000000E+00 0. -1.
         22    1    3    3    0    0 -0.12535764211E+02 -0.68415433191E+02  0.13087547876E+03  0.14821001256E+03  0.00000000000E+00 0. -1.
</event>
<event>
 7    1  0.4915160E-006  0.2202914E+03  0.7818608E-02  0.1307632E+00
          2   -1    0    0  502    0  0.00000000000E+00  0.00000000000E+00  0.19972411664E+03  0.19972411664E+03  0.00000000000E+00 0. -1.
          1   -1    0    0  501    0 -0.00000000000E+00 -0.00000000000E+00 -0.92826779666E+03  0.92826779666E+03  0.00000000000E+00 0. -1.
         25    2    1    2    0    0  0.18247667703E+03 -0.77767250088E+02 -0.79726397488E+01  0.23459226981E+03  0.12499794887E+03 0.  0.
          2    1    1    2  501    0 -0.21441311112E+03  0.62971823094E+02 -0.78705964739E+03  0.81816949422E+03  0.00000000000E+00 0. -1.
          1    1    1    2  502    0  0.31936434090E+02  0.14795426994E+02  0.66488607125E+02  0.75230149274E+02  0.00000000000E+00 0. -1.
         22    1    3    3    0    0  0.16321478556E+03 -0.69656696639E+02 -0.52788638498E+02  0.18514254499E+03  0.00000000000E+00 0.  1.
         22    1    3    3    0    0  0.19261891469E+02 -0.81105534489E+01  0.44815998749E+02  0.49449724813E+02  0.00000000000E+00 0.  1.
</event>
<event>
 7    1  0.4915160E-006  0.1086991E+03  0.7818608E-02  0.1310829E+00
          2   -1    0    0  502    0  0.00000000000E+00  0.00000000000E+00  0.31830950528E+04  0.31830950528E+04  0.00000000000E+00 0. -1.
          1   -1    0    0  501    0 -0.00000000000E+00 -0.00000000000E+00 -0.68339220228E+02  0.68339220228E+02  0.00000000000E+00 0. -1.
         25    2    1    2    0    0  0.65313233616E+02  0.99899608195E+02  0.83115043009E+03  0.84892979417E+03  0.12500003112E+03 0.  0.
          2    1    1    2  501    0 -0.10139811594E+03 -0.40748465320E+02 -0.82606202509E+01  0.10959130070E+03  0.00000000000E+00 0. -1.
          1    1    1    2  502    0  0.36084882325E+02 -0.59151142875E+02  0.22918660227E+04  0.22929131781E+04  0.00000000000E+00 0. -1.
         22    1    3    3    0    0  0.54527694590E+02  0.11789119985E+03  0.48338769336E+03  0.50053498037E+03  0.00000000000E+00 0. -1.
         22    1    3    3    0    0  0.10785539026E+02 -0.17991591658E+02  0.34776273673E+03  0.34839481380E+03  0.00000000000E+00 0. -1.
</event>
<event>
 7    1  0.4915160E-006  0.8451748E+02  0.7818608E-02  0.1334234E+00
          2   -1    0    0  502    0  0.00000000000E+00  0.00000000000E+00  0.11971347121E+04  0.11971347121E+04  0.00000000000E+00 0. -1.
          1   -1    0    0  501    0 -0.00000000000E+00 -0.00000000000E+00 -0.12231302820E+03  0.12231302820E+03  0.00000000000E+00 0. -1.
         25    2    1    2    0    0  0.68456867080E+02  0.64962330361E+02  0.97685034409E+03  0.98932710455E+03  0.12500031209E+03 0.  0.
          2    1    1    2  501    0  0.18731335724E+02 -0.69890926664E+02 -0.94350030844E+02  0.11890135781E+03  0.00000000000E+00 0. -1.
          1    1    1    2  502    0 -0.87188202804E+02  0.49285963023E+01  0.19232137065E+03  0.21121927795E+03  0.00000000000E+00 0. -1.
         22    1    3    3    0    0 -0.17425429084E+02  0.63817603071E+02  0.54650292642E+03  0.55049230751E+03  0.00000000000E+00 0.  1.
         22    1    3    3    0    0  0.85882296164E+02  0.11447272902E+01  0.43034741767E+03  0.43883479704E+03  0.00000000000E+00 0.  1.
</event>
<event>
 7    1  0.4915160E-006  0.3204314E+03  0.7818608E-02  0.1181179E+00
          2   -1    0    0  502    0  0.00000000000E+00  0.00000000000E+00  0.50393061081E+03  0.50393061081E+03  0.00000000000E+00 0. -1.
          1   -1    0    0  501    0 -0.00000000000E+00 -0.00000000000E+00 -0.31336472623E+03  0.31336472623E+03  0.00000000000E+00 0. -1.
         25    2    1    2    0    0  0.18531159210E+03  0.30297639167E+03  0.15785091302E+03  0.40826059895E+03  0.12499890334E+03 0.  0.
          2    1    1    2  501    0  0.11564638931E+02 -0.86100204441E+02 -0.55550783962E+02  0.10311583621E+03  0.00000000000E+00 0. -1.
          1    1    1    2  502    0 -0.19687623103E+03 -0.21687618722E+03  0.88265755518E+02  0.30591890188E+03  0.00000000000E+00 0. -1.
         22    1    3    3    0    0  0.10723197090E+03  0.17227264071E+03  0.15607642668E+03  0.25600079938E+03  0.00000000000E+00 0.  1.
         22    1    3    3    0    0  0.78079621201E+02  0.13070375096E+03  0.17744863458E+01  0.15225979956E+03  0.00000000000E+00 0.  1.
</event>
<event>
 7    1  0.4915160E-006  0.5522068E+02  0.7818608E-02  0.1557329E+00
          2   -1    0    0  502    0  0.00000000000E+00  0.00000000000E+00  0.10099225802E+04  0.10099225802E+04  0.00000000000E+00 0. -1.
          1   -1    0    0  501    0 -0.00000000000E+00 -0.00000000000E+00 -0.12680050988E+04  0.12680050988E+04  0.00000000000E+00 0. -1.
         25    2    1    2    0    0 -0.71255680363E+02 -0.26085037133E+02  0.19501597386E+03  0.24376458446E+03  0.12502856246E+03 0.  0.
          2    1    1    2  501    0  0.52702457039E+02  0.16292489465E+02 -0.12428797180E+04  0.12441032866E+04  0.00000000000E+00 0. -1.
          1    1    1    2  502    0  0.18553223324E+02  0.97925476677E+01  0.78978122548E+03  0.79005980799E+03  0.00000000000E+00 0. -1.
         22    1    3    3    0    0 -0.25227013561E+02  0.50697264780E+02  0.80074246405E+02  0.98073950704E+02  0.00000000000E+00 0. -1.
         22    1    3    3    0    0 -0.46028666802E+02 -0.76782301913E+02  0.11494172746E+03  0.14569063376E+03  0.00000000000E+00 0. -1.
</event>
<event>
 7    1  0.4915160E-006  0.9091431E+02  0.7818608E-02  0.1344606E+00
          2   -1    0    0  502    0  0.00000000000E+00  0.00000000000E+00  0.21160337680E+04  0.21160337680E+04  0.00000000000E+00 0. -1.
          1   -1    0    0  501    0 -0.00000000000E+00 -0.00000000000E+00 -0.19566710420E+02  0.19566710420E+02  0.00000000000E+00 0. -1.
         25    2    1    2    0    0 -0.48141336233E+02  0.92138627602E+01  0.99954218170E+03  0.10085161658E+04  0.12497119749E+03 0.  0.
          2    1    1    2  501    0 -0.14856361761E+02  0.89692253756E+02  0.83710348476E+03  0.84202592363E+03  0.00000000000E+00 0. -1.
          1    1    1    2  502    0  0.62997697994E+02 -0.98906116517E+02  0.25982139110E+03  0.28505838895E+03  0.00000000000E+00 0. -1.
         22    1    3    3    0    0 -0.47429533246E+02 -0.18289228264E+02  0.95368628535E+03  0.95504009725E+03  0.00000000000E+00 0.  1.
         22    1    3    3    0    0 -0.71180298682E+00  0.27503091025E+02  0.45855896349E+02  0.53476068567E+02  0.00000000000E+00 0.  1.
</event>
<event>
 7    1  0.4915160E-006  0.9969615E+02  0.7818608E-02  0.1396024E+00
          2   -1    0    0  502    0  0.00000000000E+00  0.00000000000E+00  0.18620496600E+04  0.18620496600E+04  0.00000000000E+00 0. -1.
          1   -1    0    0  501    0 -0.00000000000E+00 -0.00000000000E+00 -0.19940371395E+02  0.19940371395E+02  0.00000000000E+00 0. -1.
         25    2    1    2    0    0 -0.77276215150E+02 -0.18621464329E+02  0.59925798957E+03  0.61729540811E+03  0.12500044182E+03 0.  0.
          2    1    1    2  501    0 -0.28113779119E+02  0.23485645001E+02  0.30238195249E+02  0.47500616305E+02  0.00000000000E+00 0. -1.
          1    1    1    2  502    0  0.10538999427E+03 -0.48641806714E+01  0.12126131038E+04  0.12171940070E+04  0.00000000000E+00 0. -1.
         22    1    3    3    0    0  0.28839000974E+02 -0.56423898332E+01  0.25840407957E+03  0.26006959238E+03  0.00000000000E+00 0. -1.
         22    1    3    3    0    0 -0.10611521612E+03 -0.12979074496E+02  0.34085391000E+03  0.35722581574E+03  0.00000000000E+00 0. -1.
</event>
<event>
 7    1  0.4915160E-006  0.9770185E+02  0.7818608E-02  0.1323762E+00
          2   -1    0    0  502    0  0.00000000000E+00  0.00000000000E+00  0.21677427740E+03  0.21677427740E+03  0.00000000000E+00 0. -1.
          1   -1    0    0  501    0 -0.00000000000E+00 -0.00000000000E+00 -0.24084522658E+03  0.24084522658E+03  0.00000000000E+00 0. -1.
         25    2    1    2    0    0 -0.11699110788E+03 -0.10479259464E+03 -0.17651893558E+02  0.20150698679E+03  0.12500027665E+03 0.  0.
          2    1    1    2  501    0  0.50015267476E+02  0.47014728034E+02 -0.10387108095E+03  0.12450346618E+03  0.00000000000E+00 0. -1.
          1    1    1    2  502    0  0.66975840401E+02  0.57777866611E+02  0.97452025332E+02  0.13160905101E+03  0.00000000000E+00 0. -1.
         22    1    3    3    0    0 -0.28024849857E+02 -0.29555170068E+02 -0.64206940445E+02  0.76035725081E+02  0.00000000000E+00 0.  1.
         22    1    3    3    0    0 -0.88966258021E+02 -0.75237424577E+02  0.46555046887E+02  0.12547126170E+03  0.00000000000E+00 0.  1.
</event>
<event>
 7    1  0.4915160E-006  0.5390255E+02  0.7818608E-02  0.1443407E+00
          2   -1    0    0  502    0  0.00000000000E+00  0.00000000000E+00  0.61078383113E+03  0.61078383113E+03  0.00000000000E+00 0. -1.
          1   -1    0    0  501    0 -0.00000000000E+00 -0.00000000000E+00 -0.87802283939E+02  0.87802283939E+02  0.00000000000E+00 0. -1.
         25    2    1    2    0    0  0.88372466004E+01  0.10813603637E+02  0.69919460448E+02  0.14390163027E+03  0.12499566910E+03 0.  0.
          2    1    1    2  501    0 -0.32693232496E+02 -0.51368522551E+02 -0.31009744545E+02  0.68331375055E+02  0.00000000000E+00 0. -1.
          1    1    1    2  502    0  0.23855985896E+02  0.40554918914E+02  0.48407183129E+03  0.48635310974E+03  0.00000000000E+00 0. -1.
         22    1    3    3    0    0 -0.12516730441E+02  0.46218729724E+02 -0.14390367105E+02  0.49999221831E+02  0.00000000000E+00 0. -1.
         22    1    3    3    0    0  0.21353977041E+02 -0.35405126088E+02  0.84309827553E+02  0.93902408440E+02  0.00000000000E+00 0. -1.
</event>
<event>
 7    1  0.4915160E-006  0.9966285E+02  0.7818608E-02  0.1295173E+00
          2   -1    0    0  502    0  0.00000000000E+00  0.00000000000E+00  0.13933754620E+04  0.13933754620E+04  0.00000000000E+00 0. -1.
          1   -1    0    0  501    0 -0.00000000000E+00 -0.00000000000E+00 -0.10664082104E+04  0.10664082104E+04  0.00000000000E+00 0. -1.
         25    2    1    2    0    0 -0.18301730799E+03 -0.18279557781E+02  0.28233944210E+03  0.35940268516E+03  0.12500100910E+03 0.  0.
          2    1    1    2  501    0  0.98925788789E+02 -0.49633703893E+01 -0.10237080107E+04  0.10284887155E+04  0.00000000000E+00 0. -1.
          1    1    1    2  502    0  0.84091519202E+02  0.23242928170E+02  0.10683358202E+04  0.10718922717E+04  0.00000000000E+00 0. -1.
         22    1    3    3    0    0 -0.71639062198E+02 -0.40029195964E+02  0.38910032864E+02  0.90821156234E+02  0.00000000000E+00 0.  1.
         22    1    3    3    0    0 -0.11137824579E+03  0.21749638183E+02  0.24342940924E+03  0.26858152893E+03  0.00000000000E+00 0.  1.
</event>
<event>
 7    1  0.4915160E-006  0.8332612E+02  0.7818608E-02  0.1431585E+00
          2   -1    0    0  502    0  0.00000000000E+00  0.00000000000E+00  0.78070447069E+02  0.78070447069E+02  0.00000000000E+00 0. -1.
          1   -1    0    0  501    0 -0.00000000000E+00 -0.00000000000E+00 -0.36423539807E+03  0.36423539807E+03  0.00000000000E+00 0. -1.
         25    2    1    2    0    0  0.81787267084E+02 -0.62838636332E+02 -0.27945367896E+03  0.32304412561E+03  0.12500118854E+03 0.  0.
          2    1    1    2  501    0 -0.33171411455E+02 -0.24059363737E+01 -0.16821281531E+02  0.37270451836E+02  0.00000000000E+00 0. -1.
          1    1    1    2  502    0 -0.48615855630E+02  0.65244572706E+02  0.10110009486E+02  0.81991267694E+02  0.00000000000E+00 0. -1.
         22    1    3    3    0    0  0.11268341082E+03 -0.59818117167E+02 -0.19460449939E+03  0.23269436907E+03  0.00000000000E+00 0. -1.
         22    1    3    3    0    0 -0.30896143733E+02 -0.30205191657E+01 -0.84849179572E+02  0.90349756544E+02  0.00000000000E+00 0. -1.
</event>
<event>
 7    1  0.4915160E-006  0.2026974E+03  0.7818608E-02  0.1373884E+00
          2   -1    0    0  502    0  0.00000000000E+00  0.00000000000E+00  0.25673258271E+04  0.25673258271E+04  0.00000000000E+00 0. -1.
          1   -1    0    0  501    0 -0.00000000000E+00 -0.00000000000E+00 -0.13174107087E+03  0.13174107087E+03  0.00000000000E+00 0. -1.
         25    2    1    2    0    0 -0.17505003422E+03 -0.13686408271E+03  0.17285857435E+04  0.17472851673E+04  0.12498996547E+03 0.  0.
          2    1    1    2  501    0  0.16289199534E+03  0.11906546817E+03 -0.38973609842E+02  0.20549776183E+03  0.00000000000E+00 0. -1.
          1    1    1    2  502    0  0.12158038879E+02  0.17798614540E+02  0.74597262250E+03  0.74628396882E+03  0.00000000000E+00 0. -1.
         22    1    3    3    0    0 -0.69479533914E+02 -0.95106313029E+02  0.51007166711E+03  0.52349376500E+03  0.00000000000E+00 0.  1.
         22    1    3    3    0    0 -0.10557050030E+03 -0.41757769678E+02  0.12185140764E+04  0.12237914023E+04  0.00000000000E+00 0.  1.
</event>
<event>
 7    1  0.4915160E-006  0.2300754E+03  0.7818608E-02  0.1341980E+00
          2   -1    0    0  502    0  0.00000000000E+00  0.00000000000E+00  0.32896451758E+02  0.32896451758E+02  0.00000000000E+00 0. -1.
          1   -1    0    0  501    0 -0.00000000000E+00 -0.00000000000E+00 -0.32899979752E+04  0.32899979752E+04  0.00000000000E+00 0. -1.
         25    2    1    2    0    0  0.18806911278E+03  0.11050690722E+03 -0.10785938148E+04  0.11075062346E+04  0.12499469908E+03 0.  0.
          2    1    1    2  501    0  0.10033718900E+02  0.22734731181E+02 -0.14195147090E+04  0.14197322116E+04  0.00000000000E+00 0. -1.
          1    1    1    2  502    0 -0.19810283168E+03 -0.13324163840E+03 -0.75899299959E+03  0.79565598066E+03  0.00000000000E+00 0. -1.
         22    1    3    3    0    0  0.16163595730E+02  0.19697819156E+02 -0.23542628897E+02  0.34691804246E+02  0.00000000000E+00 0.  1.
         22    1    3    3    0    0  0.17190551705E+03  0.90809088067E+02 -0.10550511859E+04  0.10728144304E+04  0.00000000000E+00 0.  1.
</event>
<event>
 7    1  0.4915160E-006  0.7726295E+02  0.7818608E-02  0.1468582E+00
          2   -1    0    0  502    0  0.00000000000E+00  0.00000000000E+00  0.11887156079E+04  0.11887156079E+04  0.00000000000E+00 0. -1.
          1   -1    0    0  501    0 -0.00000000000E+00 -0.00000000000E+00 -0.10295629710E+03  0.10295629710E+03  0.00000000000E+00 0. -1.
         25    2    1    2    0    0 -0.60398732558E+02  0.19702903604E+02  0.25669470648E+03  0.29248710673E+03  0.12498129444E+03 0.  0.
          2    1    1    2  501    0  0.62790833780E+02 -0.46908785688E+02 -0.66752462666E+02  0.10295151409E+03  0.00000000000E+00 0. -1.
          1    1    1    2  502    0 -0.23921012219E+01  0.27205882084E+02  0.89581706697E+03  0.89623328416E+03  0.00000000000E+00 0. -1.
         22    1    3    3    0    0 -0.55533506227E+02 -0.18092061029E+02  0.24609875880E+03  0.25293456084E+03  0.00000000000E+00 0. -1.
         22    1    3    3    0    0 -0.48652263315E+01  0.37794964633E+02  0.10595947689E+02  0.39552545889E+02  0.00000000000E+00 0. -1.
</event>
<event>
 7    1  0.4915160E-006  0.7851379E+02  0.7818608E-02  0.1455495E+00
          2   -1    0    0  502    0  0.00000000000E+00  0.00000000000E+00  0.10464100482E+04  0.10464100482E+04  0.00000000000E+00 0. -1.
          1   -1    0    0  501    0 -0.00000000000E+00 -0.00000000000E+00 -0.21804865527E+03  0.21804865527E+03  0.00000000000E+00 0. -1.
         25    2    1    2    0    0  0.65526904046E+02 -0.85641794725E+01  0.28168024821E+02  0.14416684709E+03  0.12499408728E+03 0.  0.
          2    1    1    2  501    0 -0.78367262903E+02 -0.18047933130E+02 -0.14970317460E+03  0.16993585929E+03  0.00000000000E+00 0. -1.
          1    1    1    2  502    0  0.12840358856E+02  0.26612112603E+02  0.94989654271E+03  0.95035599709E+03  0.00000000000E+00 0. -1.
         22    1    3    3    0    0  0.73907420211E+02  0.30012810262E+02 -0.19655379996E+02  0.82154789908E+02  0.00000000000E+00 0. -1.
         22    1    3    3    0    0 -0.83805161644E+01 -0.38576989734E+02  0.47823404817E+02  0.62012057185E+02  0.00000000000E+00 0. -1.
</event>
<event>
 7    1  0.4915160E-006  0.1124050E+03  0.7818608E-02  0.1402556E+00
          2   -1    0    0  502    0  0.00000000000E+00  0.00000000000E+00  0.69165530432E+03  0.69165530432E+03  0.00000000000E+00 0. -1.
          1   -1    0    0  501    0 -0.00000000000E+00 -0.00000000000E+00 -0.10066850896E+04  0.10066850896E+04  0.00000000000E+00 0. -1.
         25    2    1    2    0    0 -0.13084914259E+03 -0.53032447178E+02  0.47327236676E+03  0.50945644365E+03  0.12500078506E+03 0.  0.
          2    1    1    2  501    0  0.10718694085E+03  0.33235768603E+02 -0.98419716311E+03  0.99057443561E+03  0.00000000000E+00 0. -1.
          1    1    1    2  502    0  0.23662201741E+02  0.19796678575E+02  0.19589501104E+03  0.19830951471E+03  0.00000000000E+00 0. -1.
         22    1    3    3    0    0 -0.13533770288E+03 -0.76659762321E+02  0.44945893788E+03  0.47561155350E+03  0.00000000000E+00 0. -1.
         22    1    3    3    0    0  0.44885602901E+01  0.23627315143E+02  0.23813428881E+02  0.33844890152E+02  0.00000000000E+00 0. -1.
</event>
<event>
 7    1  0.4915160E-006  0.1245755E+03  0.7818608E-02  0.1358237E+00
          2   -1    0    0  502    0  0.00000000000E+00  0.00000000000E+00  0.11544623651E+04  0.11544623651E+04  0.00000000000E+00 0. -1.
          1   -1    0    0  501    0 -0.00000000000E+00 -0.00000000000E+00 -0.45730736193E+03  0.45730736193E+03  0.00000000000E+00 0. -1.
         25    2    1    2    0    0 -0.11215075921E+03 -0.11729455598E+03 -0.20167305554E+03  0.28745814947E+03  0.12499744282E+03 0.  0.
          2    1    1    2  501    0  0.34027434147E+02  0.20936982881E+02 -0.20736808307E+03  0.21118178284E+03  0.00000000000E+00 0. -1.
          1    1    1    2  502    0  0.78123325061E+02  0.96357573104E+02  0.11061961417E+04  0.11131297947E+04  0.00000000000E+00 0. -1.
         22    1    3    3    0    0 -0.13361836594E+03 -0.86390408207E+02 -0.12605537877E+03  0.20299539124E+03  0.00000000000E+00 0. -1.
         22    1    3    3    0    0  0.21467606731E+02 -0.30904147778E+02 -0.75617676762E+02  0.84462758228E+02  0.00000000000E+00 0. -1.
</event>
<event>
 7    1  0.4915160E-006  0.5698764E+02  0.7818608E-02  0.1512317E+00
          2   -1    0    0  502    0  0.00000000000E+00  0.00000000000E+00  0.27040434864E+03  0.27040434864E+03  0.00000000000E+00 0. -1.
          1   -1    0    0  501    0 -0.00000000000E+00 -0.00000000000E+00 -0.27223256729E+03  0.27223256729E+03  0.00000000000E+00 0. -1.
         25    2    1    2    0    0 -0.15202210390E+02 -0.50898611729E+02 -0.32787965547E+02  0.13972192403E+03  0.12500155796E+03 0.  0.
          2    1    1    2  501    0 -0.25325444799E+02  0.10210006391E+02 -0.18113559853E+03  0.18318222468E+03  0.00000000000E+00 0. -1.
          1    1    1    2  502    0  0.40527655189E+02  0.40688605338E+02  0.21209534542E+03  0.21973276722E+03  0.00000000000E+00 0. -1.
         22    1    3    3    0    0 -0.13107015386E+02 -0.68337549634E+00  0.45130688626E+02  0.47000424576E+02  0.00000000000E+00 0. -1.
         22    1    3    3    0    0 -0.20951950037E+01 -0.50215236233E+02 -0.77918654173E+02  0.92721499450E+02  0.00000000000E+00 0. -1.
</event>
<event>
 7    1  0.4915160E-006  0.6197655E+02  0.7818608E-02  0.1395173E+00
          2   -1    0    0  502    0  0.00000000000E+00  0.00000000000E+00  0.38543555047E+03  0.38543555047E+03  0.00000000000E+00 0. -1.
          1   -1    0    0  501    0 -0.00000000000E+00 -0.00000000000E+00 -0.28794707165E+03  0.28794707165E+03  0.00000000000E+00 0. -1.
         25    2    1    2    0    0 -0.29817645877E+02 -0.48287582637E+02  0.63688815323E+02  0.15133210355E+03  0.12499743087E+03 0.  0.
          2    1    1    2  501    0  0.63207305515E+02 -0.75328895281E+00 -0.23676478866E+03  0.24505774027E+03  0.00000000000E+00 0. -1.
          1    1    1    2  502    0 -0.33389659638E+02  0.49040871590E+02  0.27056445216E+03  0.27699277830E+03  0.00000000000E+00 0. -1.
         22    1    3    3    0    0  0.30114196772E+02 -0.19963131724E+02 -0.22527910250E+02  0.42578142464E+02  0.00000000000E+00 0. -1.
         22    1    3    3    0    0 -0.59931842649E+02 -0.28324450913E+02  0.86216725573E+02  0.10875396108E+03  0.00000000000E+00 0. -1.
</event>
<event>
 7    1  0.4915160E-006  0.1448677E+03  0.7818608E-02  0.1270485E+00
          2   -1    0    0  502    0  0.00000000000E+00  0.00000000000E+00  0.19156107496E+03  0.19156107496E+03  0.00000000000E+00 0. -1.
          1   -1    0    0  501    0 -0.00000000000E+00 -0.00000000000E+00 -0.15533731098E+04  0.15533731098E+04  0.00000000000E+00 0. -1.
         25    2    1    2    0    0  0.66638012032E+02  0.39273602767E+02 -0.42992374931E+03  0.45436007415E+03  0.12500242494E+03 0.  0.
          2    1    1    2  501    0  0.43856921549E+02  0.61867470923E+02 -0.10783866464E+04  0.10810498474E+04  0.00000000000E+00 0. -1.
          1    1    1    2  502    0 -0.11049493358E+03 -0.10114107369E+03  0.14649836084E+03  0.20952426319E+03  0.00000000000E+00 0. -1.
         22    1    3    3    0    0 -0.23291233374E+02 -0.26111534884E+02 -0.83640739850E+02  0.90664586078E+02  0.00000000000E+00 0.  1.
         22    1    3    3    0    0  0.89929245406E+02  0.65385137651E+02 -0.34628300946E+03  0.36369548807E+03  0.00000000000E+00 0.  1.
</event>
<event>
 7    1  0.4915160E-006  0.5054640E+02  0.7818608E-02  0.1462723E+00
          2   -1    0    0  502    0  0.00000000000E+00  0.00000000000E+00  0.39003177676E+03  0.39003177676E+03  0.00000000000E+00 0. -1.
          1   -1    0    0  501    0 -0.00000000000E+00 -0.00000000000E+00 -0.10282936469E+03  0.10282936469E+03  0.00000000000E+00 0. -1.
         25    2    1    2    0    0  0.19573079255E+02  0.22303402376E+02  0.37798969951E+02  0.13391771900E+03  0.12499858456E+03 0.  0.
          2    1    1    2  501    0  0.90821459917E+01 -0.55093158964E+02 -0.38462789038E+02  0.67802121508E+02  0.00000000000E+00 0. -1.
          1    1    1    2  502    0 -0.28655225247E+02  0.32789756588E+02  0.28786623116E+03  0.29114130094E+03  0.00000000000E+00 0. -1.
         22    1    3    3    0    0  0.70886651405E+02  0.11967217516E+02  0.38538912065E+02  0.81568249863E+02  0.00000000000E+00 0. -1.
         22    1    3    3    0    0 -0.51313572150E+02  0.10336184860E+02 -0.73994211397E+00  0.52349469134E+02  0.00000000000E+00 0. -1.
</event>
<event>
 7    1  0.4915160E-006  0.2926803E+03  0.7818608E-02  0.1202176E+00
          2   -1    0    0  502    0  0.00000000000E+00  0.00000000000E+00  0.37781400149E+04  0.37781400149E+04  0.00000000000E+00 0. -1.
          1   -1    0    0  501    0 -0.00000000000E+00 -0.00000000000E+00 -0.39581106747E+03  0.39581106747E+03  0.00000000000E+00 0. -1.
         25    2    1    2    0    0  0.80684403175E+02 -0.26136057640E+03  0.13928012727E+04  0.14249004854E+04  0.12500673695E+03 0.  0.
          2    1    1    2  501    0 -0.12419714671E+02  0.29354172158E+03 -0.32222758559E+03  0.43606376660E+03  0.00000000000E+00 0. -1.
          1    1    1    2  502    0 -0.68264688505E+02 -0.32181145184E+02  0.23117552604E+04  0.23129868304E+04  0.00000000000E+00 0. -1.
         22    1    3    3    0    0  0.46364183212E-01 -0.17009030393E+02  0.13259528465E+02  0.21566741981E+02  0.00000000000E+00 0. -1.
         22    1    3    3    0    0  0.80638038992E+02 -0.24435154600E+03  0.13795417442E+04  0.14033337434E+04  0.00000000000E+00 0. -1.
</event>
<event>
 7    1  0.4915160E-006  0.1303604E+03  0.7818608E-02  0.1279140E+00
          2   -1    0    0  502    0  0.00000000000E+00  0.00000000000E+00  0.53014714061E+03  0.53014714061E+03  0.00000000000E+00 0. -1.
          1   -1    0    0  501    0 -0.00000000000E+00 -0.00000000000E+00 -0.21163014694E+03  0.21163014694E+03  0.00000000000E+00 0. -1.
         25    2    1    2    0    0  0.13930048666E+03 -0.12430112278E+03 -0.89003726755E+01  0.22485280816E+03  0.12499669594E+03 0.  0.
          2    1    1    2  501    0 -0.71096477511E+02  0.87373205792E+02 -0.55961144241E+02  0.12577931416E+03  0.00000000000E+00 0. -1.
          1    1    1    2  502    0 -0.68204009147E+02  0.36927916986E+02  0.38337851059E+03  0.39114516525E+03  0.00000000000E+00 0. -1.
         22    1    3    3    0    0  0.32985811021E+02  0.21218617004E+02  0.17065730781E+02  0.42773035938E+02  0.00000000000E+00 0.  1.
         22    1    3    3    0    0  0.10631467564E+03 -0.14551973978E+03 -0.25966103457E+02  0.18207977222E+03  0.00000000000E+00 0.  1.
</event>
<event>
 7    1  0.4915160E-006  0.5572913E+02  0.7818608E-02  0.1465989E+00
          2   -1    0    0  502    0  0.00000000000E+00  0.00000000000E+00  0.99171046151E+03  0.99171046151E+03  0.00000000000E+00 0. -1.
          1   -1    0    0  501    0 -0.00000000000E+00 -0.00000000000E+00 -0.34320723792E+03  0.34320723792E+03  0.00000000000E+00 0. -1.
         25    2    1    2    0    0 -0.72485784820E+02 -0.51855129043E+02  0.51856798295E+02  0.16203840087E+03  0.12499668963E+03 0.  0.
          2    1    1    2  501    0  0.37487428715E+02  0.91003600499E+01 -0.28595741699E+03  0.28854768790E+03  0.00000000000E+00 0. -1.
          1    1    1    2  502    0  0.34998356105E+02  0.42754768993E+02  0.88260384228E+03  0.88433161066E+03  0.00000000000E+00 0. -1.
         22    1    3    3    0    0 -0.83995782976E+00 -0.29658469595E+02 -0.35913998217E+02  0.46584821732E+02  0.00000000000E+00 0. -1.
         22    1    3    3    0    0 -0.71645826990E+02 -0.22196659448E+02  0.87770796513E+02  0.11545357914E+03  0.00000000000E+00 0. -1.
</event>
<event>
 7    1  0.4915160E-006  0.7406631E+02  0.7818608E-02  0.1494864E+00
          2   -1    0    0  502    0  0.00000000000E+00  0.00000000000E+00  0.55237301434E+03  0.55237301434E+03  0.00000000000E+00 0. -1.
          1   -1    0    0  501    0 -0.00000000000E+00 -0.00000000000E+00 -0.48484286331E+03  0.48484286331E+03  0.00000000000E+00 0. -1.
         25    2    1    2    0    0  0.69971806432E+02  0.36242463899E+02 -0.23307447880E+03  0.27597408289E+03  0.12501364675E+03 0.  0.
          2    1    1    2  501    0 -0.72434733165E+02 -0.12698370296E+02 -0.22417477237E+03  0.23592873446E+03  0.00000000000E+00 0. -1.
          1    1    1    2  502    0  0.24629267327E+01 -0.23544093602E+02  0.52477940220E+03  0.52531306031E+03  0.00000000000E+00 0. -1.
         22    1    3    3    0    0 -0.30956243940E+02 -0.13272385533E+02 -0.37613997661E+02  0.50490178021E+02  0.00000000000E+00 0. -1.
         22    1    3    3    0    0  0.10092805037E+03  0.49514849432E+02 -0.19546048114E+03  0.22548390487E+03  0.00000000000E+00 0. -1.
</event>
<event>
 7    1  0.4915160E-006  0.6408982E+02  0.7818608E-02  0.1444555E+00
          2   -1    0    0  502    0  0.00000000000E+00  0.00000000000E+00  0.12652781913E+04  0.12652781913E+04  0.00000000000E+00 0. -1.
          1   -1    0    0  501    0 -0.00000000000E+00 -0.00000000000E+00 -0.22063549316E+03  0.22063549316E+03  0.00000000000E+00 0. -1.
         25    2    1    2    0    0 -0.37548545113E+02  0.52705931094E+02  0.14744638767E+03  0.20384535897E+03  0.12499873890E+03 0.  0.
          2    1    1    2  501    0  0.10454492006E+00 -0.64427966205E+02 -0.18667840803E+03  0.19748367472E+03  0.00000000000E+00 0. -1.
          1    1    1    2  502    0  0.37444000192E+02  0.11722035110E+02  0.10838747185E+04  0.10845846508E+04  0.00000000000E+00 0. -1.
         22    1    3    3    0    0 -0.21900320192E+02  0.92257148797E+02  0.12112535980E+03  0.15382574009E+03  0.00000000000E+00 0. -1.
         22    1    3    3    0    0 -0.15648224920E+02 -0.39551217703E+02  0.26321027872E+02  0.50019618883E+02  0.00000000000E+00 0. -1.
</event>
<event>
 7    1  0.4915160E-006  0.5949328E+02  0.7818608E-02  0.1445563E+00
          2   -1    0    0  502    0  0.00000000000E+00  0.00000000000E+00  0.17114250358E+03  0.17114250358E+03  0.00000000000E+00 0. -1.
          1   -1    0    0  501    0 -0.00000000000E+00 -0.00000000000E+00 -0.19696899594E+04  0.19696899594E+04  0.00000000000E+00 0. -1.
         25    2    1    2    0    0  0.90862615541E+02  0.22386243755E+02 -0.19206509603E+03  0.24753017501E+03  0.12500011045E+03 0.  0.
          2    1    1    2  501    0 -0.32341103207E+02 -0.26722074859E+02 -0.17436264184E+04  0.17441310453E+04  0.00000000000E+00 0. -1.
          1    1    1    2  502    0 -0.58521512335E+02  0.43358311042E+01  0.13714405859E+03  0.14917124269E+03  0.00000000000E+00 0. -1.
         22    1    3    3    0    0 -0.58095183958E+01  0.24352549426E+02 -0.13054971723E+03  0.13292864942E+03  0.00000000000E+00 0. -1.
         22    1    3    3    0    0  0.96672133937E+02 -0.19663056717E+01 -0.61515378799E+02  0.11460152559E+03  0.00000000000E+00 0. -1.
</event>
<event>
 7    1  0.4915160E-006  0.6082376E+02  0.7818608E-02  0.1454629E+00
          2   -1    0    0  502    0  0.00000000000E+00  0.00000000000E+00  0.65397677132E+03  0.65397677132E+03  0.00000000000E+00 0. -1.
          1   -1    0    0  501    0 -0.00000000000E+00 -0.00000000000E+00 -0.25977305125E+02  0.25977305125E+02  0.00000000000E+00 0. -1.
         25    2    1    2    0    0 -0.93378823891E+01 -0.32732934171E+02  0.23895174766E+03  0.27181332257E+03  0.12500361432E+03 0.  0.
          2    1    1    2  501    0 -0.33833791204E+02 -0.18127225077E+02  0.52445214026E+02  0.64990939295E+02  0.00000000000E+00 0. -1.
          1    1    1    2  502    0  0.43171673593E+02  0.50860159247E+02  0.33660250451E+03  0.34314981457E+03  0.00000000000E+00 0. -1.
         22    1    3    3    0    0 -0.16196238053E+02 -0.86697587370E+01  0.24530978839E+03  0.24599669738E+03  0.00000000000E+00 0.  1.
         22    1    3    3    0    0  0.68583556642E+01 -0.24063175434E+02 -0.63580407322E+01  0.25816625192E+02  0.00000000000E+00 0.  1.
</event>
<event>
 7    1  0.4915160E-006  0.3438168E+02  0.7818608E-02  0.1576769E+00
          2   -1    0    0  502    0  0.00000000000E+00  0.00000000000E+00  0.88693838674E+02  0.88693838674E+02  0.00000000000E+00 0. -1.
          1   -1    0    0  501    0 -0.00000000000E+00 -0.00000000000E+00 -0.41679356352E+03  0.41679356352E+03  0.00000000000E+00 0. -1.
         25    2    1    2    0    0 -0.15551558237E+02  0.60652987319E+01 -0.14497951984E+03  0.19215025967E+03  0.12499608915E+03 0.  0.
          2    1    1    2  501    0  0.90142794026E+01  0.28426872837E+02 -0.24251571397E+03  0.24434241518E+03  0.00000000000E+00 0. -1.
          1    1    1    2  502    0  0.65372788341E+01 -0.34492171569E+02  0.59395508977E+02  0.68994727340E+02  0.00000000000E+00 0. -1.
         22    1    3    3    0    0 -0.26992722065E+02  0.61224068195E+02 -0.98714658492E+02  0.11925425515E+03  0.00000000000E+00 0.  1.
         22    1    3    3    0    0  0.11441163828E+02 -0.55158769463E+02 -0.46264861353E+02  0.72896004516E+02  0.00000000000E+00 0.  1.
</event>
<event>
 7    1  0.4915160E-006  0.2303048E+03  0.7818608E-02  0.1360111E+00
          2   -1    0    0  502    0  0.00000000000E+00  0.00000000000E+00  0.11997481781E+04  0.11997481781E+04  0.00000000000E+00 0. -1.
          1   -1    0    0  501    0 -0.00000000000E+00 -0.00000000000E+00 -0.31752610810E+03  0.31752610810E+03  0.00000000000E+00 0. -1.
         25    2    1    2    0    0 -0.12949513193E+03  0.21042425078E+03  0.23080581083E+03  0.36047679663E+03  0.12499937636E+03 0.  0.
          2    1    1    2  501    0  0.59275033430E+01 -0.20430459410E+02 -0.23800507231E+03  0.23895387299E+03  0.00000000000E+00 0. -1.
          1    1    1    2  502    0  0.12356762858E+03 -0.18999379137E+03  0.88942133151E+03  0.91784361660E+03  0.00000000000E+00 0. -1.
         22    1    3    3    0    0 -0.87357953705E+02  0.43330672603E+02  0.12395240517E+03  0.15771226335E+03  0.00000000000E+00 0. -1.
         22    1    3    3    0    0 -0.42137178220E+02  0.16709357818E+03  0.10685340565E+03  0.20276453328E+03  0.00000000000E+00 0. -1.
</event>
<event>
 7    1  0.6017251E-006  0.1258633E+03  0.7818608E-02  0.1247760E+00
          2   -1    0    0  502    0  0.00000000000E+00  0.00000000000E+00  0.14703752283E+04  0.14703752283E+04  0.00000000000E+00 0. -1.
          1   -1    0    0  501    0 -0.00000000000E+00 -0.00000000000E+00 -0.90528779754E+03  0.90528779754E+03  0.00000000000E+00 0. -1.
         25    2    1    2    0    0  0.60283676936E+00  0.43447225870E+02 -0.69234024743E+02  0.14935231684E+03  0.12499895805E+03 0.  0.
          2    1    1    2  501    0 -0.88135239784E+02 -0.10867696721E+03 -0.78773743457E+03  0.80006797806E+03  0.00000000000E+00 0. -1.
          1    1    1    2  502    0  0.87532403014E+02  0.65229741340E+02  0.14220588901E+04  0.14262427310E+04  0.00000000000E+00 0. -1.
         22    1    3    3    0    0 -0.57975372427E+02  0.45312671605E+02 -0.42007122440E+02  0.84728863746E+02  0.00000000000E+00 0. -1.
         22    1    3    3    0    0  0.58578209196E+02 -0.18654457350E+01 -0.27226902303E+02  0.64623453092E+02  0.00000000000E+00 0. -1.
</event>
<event>
 7    1  0.4915160E-006  0.8145049E+02  0.7818608E-02  0.1358765E+00
          2   -1    0    0  502    0  0.00000000000E+00  0.00000000000E+00  0.19943609634E+04  0.19943609634E+04  0.00000000000E+00 0. -1.
          1   -1    0    0  501    0 -0.00000000000E+00 -0.00000000000E+00 -0.19083511021E+02  0.19083511021E+02  0.00000000000E+00 0. -1.
         25    2    1    2    0    0 -0.61413880603E+02  0.22805963841E+02  0.14199484348E+04  0.14269460635E+04  0.12501893359E+03 0.  0.
          2    1    1    2  501    0 -0.59985348637E+02 -0.10130795687E+02  0.12228987588E+03  0.13658582948E+03  0.00000000000E+00 0. -1.
          1    1    1    2  502    0  0.12139922924E+03 -0.12675168154E+02  0.43303914166E+03  0.44991258146E+03  0.00000000000E+00 0. -1.
         22    1    3    3    0    0  0.61057624915E+01  0.11996015472E+02  0.14311808187E+02  0.19647202762E+02  0.00000000000E+00 0.  1.
         22    1    3    3    0    0 -0.67519643095E+02  0.10809948369E+02  0.14056366266E+04  0.14072988607E+04  0.00000000000E+00 0.  1.
</event>
<event>
 7    1  0.4915160E-006  0.5484427E+02  0.7818608E-02  0.1425119E+00
          2   -1    0    0  502    0  0.00000000000E+00  0.00000000000E+00  0.17061080816E+04  0.17061080816E+04  0.00000000000E+00 0. -1.
          1   -1    0    0  501    0 -0.00000000000E+00 -0.00000000000E+00 -0.16127788797E+03  0.16127788797E+03  0.00000000000E+00 0. -1.
         25    2    1    2    0    0 -0.16428076575E+02 -0.15850241973E+02  0.19535203749E+03  0.23304039600E+03  0.12499718295E+03 0.  0.
          2    1    1    2  501    0  0.39632111671E+02 -0.35302403303E+02 -0.13694043201E+03  0.14686608143E+03  0.00000000000E+00 0. -1.
          1    1    1    2  502    0 -0.23204035095E+02  0.51152645276E+02  0.14864185881E+04  0.14874794921E+04  0.00000000000E+00 0. -1.
         22    1    3    3    0    0 -0.52091448113E+02 -0.16744231950E+02  0.18905564127E+03  0.19681443993E+03  0.00000000000E+00 0. -1.
         22    1    3    3    0    0  0.35663371538E+02  0.89398997647E+00  0.62963962230E+01  0.36225956066E+02  0.00000000000E+00 0. -1.
</event>
<event>
 7    1  0.4915160E-006  0.1038029E+03  0.7818608E-02  0.1316428E+00
          2   -1    0    0  502    0  0.00000000000E+00  0.00000000000E+00  0.13555246306E+04  0.13555246306E+04  0.00000000000E+00 0. -1.
          1   -1    0    0  501    0 -0.00000000000E+00 -0.00000000000E+00 -0.12601350263E+04  0.12601350263E+04  0.00000000000E+00 0. -1.
         25    2    1    2    0    0  0.61119295665E+02  0.13535005125E+03  0.42670155048E+03  0.46877992249E+03  0.12500079146E+03 0.  0.
          2    1    1    2  501    0 -0.58801446397E+02 -0.36069913739E+02 -0.12354148099E+04  0.12373392426E+04  0.00000000000E+00 0. -1.
          1    1    1    2  502    0 -0.23178492687E+01 -0.99280137515E+02  0.90410286367E+03  0.90954049180E+03  0.00000000000E+00 0. -1.
         22    1    3    3    0    0  0.10318407377E+02  0.25297401797E+02  0.23105658736E+01  0.27418365800E+02  0.00000000000E+00 0.  1.
         22    1    3    3    0    0  0.50800888288E+02  0.11005264946E+03  0.42439098461E+03  0.44136155669E+03  0.00000000000E+00 0.  1.
</event>
<event>
 7    1  0.4915160E-006  0.4612932E+02  0.7818608E-02  0.1525853E+00
          2   -1    0    0  502    0  0.00000000000E+00  0.00000000000E+00  0.64377110820E+03  0.64377110820E+03  0.00000000000E+00 0. -1.
          1   -1    0    0  501    0 -0.00000000000E+00 -0.00000000000E+00 -0.20562340484E+03  0.20562340484E+03  0.00000000000E+00 0. -1.
         25    2    1    2    0    0  0.37767065594E+02  0.58401727945E+02  0.95869929646E+02  0.17220107247E+03  0.12500021152E+03 0.  0.
          2    1    1    2  501    0 -0.14783360043E+01 -0.30775575990E+02 -0.16500883131E+03  0.16786076363E+03  0.00000000000E+00 0. -1.
          1    1    1    2  502    0 -0.36288729590E+02 -0.27626151955E+02  0.50728660503E+03  0.50933267695E+03  0.00000000000E+00 0. -1.
         22    1    3    3    0    0 -0.15718726638E+02  0.57563662010E+02 -0.30445497448E+01  0.59748831238E+02  0.00000000000E+00 0.  1.
         22    1    3    3    0    0  0.53485792233E+02  0.83806593508E+00  0.98914479391E+02  0.11245224123E+03  0.00000000000E+00 0.  1.
</event>
<event>
 7    1  0.4915160E-006  0.5879801E+02  0.7818608E-02  0.1417115E+00
          2   -1    0    0  502    0  0.00000000000E+00  0.00000000000E+00  0.10705747200E+04  0.10705747200E+04  0.00000000000E+00 0. -1.
          1   -1    0    0  501    0 -0.00000000000E+00 -0.00000000000E+00 -0.33204298070E+03  0.33204298070E+03  0.00000000000E+00 0. -1.
         25    2    1    2    0    0  0.15156464575E+02 -0.51381847663E+02 -0.17025154041E+03  0.21790035436E+03  0.12500065892E+03 0.  0.
          2    1    1    2  501    0 -0.60864703757E+02  0.25264050492E+02 -0.12939262549E+03  0.14520756158E+03  0.00000000000E+00 0. -1.
          1    1    1    2  502    0  0.45708239182E+02  0.26117797171E+02  0.10381759052E+04  0.10395097848E+04  0.00000000000E+00 0. -1.
         22    1    3    3    0    0 -0.39404299050E+02 -0.63212132556E+02 -0.12718002350E+03  0.14738802823E+03  0.00000000000E+00 0. -1.
         22    1    3    3    0    0  0.54560763626E+02  0.11830284893E+02 -0.43071516909E+02  0.70512326135E+02  0.00000000000E+00 0. -1.
</event>
<event>
 7    1  0.4915160E-006  0.9401271E+02  0.7818608E-02  0.1383054E+00
          2   -1    0    0  502    0  0.00000000000E+00  0.00000000000E+00  0.22441316399E+03  0.22441316399E+03  0.00000000000E+00 0. -1.
          1   -1    0    0  501    0 -0.00000000000E+00 -0.00000000000E+00 -0.40126315582E+03  0.40126315582E+03  0.00000000000E+00 0. -1.
         25    2    1    2    0    0  0.60778108015E+02 -0.84821765750E+01 -0.92711083148E+02  0.16729321352E+03  0.12500299444E+03 0.  0.
          2    1    1    2  501    0 -0.98486071880E+02  0.29392335890E+02 -0.25880896626E+03  0.27846992078E+03  0.00000000000E+00 0. -1.
          1    1    1    2  502    0  0.37707963865E+02 -0.20910159315E+02  0.17467005758E+03  0.17991318550E+03  0.00000000000E+00 0. -1.
         22    1    3    3    0    0  0.78592033731E+02  0.27300867190E+02 -0.96179134653E+02  0.12717103073E+03  0.00000000000E+00 0. -1.
         22    1    3    3    0    0 -0.17813925716E+02 -0.35783043765E+02  0.34680515046E+01  0.40122182789E+02  0.00000000000E+00 0. -1.
</event>
<event>
 7    1  0.4915160E-006  0.1221420E+03  0.7818608E-02  0.1311025E+00
          2   -1    0    0  502    0  0.00000000000E+00  0.00000000000E+00  0.44152962815E+03  0.44152962815E+03  0.00000000000E+00 0. -1.
          1   -1    0    0  501    0 -0.00000000000E+00 -0.00000000000E+00 -0.39900134093E+03  0.39900134093E+03  0.00000000000E+00 0. -1.
         25    2    1    2    0    0  0.65155872442E+02 -0.50901909275E+02  0.11969978208E+03  0.19180449817E+03  0.12499854242E+03 0.  0.
          2    1    1    2  501    0  0.58678858735E+02 -0.18592514733E+02 -0.34239340860E+03  0.34788235989E+03  0.00000000000E+00 0. -1.
          1    1    1    2  502    0 -0.12383473118E+03  0.69494424008E+02  0.26522191374E+03  0.30084411103E+03  0.00000000000E+00 0. -1.
         22    1    3    3    0    0  0.84340359438E+02 -0.37075570928E+02  0.13514437675E+03  0.16356007079E+03  0.00000000000E+00 0.  1.
         22    1    3    3    0    0 -0.19184486997E+02 -0.13826338346E+02 -0.15444594670E+02  0.28244427378E+02  0.00000000000E+00 0.  1.
</event>
<event>
 7    1  0.4915160E-006  0.6014725E+02  0.7818608E-02  0.1406698E+00
          2   -1    0    0  502    0  0.00000000000E+00  0.00000000000E+00  0.45437506201E+03  0.45437506201E+03  0.00000000000E+00 0. -1.
          1   -1    0    0  501    0 -0.00000000000E+00 -0.00000000000E+00 -0.12098245446E+04  0.12098245446E+04  0.00000000000E+00 0. -1.
         25    2    1    2    0    0  0.10366486041E+03 -0.44810698405E+02 -0.39047740918E+01  0.16850821484E+03  0.12500147692E+03 0.  0.
          2    1    1    2  501    0 -0.48870282603E+02  0.34220536695E+02 -0.11207274269E+04  0.11223142675E+04  0.00000000000E+00 0. -1.
          1    1    1    2  502    0 -0.54794577803E+02  0.10590161709E+02  0.36918271845E+03  0.37337712421E+03  0.00000000000E+00 0. -1.
         22    1    3    3    0    0  0.12932326938E+03 -0.34441523694E+02 -0.21739005316E+02  0.13558506890E+03  0.00000000000E+00 0. -1.
         22    1    3    3    0    0 -0.25658408971E+02 -0.10369174711E+02  0.17834231224E+02  0.32923145938E+02  0.00000000000E+00 0. -1.
</event>
<event>
 7    1  0.4915160E-006  0.2391332E+03  0.7818608E-02  0.1311662E+00
          2   -1    0    0  502    0  0.00000000000E+00  0.00000000000E+00  0.77443030401E+03  0.77443030401E+03  0.00000000000E+00 0. -1.
          1   -1    0    0  501    0 -0.00000000000E+00 -0.00000000000E+00 -0.86593365323E+03  0.86593365323E+03  0.00000000000E+00 0. -1.
         25    2    1    2    0    0 -0.22984742548E+03 -0.73603678945E+02  0.17584187826E+03  0.32371950654E+03  0.12500644869E+03 0.  0.
          2    1    1    2  501    0  0.23524599050E+03  0.42814290825E+02 -0.77345425154E+03  0.80957100910E+03  0.00000000000E+00 0. -1.
          1    1    1    2  502    0 -0.53985650194E+01  0.30789388119E+02  0.50610902407E+03  0.50707344159E+03  0.00000000000E+00 0. -1.
         22    1    3    3    0    0 -0.17423919094E+03  0.63491103996E+01  0.10973997494E+03  0.20601570076E+03  0.00000000000E+00 0.  1.
         22    1    3    3    0    0 -0.55608234547E+02 -0.79952789344E+02  0.66101903321E+02  0.11770380578E+03  0.00000000000E+00 0.  1.
</event>
<event>
 7    1  0.4915160E-006  0.7999147E+02  0.7818608E-02  0.1343945E+00
          2   -1    0    0  502    0  0.00000000000E+00  0.00000000000E+00  0.24498282535E+03  0.24498282535E+03  0.00000000000E+00 0. -1.
          1   -1    0    0  501    0 -0.00000000000E+00 -0.00000000000E+00 -0.16610634731E+04  0.16610634731E+04  0.00000000000E+00 0. -1.
         25    2    1    2    0    0 -0.88247705957E+02  0.12785043353E+02 -0.34693570024E+03  0.37939339581E+03  0.12499541488E+03 0.  0.
          2    1    1    2  501    0  0.62286728449E+02  0.52519005950E+02 -0.12911872349E+04  0.12937551384E+04  0.00000000000E+00 0. -1.
          1    1    1    2  502    0  0.25960977508E+02 -0.65304049303E+02  0.22204228739E+03  0.23289776426E+03  0.00000000000E+00 0. -1.
         22    1    3    3    0    0  0.39632389306E+01  0.38920934198E+02 -0.20118609959E+03  0.20495461217E+03  0.00000000000E+00 0.  1.
         22    1    3    3    0    0 -0.92210944887E+02 -0.26135890845E+02 -0.14574960064E+03  0.17443878363E+03  0.00000000000E+00 0.  1.
</event>
<event>
 7    1  0.4915160E-006  0.1126503E+03  0.7818608E-02  0.1362477E+00
          2   -1    0    0  502    0  0.00000000000E+00  0.00000000000E+00  0.37075115635E+03  0.37075115635E+03  0.00000000000E+00 0. -1.
          1   -1    0    0  501    0 -0.00000000000E+00 -0.00000000000E+00 -0.91719079834E+03  0.91719079834E+03  0.00000000000E+00 0. -1.
         25    2    1    2    0    0 -0.69679176844E+02 -0.73819662449E+02 -0.63037528322E+03  0.65061734288E+03  0.12500159567E+03 0.  0.
          2    1    1    2  501    0 -0.33039664687E+02  0.26949105194E+02 -0.26611844201E+03  0.26951233532E+03  0.00000000000E+00 0. -1.
          1    1    1    2  502    0  0.10271884153E+03  0.46870557256E+02  0.35005408324E+03  0.36781227649E+03  0.00000000000E+00 0. -1.
         22    1    3    3    0    0 -0.10529205113E+03 -0.42376082606E+02 -0.44907970919E+03  0.46320053283E+03  0.00000000000E+00 0.  1.
         22    1    3    3    0    0  0.35612874289E+02 -0.31443579843E+02 -0.18129557402E+03  0.18741681005E+03  0.00000000000E+00 0.  1.
</event>
<event>
 7    1  0.4915160E-006  0.1212486E+03  0.7818608E-02  0.1367213E+00
          2   -1    0    0  502    0  0.00000000000E+00  0.00000000000E+00  0.46445459623E+03  0.46445459623E+03  0.00000000000E+00 0. -1.
          1   -1    0    0  501    0 -0.00000000000E+00 -0.00000000000E+00 -0.12276256830E+04  0.12276256830E+04  0.00000000000E+00 0. -1.
         25    2    1    2    0    0 -0.13019814062E+03 -0.33885350607E+02 -0.18484333269E+03  0.26056023289E+03  0.12499921806E+03 0.  0.
          2    1    1    2  501    0  0.26125548792E+02 -0.27702025170E+02 -0.99598253860E+03  0.99671017035E+03  0.00000000000E+00 0. -1.
          1    1    1    2  502    0  0.10407259182E+03  0.61587375777E+02  0.41765478452E+03  0.43480987599E+03  0.00000000000E+00 0. -1.
         22    1    3    3    0    0  0.95007945827E+01 -0.37965904684E+02 -0.67710947149E+02  0.78207719440E+02  0.00000000000E+00 0.  1.
         22    1    3    3    0    0 -0.13969893520E+03  0.40805540768E+01 -0.11713238555E+03  0.18235251345E+03  0.00000000000E+00 0.  1.
</event>
<event>
 7    1  0.4915160E-006  0.1077130E+03  0.7818608E-02  0.1399068E+00
          2   -1    0    0  502    0  0.00000000000E+00  0.00000000000E+00  0.21980777836E+03  0.21980777836E+03  0.00000000000E+00 0. -1.
          1   -1    0    0  501    0 -0.00000000000E+00 -0.00000000000E+00 -0.10146580554E+04  0.10146580554E+04  0.00000000000E+00 0. -1.
         25    2    1    2    0    0  0.97545226768E+02  0.50995091867E+02 -0.12991452109E+03  0.21122765715E+03  0.12499507868E+03 0.  0.
          2    1    1    2  501    0 -0.76264047532E+02 -0.76341547080E+02 -0.83907325974E+03  0.84598355301E+03  0.00000000000E+00 0. -1.
          1    1    1    2  502    0 -0.21281179237E+02  0.25346455213E+02  0.17413750376E+03  0.17725462363E+03  0.00000000000E+00 0. -1.
         22    1    3    3    0    0  0.96802360588E+02  0.84872240659E+02 -0.11981774740E+03  0.17587008512E+03  0.00000000000E+00 0. -1.
         22    1    3    3    0    0  0.74286618037E+00 -0.33877148791E+02 -0.10096773690E+02  0.35357572023E+02  0.00000000000E+00 0. -1.
</event>
<event>
 7    1  0.4915160E-006  0.1665110E+03  0.7818608E-02  0.1295207E+00
          2   -1    0    0  502    0  0.00000000000E+00  0.00000000000E+00  0.66336958999E+03  0.66336958999E+03  0.00000000000E+00 0. -1.
          1   -1    0    0  501    0 -0.00000000000E+00 -0.00000000000E+00 -0.59951215338E+03  0.59951215338E+03  0.00000000000E+00 0. -1.
         25    2    1    2    0    0  0.18815726735E+03  0.10468363110E+03 -0.14078336821E+03  0.28601960935E+03  0.12500176117E+03 0.  0.
          2    1    1    2  501    0 -0.48947451756E+02 -0.18145808575E+02 -0.37288704893E+03  0.37652340519E+03  0.00000000000E+00 0. -1.
          1    1    1    2  502    0 -0.13920981559E+03 -0.86537822522E+02  0.57752785374E+03  0.60033872883E+03  0.00000000000E+00 0. -1.
         22    1    3    3    0    0  0.11030090708E+03  0.57784008331E+02 -0.14966942130E+03  0.19469519099E+03  0.00000000000E+00 0. -1.
         22    1    3    3    0    0  0.77856360268E+02  0.46899622766E+02  0.88860530959E+01  0.91324418363E+02  0.00000000000E+00 0. -1.
</event>
<event>
 7    1  0.4915160E-006  0.3870302E+02  0.7818608E-02  0.1577493E+00
          2   -1    0    0  502    0  0.00000000000E+00  0.00000000000E+00  0.12899448774E+04  0.12899448774E+04  0.00000000000E+00 0. -1.
          1   -1    0    0  501    0 -0.00000000000E+00 -0.00000000000E+00 -0.77804262631E+02  0.77804262631E+02  0.00000000000E+00 0. -1.
         25    2    1    2    0    0  0.43926908494E+01 -0.53636389595E+02  0.57389125398E+03  0.58980725235E+03  0.12500106201E+03 0.  0.
          2    1    1    2  501    0 -0.20482495514E+02  0.32739318462E+02 -0.64241698161E+02  0.74955929575E+02  0.00000000000E+00 0. -1.
          1    1    1    2  502    0  0.16089804665E+02  0.20897071133E+02  0.70249105890E+03  0.70298595806E+03  0.00000000000E+00 0. -1.
         22    1    3    3    0    0 -0.43565636160E+02  0.14787613118E+02  0.12482763163E+03  0.13303599428E+03  0.00000000000E+00 0. -1.
         22    1    3    3    0    0  0.47958327009E+02 -0.68424002713E+02  0.44906362236E+03  0.45677125807E+03  0.00000000000E+00 0. -1.
</event>
<event>
 7    1  0.4915160E-006  0.2662649E+02  0.7818608E-02  0.1684545E+00
          2   -1    0    0  502    0  0.00000000000E+00  0.00000000000E+00  0.10498219283E+04  0.10498219283E+04  0.00000000000E+00 0. -1.
          1   -1    0    0  501    0 -0.00000000000E+00 -0.00000000000E+00 -0.28542283219E+02  0.28542283219E+02  0.00000000000E+00 0. -1.
         25    2    1    2    0    0  0.11996966108E+02 -0.12442349909E+02  0.25691810200E+03  0.28623507592E+03  0.12499947314E+03 0.  0.
          2    1    1    2  501    0  0.23260677618E+01  0.27285735091E+02 -0.10445868929E+00  0.27384901721E+02  0.00000000000E+00 0. -1.
          1    1    1    2  502    0 -0.14323033870E+02 -0.14843385182E+02  0.76446600181E+03  0.76474423391E+03  0.00000000000E+00 0. -1.
         22    1    3    3    0    0  0.31106715170E+02  0.49485041234E+02  0.91513402002E+02  0.10858683060E+03  0.00000000000E+00 0. -1.
         22    1    3    3    0    0 -0.19109749061E+02 -0.61927391143E+02  0.16540470000E+03  0.17764824532E+03  0.00000000000E+00 0. -1.
</event>
<event>
 7    1  0.4915160E-006  0.9627020E+02  0.7818608E-02  0.1299699E+00
          2   -1    0    0  502    0  0.00000000000E+00  0.00000000000E+00  0.48704678340E+03  0.48704678340E+03  0.00000000000E+00 0. -1.
          1   -1    0    0  501    0 -0.00000000000E+00 -0.00000000000E+00 -0.26401976899E+03  0.26401976899E+03  0.00000000000E+00 0. -1.
         25    2    1    2    0    0 -0.13351801956E+03 -0.10215614331E+03  0.52264063757E+02  0.21591444920E+03  0.12499831139E+03 0.  0.
          2    1    1    2  501    0  0.51370163244E+02  0.74702116993E+02 -0.16507097725E+03  0.18832877498E+03  0.00000000000E+00 0. -1.
          1    1    1    2  502    0  0.82147856313E+02  0.27454026316E+02  0.33583392790E+03  0.34682332821E+03  0.00000000000E+00 0. -1.
         22    1    3    3    0    0 -0.10784845505E+03 -0.12937180114E+03  0.57852676684E+02  0.17808785580E+03  0.00000000000E+00 0. -1.
         22    1    3    3    0    0 -0.25669564511E+02  0.27215657829E+02 -0.55886129263E+01  0.37826593392E+02  0.00000000000E+00 0. -1.
</event>
<event>
 7    1  0.4915160E-006  0.8068182E+02  0.7818608E-02  0.1345558E+00
          2   -1    0    0  502    0  0.00000000000E+00  0.00000000000E+00  0.55652055064E+03  0.55652055064E+03  0.00000000000E+00 0. -1.
          1   -1    0    0  501    0 -0.00000000000E+00 -0.00000000000E+00 -0.12821392516E+03  0.12821392516E+03  0.00000000000E+00 0. -1.
         25    2    1    2    0    0  0.32740924909E+02 -0.27414248940E+02  0.18514085128E+03  0.22742565399E+03  0.12498713563E+03 0.  0.
          2    1    1    2  501    0 -0.16123887079E+02 -0.66795633108E+02 -0.88544585438E+02  0.11207934666E+03  0.00000000000E+00 0. -1.
          1    1    1    2  502    0 -0.16617037830E+02  0.94209882048E+02  0.33171035964E+03  0.34522947515E+03  0.00000000000E+00 0. -1.
         22    1    3    3    0    0 -0.32540814325E+02  0.14717196626E+02  0.12043013141E+02  0.37689980618E+02  0.00000000000E+00 0.  1.
         22    1    3    3    0    0  0.65281739234E+02 -0.42131445567E+02  0.17309783814E+03  0.18973567338E+03  0.00000000000E+00 0.  1.
</event>
<event>
 7    1  0.4915160E-006  0.1294664E+03  0.7818608E-02  0.1422630E+00
          2   -1    0    0  502    0  0.00000000000E+00  0.00000000000E+00  0.24366556322E+03  0.24366556322E+03  0.00000000000E+00 0. -1.
          1   -1    0    0  501    0 -0.00000000000E+00 -0.00000000000E+00 -0.13079652892E+04  0.13079652892E+04  0.00000000000E+00 0. -1.
         25    2    1    2    0    0 -0.43565072459E+02 -0.11185058402E+03 -0.16552845030E+03  0.23965236586E+03  0.12500047968E+03 0.  0.
          2    1    1    2  501    0  0.66473667375E+02  0.11241616958E+03 -0.11008675516E+04  0.11085871683E+04  0.00000000000E+00 0. -1.
          1    1    1    2  502    0 -0.22908594916E+02 -0.56558556014E+00  0.20209627590E+03  0.20339131825E+03  0.00000000000E+00 0. -1.
         22    1    3    3    0    0 -0.51802580303E+02 -0.54320112989E+02 -0.16528958770E+03  0.18153465180E+03  0.00000000000E+00 0.  1.
         22    1    3    3    0    0  0.82375078434E+01 -0.57530471030E+02 -0.23886260024E+00  0.58117714061E+02  0.00000000000E+00 0.  1.
</event>
<event>
 7    1  0.4915160E-006  0.5279120E+02  0.7818608E-02  0.1517118E+00
          2   -1    0    0  502    0  0.00000000000E+00  0.00000000000E+00  0.25789896001E+02  0.25789896001E+02  0.00000000000E+00 0. -1.
          1   -1    0    0  501    0 -0.00000000000E+00 -0.00000000000E+00 -0.22132056475E+04  0.22132056475E+04  0.00000000000E+00 0. -1.
         25    2    1    2    0    0 -0.37100889722E+02  0.31384197738E+02 -0.49320578765E+03  0.51111473467E+03  0.12499951653E+03 0.  0.
          2    1    1    2  501    0  0.20593188282E+02  0.19757996804E+02 -0.16677238562E+04  0.16679680208E+04  0.00000000000E+00 0. -1.
          1    1    1    2  502    0  0.16507701439E+02 -0.51142194542E+02 -0.26486107592E+02  0.59912787990E+02  0.00000000000E+00 0. -1.
         22    1    3    3    0    0 -0.63013434963E+02  0.65422423869E+01 -0.11572464271E+03  0.13193061378E+03  0.00000000000E+00 0. -1.
         22    1    3    3    0    0  0.25912545242E+02  0.24841955351E+02 -0.37748114494E+03  0.37918412089E+03  0.00000000000E+00 0. -1.
</event>
<event>
 7    1  0.4915160E-006  0.1158442E+03  0.7818608E-02  0.1269999E+00
          2   -1    0    0  502    0  0.00000000000E+00  0.00000000000E+00  0.59438260244E+02  0.59438260244E+02  0.00000000000E+00 0. -1.
          1   -1    0    0  501    0 -0.00000000000E+00 -0.00000000000E+00 -0.24550189073E+04  0.24550189073E+04  0.00000000000E+00 0. -1.
         25    2    1    2    0    0  0.10227595692E+02 -0.24855949870E+02 -0.12827786012E+03  0.18111436244E+03  0.12499912372E+03 0.  0.
          2    1    1    2  501    0 -0.67931466550E+02  0.10067766260E+03 -0.22263041742E+04  0.22296145299E+04  0.00000000000E+00 0. -1.
          1    1    1    2  502    0  0.57703870858E+02 -0.75821712727E+02 -0.40998612771E+02  0.10372827523E+03  0.00000000000E+00 0. -1.
         22    1    3    3    0    0 -0.49841185668E+02 -0.41985295063E+02 -0.70856302789E+02  0.96267982399E+02  0.00000000000E+00 0. -1.
         22    1    3    3    0    0  0.60068781360E+02  0.17129345192E+02 -0.57421557326E+02  0.84846380043E+02  0.00000000000E+00 0. -1.
</event>
<event>
 7    1  0.4915160E-006  0.7119867E+02  0.7818608E-02  0.1461305E+00
          2   -1    0    0  502    0  0.00000000000E+00  0.00000000000E+00  0.24200410389E+03  0.24200410389E+03  0.00000000000E+00 0. -1.
          1   -1    0    0  501    0 -0.00000000000E+00 -0.00000000000E+00 -0.47894554250E+03  0.47894554250E+03  0.00000000000E+00 0. -1.
         25    2    1    2    0    0  0.62220579237E+02  0.15955331149E+02 -0.78227276707E+02  0.16083016006E+03  0.12498344087E+03 0.  0.
          2    1    1    2  501    0  0.82755955993E+01 -0.30117986603E+02 -0.35226332724E+03  0.35364534539E+03  0.00000000000E+00 0. -1.
          1    1    1    2  502    0 -0.70496174836E+02  0.14162655453E+02  0.19354916534E+03  0.20647414095E+03  0.00000000000E+00 0. -1.
         22    1    3    3    0    0 -0.13841274630E+02 -0.41810172542E+02 -0.33668905237E+02  0.55437050708E+02  0.00000000000E+00 0.  1.
         22    1    3    3    0    0  0.76061853867E+02  0.57765503691E+02 -0.44558371470E+02  0.10539310935E+03  0.00000000000E+00 0.  1.
</event>
<event>
 7    1  0.4915160E-006  0.2344295E+03  0.7818608E-02  0.1214692E+00
          2   -1    0    0  502    0  0.00000000000E+00  0.00000000000E+00  0.60646362011E+03  0.60646362011E+03  0.00000000000E+00 0. -1.
          1   -1    0    0  501    0 -0.00000000000E+00 -0.00000000000E+00 -0.66968763627E+03  0.66968763627E+03  0.00000000000E+00 0. -1.
         25    2    1    2    0    0  0.25446296491E+03 -0.12391355047E+03  0.28324648036E+02  0.31069838344E+03  0.12500092513E+03 0.  0.
          2    1    1    2  501    0 -0.22331679559E+03  0.47618370305E+02 -0.49952406338E+03  0.54923782671E+03  0.00000000000E+00 0. -1.
          1    1    1    2  502    0 -0.31146169315E+02  0.76295180165E+02  0.40797539919E+03  0.41621504625E+03  0.00000000000E+00 0. -1.
         22    1    3    3    0    0  0.27587488976E+02 -0.70282224548E+02 -0.24815740653E+01  0.75543489761E+02  0.00000000000E+00 0.  1.
         22    1    3    3    0    0  0.22687547593E+03 -0.53631325922E+02  0.30806222101E+02  0.23515489368E+03  0.00000000000E+00 0.  1.
</event>
<event>
 7    1  0.4915160E-006  0.5428110E+02  0.7818608E-02  0.1566143E+00
          2   -1    0    0  502    0  0.00000000000E+00  0.00000000000E+00  0.10245557737E+04  0.10245557737E+04  0.00000000000E+00 0. -1.
          1   -1    0    0  501    0 -0.00000000000E+00 -0.00000000000E+00 -0.67756447314E+02  0.67756447314E+02  0.00000000000E+00 0. -1.
         25    2    1    2    0    0 -0.13771131143E+02 -0.39336473467E+02  0.72450327368E+03  0.73638748972E+03  0.12499815699E+03 0.  0.
          2    1    1    2  501    0 -0.27510799859E+00 -0.20183045006E+02 -0.56878779257E+02  0.60354175663E+02  0.00000000000E+00 0. -1.
          1    1    1    2  502    0  0.14046239141E+02  0.59519518473E+02  0.28917483200E+03  0.29557055567E+03  0.00000000000E+00 0. -1.
         22    1    3    3    0    0 -0.27323136093E+02  0.18527698443E+01  0.64699650306E+03  0.64757583455E+03  0.00000000000E+00 0.  1.
         22    1    3    3    0    0  0.13552004950E+02 -0.41189243311E+02  0.77506770616E+02  0.88811655170E+02  0.00000000000E+00 0.  1.
</event>
<event>
 7    1  0.4915160E-006  0.6189592E+02  0.7818608E-02  0.1442760E+00
          2   -1    0    0  502    0  0.00000000000E+00  0.00000000000E+00  0.26031382943E+04  0.26031382943E+04  0.00000000000E+00 0. -1.
          1   -1    0    0  501    0 -0.00000000000E+00 -0.00000000000E+00 -0.13237123900E+04  0.13237123900E+04  0.00000000000E+00 0. -1.
         25    2    1    2    0    0 -0.50529870245E+01  0.84321261477E+02  0.38505194789E+03  0.41355359036E+03  0.12500384679E+03 0.  0.
          2    1    1    2  501    0 -0.25274195185E+02 -0.56474488704E+02 -0.13085382347E+04  0.13100001773E+04  0.00000000000E+00 0. -1.
          1    1    1    2  502    0  0.30327182209E+02 -0.27846772773E+02  0.22029121912E+04  0.22032969166E+04  0.00000000000E+00 0. -1.
         22    1    3    3    0    0  0.21424683946E+02  0.10766609672E+03  0.33327015725E+03  0.35088460094E+03  0.00000000000E+00 0.  1.
         22    1    3    3    0    0 -0.26477670971E+02 -0.23344835246E+02  0.51781790641E+02  0.62668989418E+02  0.00000000000E+00 0.  1.
</event>
<event>
 7    1  0.4915160E-006  0.4905303E+02  0.7818608E-02  0.1539950E+00
          2   -1    0    0  502    0  0.00000000000E+00  0.00000000000E+00  0.77163313055E+02  0.77163313055E+02  0.00000000000E+00 0. -1.
          1   -1    0    0  501    0 -0.00000000000E+00 -0.00000000000E+00 -0.22784034865E+03  0.22784034865E+03  0.00000000000E+00 0. -1.
         25    2    1    2    0    0 -0.16802703381E+02  0.25489232397E+02 -0.30041954189E+02  0.13213808935E+03  0.12500369529E+03 0.  0.
          2    1    1    2  501    0  0.79452413362E+01 -0.50370653929E+02 -0.13392113637E+03  0.14330108306E+03  0.00000000000E+00 0. -1.
          1    1    1    2  502    0  0.88574620448E+01  0.24881421532E+02  0.13286054967E+02  0.29564489306E+02  0.00000000000E+00 0. -1.
         22    1    3    3    0    0 -0.36018268881E+02  0.69535546769E+02 -0.30607848304E+02  0.84079416836E+02  0.00000000000E+00 0. -1.
         22    1    3    3    0    0  0.19215565500E+02 -0.44046314372E+02  0.56589411482E+00  0.48058672509E+02  0.00000000000E+00 0. -1.
</event>
<event>
 7    1  0.4915160E-006  0.3250349E+02  0.7818608E-02  0.1579984E+00
          2   -1    0    0  502    0  0.00000000000E+00  0.00000000000E+00  0.59076476125E+03  0.59076476125E+03  0.00000000000E+00 0. -1.
          1   -1    0    0  501    0 -0.00000000000E+00 -0.00000000000E+00 -0.11202804907E+03  0.11202804907E+03  0.00000000000E+00 0. -1.
         25    2    1    2    0    0  0.91457110830E+01  0.62285562348E+02  0.17870661510E+03  0.22699254931E+03  0.12500571128E+03 0.  0.
          2    1    1    2  501    0 -0.56530045968E+01 -0.31559562738E+02 -0.84319092627E+02  0.90209045237E+02  0.00000000000E+00 0. -1.
          1    1    1    2  502    0 -0.34927064863E+01 -0.30725999610E+02  0.38434918971E+03  0.38559121578E+03  0.00000000000E+00 0. -1.
         22    1    3    3    0    0  0.51638971632E+02  0.44619289608E+02  0.36225870645E+02  0.77264339124E+02  0.00000000000E+00 0. -1.
         22    1    3    3    0    0 -0.42493260549E+02  0.17666272741E+02  0.14248074445E+03  0.14972821018E+03  0.00000000000E+00 0. -1.
</event>
<event>
 7    1  0.5771058E-006  0.1655400E+03  0.7818608E-02  0.1326443E+00
          2   -1    0    0  502    0  0.00000000000E+00  0.00000000000E+00  0.13135567285E+04  0.13135567285E+04  0.00000000000E+00 0. -1.
          1   -1    0    0  501    0 -0.00000000000E+00 -0.00000000000E+00 -0.11535762690E+04  0.11535762690E+04  0.00000000000E+00 0. -1.
         25    2    1    2    0    0 -0.61483494788E+02 -0.11072416882E+03 -0.28699240469E+03  0.33768548560E+03  0.12500714036E+03 0.  0.
          2    1    1    2  501    0 -0.19725089709E+02 -0.34293783089E+02 -0.83540613122E+03  0.83634236219E+03  0.00000000000E+00 0. -1.
          1    1    1    2  502    0  0.81208584496E+02  0.14501795191E+03  0.12823789954E+04  0.12931051498E+04  0.00000000000E+00 0. -1.
         22    1    3    3    0    0 -0.98822983537E+02 -0.67786624090E+02 -0.17549821318E+03  0.21251030871E+03  0.00000000000E+00 0.  1.
         22    1    3    3    0    0  0.37339488749E+02 -0.42937544728E+02 -0.11149419151E+03  0.12517517688E+03  0.00000000000E+00 0.  1.
</event>
<event>
 7    1  0.4915160E-006  0.9574198E+02  0.7818608E-02  0.1327871E+00
          2   -1    0    0  502    0  0.00000000000E+00  0.00000000000E+00  0.28858129331E+03  0.28858129331E+03  0.00000000000E+00 0. -1.
          1   -1    0    0  501    0 -0.00000000000E+00 -0.00000000000E+00 -0.18853424765E+03  0.18853424765E+03  0.00000000000E+00 0. -1.
         25    2    1    2    0    0 -0.14199708233E+02  0.11732743037E+03  0.13600350616E+03  0.21929259331E+03  0.12499972065E+03 0.  0.
          2    1    1    2  501    0 -0.46343646931E+02 -0.49139439892E+02 -0.11747562675E+03  0.13550992968E+03  0.00000000000E+00 0. -1.
          1    1    1    2  502    0  0.60543355164E+02 -0.68187990475E+02  0.81519166245E+02  0.12231301797E+03  0.00000000000E+00 0. -1.
         22    1    3    3    0    0 -0.18804475075E+02 -0.17505146000E+02  0.58045871674E+02  0.63477252916E+02  0.00000000000E+00 0. -1.
         22    1    3    3    0    0  0.46047668421E+01  0.13483257637E+03  0.77957634488E+02  0.15581534040E+03  0.00000000000E+00 0. -1.
</event>
<event>
 7    1  0.4915160E-006  0.1132156E+03  0.7818608E-02  0.1308425E+00
          2   -1    0    0  502    0  0.00000000000E+00  0.00000000000E+00  0.44455699285E+03  0.44455699285E+03  0.00000000000E+00 0. -1.
          1   -1    0    0  501    0 -0.00000000000E+00 -0.00000000000E+00 -0.74245298902E+03  0.74245298902E+03  0.00000000000E+00 0. -1.
         25    2    1    2    0    0  0.11415002292E+03 -0.92265067979E+02  0.11612148555E+03  0.22506156351E+03  0.12500174982E+03 0.  0.
          2    1    1    2  501    0 -0.81703868999E+01  0.67500124748E+02 -0.67539945007E+03  0.67881325799E+03  0.00000000000E+00 0. -1.
          1    1    1    2  502    0 -0.10597963602E+03  0.24764943231E+02  0.26138196835E+03  0.28313516038E+03  0.00000000000E+00 0. -1.
         22    1    3    3    0    0  0.32160586084E+02 -0.78761136928E+02  0.35557373332E+01  0.85148477705E+02  0.00000000000E+00 0.  1.
         22    1    3    3    0    0  0.81989436838E+02 -0.13503931052E+02  0.11256574822E+03  0.13991308580E+03  0.00000000000E+00 0.  1.
</event>
<event>
 7    1  0.4915160E-006  0.7441542E+02  0.7818608E-02  0.1433403E+00
          2   -1    0    0  502    0  0.00000000000E+00  0.00000000000E+00  0.23595268898E+04  0.23595268898E+04  0.00000000000E+00 0. -1.
          1   -1    0    0  501    0 -0.00000000000E+00 -0.00000000000E+00 -0.10959647696E+02  0.10959647696E+02  0.00000000000E+00 0. -1.
         25    2    1    2    0    0 -0.66370892260E+02 -0.72823156324E+02  0.14754426206E+04  0.14840035831E+04  0.12500960154E+03 0.  0.
          2    1    1    2  501    0  0.33997033648E+02  0.13911401815E+02  0.58413378631E+02  0.69003247752E+02  0.00000000000E+00 0. -1.
          1    1    1    2  502    0  0.32373858613E+02  0.58911754509E+02  0.81471124290E+03  0.81747970669E+03  0.00000000000E+00 0. -1.
         22    1    3    3    0    0 -0.20017520704E+02  0.33970672337E+02  0.25634415445E+03  0.25935888886E+03  0.00000000000E+00 0.  1.
         22    1    3    3    0    0 -0.46353371556E+02 -0.10679382866E+03  0.12190984662E+04  0.12246446942E+04  0.00000000000E+00 0.  1.
</event>
<event>
 7    1  0.4915160E-006  0.4411297E+02  0.7818608E-02  0.1492460E+00
          2   -1    0    0  502    0  0.00000000000E+00  0.00000000000E+00  0.18077833154E+04  0.18077833154E+04  0.00000000000E+00 0. -1.
          1   -1    0    0  501    0 -0.00000000000E+00 -0.00000000000E+00 -0.10747694698E+03  0.10747694698E+03  0.00000000000E+00 0. -1.
         25    2    1    2    0    0  0.60909965524E+01  0.32289322232E+02  0.21129908962E+03  0.24769231589E+03  0.12499791002E+03 0.  0.
          2    1    1    2  501    0  0.34184940464E+02 -0.28943964938E+02 -0.83386144000E+02  0.94655228445E+02  0.00000000000E+00 0. -1.
          1    1    1    2  502    0 -0.40275937016E+02 -0.33453572941E+01  0.15723934228E+04  0.15729127181E+04  0.00000000000E+00 0. -1.
         22    1    3    3    0    0  0.64674004624E+02  0.20286719385E+02  0.92320632696E+02  0.11453111839E+03  0.00000000000E+00 0. -1.
         22    1    3    3    0    0 -0.58583008071E+02  0.12002602847E+02  0.11897845692E+03  0.13316119751E+03  0.00000000000E+00 0. -1.
</event>
<event>
 7    1  0.4915160E-006  0.3795269E+02  0.7818608E-02  0.1525689E+00
          2   -1    0    0  502    0  0.00000000000E+00  0.00000000000E+00  0.11210537657E+03  0.11210537657E+03  0.00000000000E+00 0. -1.
          1   -1    0    0  501    0 -0.00000000000E+00 -0.00000000000E+00 -0.14581971080E+04  0.14581971080E+04  0.00000000000E+00 0. -1.
         25    2    1    2    0    0 -0.19522809585E+01  0.40505714475E+01 -0.24968870049E+03  0.27926524334E+03  0.12499764179E+03 0.  0.
          2    1    1    2  501    0 -0.33397929304E+02 -0.18027348360E+02 -0.11896938902E+04  0.11902991050E+04  0.00000000000E+00 0. -1.
          1    1    1    2  502    0  0.35350210262E+02  0.13976776912E+02  0.93290859298E+02  0.10073813621E+03  0.00000000000E+00 0. -1.
         22    1    3    3    0    0  0.19461449011E+02  0.21959778983E+02 -0.13616414785E+01  0.29374035441E+02  0.00000000000E+00 0.  1.
         22    1    3    3    0    0 -0.21413729969E+02 -0.17909207535E+02 -0.24832705901E+03  0.24989120789E+03  0.00000000000E+00 0.  1.
</event>
<event>
 7    1  0.4915160E-006  0.8377917E+02  0.7818608E-02  0.1424028E+00
          2   -1    0    0  502    0  0.00000000000E+00  0.00000000000E+00  0.23247928521E+03  0.23247928521E+03  0.00000000000E+00 0. -1.
          1   -1    0    0  501    0 -0.00000000000E+00 -0.00000000000E+00 -0.86666473330E+03  0.86666473330E+03  0.00000000000E+00 0. -1.
         25    2    1    2    0    0  0.62892291820E+02 -0.18539238463E+02 -0.18819817529E+03  0.23524486061E+03  0.12498978969E+03 0.  0.
          2    1    1    2  501    0 -0.68240406448E+02  0.53163823810E+02 -0.65059132807E+03  0.65631716525E+03  0.00000000000E+00 0. -1.
          1    1    1    2  502    0  0.53481146284E+01 -0.34624585347E+02  0.20460405527E+03  0.20758199265E+03  0.00000000000E+00 0. -1.
         22    1    3    3    0    0  0.69537693084E+02 -0.34591080925E+02 -0.42538073308E+02  0.88552364846E+02  0.00000000000E+00 0. -1.
         22    1    3    3    0    0 -0.66454012641E+01  0.16051842462E+02 -0.14566010198E+03  0.14669249576E+03  0.00000000000E+00 0. -1.
</event>
<event>
 7    1  0.4915160E-006  0.9056814E+02  0.7818608E-02  0.1358187E+00
          2   -1    0    0  502    0  0.00000000000E+00  0.00000000000E+00  0.25138470447E+04  0.25138470447E+04  0.00000000000E+00 0. -1.
          1   -1    0    0  501    0 -0.00000000000E+00 -0.00000000000E+00 -0.47187558364E+02  0.47187558364E+02  0.00000000000E+00 0. -1.
         25    2    1    2    0    0 -0.33255026428E+02  0.25716384125E+02  0.34964875599E+03  0.37369367733E+03  0.12500193086E+03 0.  0.
          2    1    1    2  501    0 -0.53404042224E+02  0.13058729518E+02 -0.11952639011E+02  0.56261778516E+02  0.00000000000E+00 0. -1.
          1    1    1    2  502    0  0.86659068652E+02 -0.38775113643E+02  0.21289633693E+04  0.21310791472E+04  0.00000000000E+00 0. -1.
         22    1    3    3    0    0 -0.41477682649E+02 -0.28867361857E+02  0.28147079647E+03  0.28597120835E+03  0.00000000000E+00 0. -1.
         22    1    3    3    0    0  0.82226562209E+01  0.54583745983E+02  0.68177959518E+02  0.87722468985E+02  0.00000000000E+00 0. -1.
</event>
<event>
 7    1  0.4915160E-006  0.1077146E+03  0.7818608E-02  0.1312094E+00
          2   -1    0    0  502    0  0.00000000000E+00  0.00000000000E+00  0.42336485677E+03  0.42336485677E+03  0.00000000000E+00 0. -1.
          1   -1    0    0  501    0 -0.00000000000E+00 -0.00000000000E+00 -0.90400947086E+03  0.90400947086E+03  0.00000000000E+00 0. -1.
         25    2    1    2    0    0  0.27158475752E+02 -0.15208335599E+03 -0.22607067222E+03  0.30099394156E+03  0.12498989576E+03 0.  0.
          2    1    1    2  501    0 -0.49914626785E+02  0.47822513773E+02 -0.63117626620E+03  0.63495034594E+03  0.00000000000E+00 0. -1.
          1    1    1    2  502    0  0.22756151032E+02  0.10426084222E+03  0.37660232433E+03  0.39143004014E+03  0.00000000000E+00 0. -1.
         22    1    3    3    0    0 -0.36054968796E+02 -0.12381630699E+03 -0.13658934458E+03  0.18784857653E+03  0.00000000000E+00 0.  1.
         22    1    3    3    0    0  0.63213444549E+02 -0.28267049001E+02 -0.89481327644E+02  0.11314536503E+03  0.00000000000E+00 0.  1.
</event>
<event>
 7    1  0.4915160E-006  0.1832955E+03  0.7818608E-02  0.1244685E+00
          2   -1    0    0  502    0  0.00000000000E+00  0.00000000000E+00  0.10702766783E+04  0.10702766783E+04  0.00000000000E+00 0. -1.
          1   -1    0    0  501    0 -0.00000000000E+00 -0.00000000000E+00 -0.11599240369E+04  0.11599240369E+04  0.00000000000E+00 0. -1.
         25    2    1    2    0    0  0.90307679123E+02  0.76000400026E+02  0.22783419829E+03  0.28543022710E+03  0.12502181778E+03 0.  0.
          2    1    1    2  501    0 -0.10668620995E+03 -0.15155880862E+03 -0.11216672000E+04  0.11368770063E+04  0.00000000000E+00 0. -1.
          1    1    1    2  502    0  0.16378530830E+02  0.75558408597E+02  0.80418564314E+03  0.80789348185E+03  0.00000000000E+00 0. -1.
         22    1    3    3    0    0  0.33980374704E+02  0.10372845353E+03  0.14517745048E+03  0.18163355985E+03  0.00000000000E+00 0. -1.
         22    1    3    3    0    0  0.56327304418E+02 -0.27728053503E+02  0.82656747807E+02  0.10379666725E+03  0.00000000000E+00 0. -1.
</event>
<event>
 7    1  0.4915160E-006  0.7029611E+02  0.7818608E-02  0.1424163E+00
          2   -1    0    0  502    0  0.00000000000E+00  0.00000000000E+00  0.13541398747E+04  0.13541398747E+04  0.00000000000E+00 0. -1.
          1   -1    0    0  501    0 -0.00000000000E+00 -0.00000000000E+00 -0.17921680088E+02  0.17921680088E+02  0.00000000000E+00 0. -1.
         25    2    1    2    0    0  0.22298942921E+02 -0.56244693990E+02  0.60427120663E+03  0.62002808844E+03  0.12502172146E+03 0.  0.
          2    1    1    2  501    0  0.39444018167E+02  0.13567171614E+02  0.46411461294E+02  0.62401301703E+02  0.00000000000E+00 0. -1.
          1    1    1    2  502    0 -0.61742961088E+02  0.42677522377E+02  0.68553552665E+03  0.68963216461E+03  0.00000000000E+00 0. -1.
         22    1    3    3    0    0 -0.49261042067E+01 -0.13941047385E+02  0.11696046782E+01  0.14831968175E+02  0.00000000000E+00 0. -1.
         22    1    3    3    0    0  0.27225047127E+02 -0.42303646605E+02  0.60310160195E+03  0.60519612027E+03  0.00000000000E+00 0. -1.
</event>
<event>
 7    1  0.4915160E-006  0.5854576E+02  0.7818608E-02  0.1504090E+00
          2   -1    0    0  502    0  0.00000000000E+00  0.00000000000E+00  0.51837405521E+03  0.51837405521E+03  0.00000000000E+00 0. -1.
          1   -1    0    0  501    0 -0.00000000000E+00 -0.00000000000E+00 -0.48715708244E+03  0.48715708244E+03  0.00000000000E+00 0. -1.
         25    2    1    2    0    0 -0.48123880143E+02 -0.69740863688E+02 -0.12939901285E+03  0.19885369285E+03  0.12497596059E+03 0.  0.
          2    1    1    2  501    0  0.33245061570E+02  0.45894625098E+02 -0.32013160369E+03  0.32510889624E+03  0.00000000000E+00 0. -1.
          1    1    1    2  502    0  0.14878818573E+02  0.23846238589E+02  0.48074758931E+03  0.48156854856E+03  0.00000000000E+00 0. -1.
         22    1    3    3    0    0  0.33138625927E+02 -0.32144034372E+02 -0.62404950190E+01  0.46587028797E+02  0.00000000000E+00 0. -1.
         22    1    3    3    0    0 -0.81262506070E+02 -0.37596829316E+02 -0.12315851783E+03  0.15226666405E+03  0.00000000000E+00 0. -1.
</event>
<event>
 7    1  0.4915160E-006  0.5532699E+02  0.7818608E-02  0.1515056E+00
          2   -1    0    0  502    0  0.00000000000E+00  0.00000000000E+00  0.25905444714E+03  0.25905444714E+03  0.00000000000E+00 0. -1.
          1   -1    0    0  501    0 -0.00000000000E+00 -0.00000000000E+00 -0.18842458337E+03  0.18842458337E+03  0.00000000000E+00 0. -1.
         25    2    1    2    0    0 -0.63923207373E+02  0.51185465123E+02 -0.73063556420E+02  0.16634024288E+03  0.12499865937E+03 0.  0.
          2    1    1    2  501    0  0.19478349951E+02 -0.19569282799E+02 -0.62248105416E+02  0.68096913102E+02  0.00000000000E+00 0. -1.
          1    1    1    2  502    0  0.44444857421E+02 -0.31616182325E+02  0.20594152560E+03  0.21304187453E+03  0.00000000000E+00 0. -1.
         22    1    3    3    0    0 -0.96461043894E+02  0.62096348719E+02 -0.61237946224E+02  0.13004143790E+03  0.00000000000E+00 0.  1.
         22    1    3    3    0    0  0.32537836521E+02 -0.10910883596E+02 -0.11825610196E+02  0.36298804978E+02  0.00000000000E+00 0.  1.
</event>
<event>
 7    1  0.4915160E-006  0.8768279E+02  0.7818608E-02  0.1330873E+00
          2   -1    0    0  502    0  0.00000000000E+00  0.00000000000E+00  0.29142133184E+03  0.29142133184E+03  0.00000000000E+00 0. -1.
          1   -1    0    0  501    0 -0.00000000000E+00 -0.00000000000E+00 -0.11695723422E+03  0.11695723422E+03  0.00000000000E+00 0. -1.
         25    2    1    2    0    0 -0.54250606329E+02 -0.65348419137E+01  0.19206755975E+03  0.23558667836E+03  0.12500121225E+03 0.  0.
          2    1    1    2  501    0  0.77231572240E+02 -0.61519856373E+02  0.40013688285E+00  0.98739903728E+02  0.00000000000E+00 0. -1.
          1    1    1    2  502    0 -0.22980965910E+02  0.68054698287E+02 -0.18003599018E+02  0.74051983975E+02  0.00000000000E+00 0. -1.
         22    1    3    3    0    0 -0.37797800214E+02  0.55294810941E+02  0.65069244627E+02  0.93381991917E+02  0.00000000000E+00 0. -1.
         22    1    3    3    0    0 -0.16452806116E+02 -0.61829652855E+02  0.12699831512E+03  0.14220468644E+03  0.00000000000E+00 0. -1.
</event>
<event>
 7    1  0.4915160E-006  0.8182011E+02  0.7818608E-02  0.1359709E+00
          2   -1    0    0  502    0  0.00000000000E+00  0.00000000000E+00  0.14891705038E+03  0.14891705038E+03  0.00000000000E+00 0. -1.
          1   -1    0    0  501    0 -0.00000000000E+00 -0.00000000000E+00 -0.28785040579E+04  0.28785040579E+04  0.00000000000E+00 0. -1.
         25    2    1    2    0    0  0.18051435405E+02  0.19693921445E+02 -0.14996233294E+03  0.19704734177E+03  0.12500099494E+03 0.  0.
          2    1    1    2  501    0  0.46689553617E+02  0.37812818264E+02 -0.26896715897E+04  0.26903425403E+04  0.00000000000E+00 0. -1.
          1    1    1    2  502    0 -0.64740989022E+02 -0.57506739709E+02  0.11004691515E+03  0.14003122618E+03  0.00000000000E+00 0. -1.
         22    1    3    3    0    0 -0.31963669348E+01 -0.23193987638E+02 -0.14725864001E+03  0.14910829917E+03  0.00000000000E+00 0. -1.
         22    1    3    3    0    0  0.21247802340E+02  0.42887909083E+02 -0.27036929316E+01  0.47939042599E+02  0.00000000000E+00 0. -1.
</event>
<event>
 7    1  0.4915160E-006  0.5923138E+02  0.7818608E-02  0.1448975E+00
          2   -1    0    0  502    0  0.00000000000E+00  0.00000000000E+00  0.17760115173E+03  0.17760115173E+03  0.00000000000E+00 0. -1.
          1   -1    0    0  501    0 -0.00000000000E+00 -0.00000000000E+00 -0.16238691935E+04  0.16238691935E+04  0.00000000000E+00 0. -1.
         25    2    1    2    0    0  0.76241818144E+02  0.48444890068E+01 -0.59694758769E+02  0.15819354462E+03  0.12500179769E+03 0.  0.
          2    1    1    2  501    0 -0.28518228891E+02  0.29579473461E+02 -0.15078861967E+04  0.15084458946E+04  0.00000000000E+00 0. -1.
          1    1    1    2  502    0 -0.47723589254E+02 -0.34423962468E+02  0.12131291376E+03  0.13483090599E+03  0.00000000000E+00 0. -1.
         22    1    3    3    0    0  0.59014006960E+02  0.47747177477E+01  0.30338192036E+02  0.66527113593E+02  0.00000000000E+00 0.  1.
         22    1    3    3    0    0  0.17227811184E+02  0.69771259103E-01 -0.90032950804E+02  0.91666431025E+02  0.00000000000E+00 0.  1.
</event>
<event>
 7    1  0.4915160E-006  0.6470780E+02  0.7818608E-02  0.1402302E+00
          2   -1    0    0  502    0  0.00000000000E+00  0.00000000000E+00  0.21853742843E+03  0.21853742843E+03  0.00000000000E+00 0. -1.
          1   -1    0    0  501    0 -0.00000000000E+00 -0.00000000000E+00 -0.19004164014E+03  0.19004164014E+03  0.00000000000E+00 0. -1.
         25    2    1    2    0    0  0.89457536999E+02 -0.70493177559E+02  0.18429847109E+02  0.17010467671E+03  0.12499601099E+03 0.  0.
          2    1    1    2  501    0 -0.48991466066E+02  0.35191505528E+02 -0.99556893519E+02  0.11640524411E+03  0.00000000000E+00 0. -1.
          1    1    1    2  502    0 -0.40466070933E+02  0.35301672031E+02  0.10962283471E+03  0.12206914776E+03  0.00000000000E+00 0. -1.
         22    1    3    3    0    0  0.22901101925E+02 -0.28089509532E+01  0.61632715675E+02  0.65809895276E+02  0.00000000000E+00 0.  1.
         22    1    3    3    0    0  0.66556435075E+02 -0.67684226606E+02 -0.43202868566E+02  0.10429478143E+03  0.00000000000E+00 0.  1.
</event>
<event>
 7    1  0.4915160E-006  0.4531122E+02  0.7818608E-02  0.1501444E+00
          2   -1    0    0  502    0  0.00000000000E+00  0.00000000000E+00  0.11633639374E+04  0.11633639374E+04  0.00000000000E+00 0. -1.
          1   -1    0    0  501    0 -0.00000000000E+00 -0.00000000000E+00 -0.22884407552E+02  0.22884407552E+02  0.00000000000E+00 0. -1.
         25    2    1    2    0    0  0.48274506535E+02  0.65002909841E+02  0.86814898859E+03  0.88083065641E+03  0.12499669036E+03 0.  0.
          2    1    1    2  501    0 -0.25400977750E+02 -0.35944681691E+02  0.16620711187E+02  0.47047612616E+02  0.00000000000E+00 0. -1.
          1    1    1    2  502    0 -0.22873528785E+02 -0.29058228150E+02  0.25570983006E+03  0.25837007592E+03  0.00000000000E+00 0. -1.
         22    1    3    3    0    0 -0.18986700815E+02 -0.13921530742E+02  0.42737152274E+03  0.42801953492E+03  0.00000000000E+00 0. -1.
         22    1    3    3    0    0  0.67261207350E+02  0.78924440583E+02  0.44077746585E+03  0.45281112148E+03  0.00000000000E+00 0. -1.
</event>
<event>
 7    1  0.4915160E-006  0.5780536E+02  0.7818608E-02  0.1508069E+00
          2   -1    0    0  502    0  0.00000000000E+00  0.00000000000E+00  0.49060798720E+03  0.49060798720E+03  0.00000000000E+00 0. -1.
          1   -1    0    0  501    0 -0.00000000000E+00 -0.00000000000E+00 -0.50259695691E+02  0.50259695691E+02  0.00000000000E+00 0. -1.
         25    2    1    2    0    0 -0.53188714691E+02 -0.30111945243E+02  0.25152083869E+03  0.28744265550E+03  0.12499911715E+03 0.  0.
          2    1    1    2  501    0 -0.49920322308E+01  0.27252511328E+02 -0.21570166064E+02  0.35112559341E+02  0.00000000000E+00 0. -1.
          1    1    1    2  502    0  0.58180746922E+02  0.28594339156E+01  0.21039761888E+03  0.21831246805E+03  0.00000000000E+00 0. -1.
         22    1    3    3    0    0 -0.10655812984E+02 -0.54512025123E+02  0.22488042926E+03  0.23163832735E+03  0.00000000000E+00 0. -1.
         22    1    3    3    0    0 -0.42532901708E+02  0.24400079880E+02  0.26640409434E+02  0.55804328153E+02  0.00000000000E+00 0. -1.
</event>
<event>
 7    1  0.4915160E-006  0.3064532E+02  0.7818608E-02  0.1610387E+00
          2   -1    0    0  502    0  0.00000000000E+00  0.00000000000E+00  0.64035577543E+02  0.64035577543E+02  0.00000000000E+00 0. -1.
          1   -1    0    0  501    0 -0.00000000000E+00 -0.00000000000E+00 -0.68063092145E+03  0.68063092145E+03  0.00000000000E+00 0. -1.
         25    2    1    2    0    0  0.39422352767E+02 -0.15790971361E+02 -0.48203130392E+03  0.49978297739E+03  0.12500147942E+03 0.  0.
          2    1    1    2  501    0 -0.24893193151E+02 -0.11170560391E+02 -0.18438970958E+03  0.18639747178E+03  0.00000000000E+00 0. -1.
          1    1    1    2  502    0 -0.14529159616E+02  0.26961531752E+02  0.49825669595E+02  0.58486049825E+02  0.00000000000E+00 0. -1.
         22    1    3    3    0    0  0.53680123239E+02 -0.42444767630E+02 -0.45207797156E+03  0.45722817750E+03  0.00000000000E+00 0.  1.
         22    1    3    3    0    0 -0.14257770472E+02  0.26653796269E+02 -0.29953332360E+02  0.42554799892E+02  0.00000000000E+00 0.  1.
</event>
<event>
 7    1  0.4915160E-006  0.9449098E+02  0.7818608E-02  0.1302357E+00
          2   -1    0    0  502    0  0.00000000000E+00  0.00000000000E+00  0.33487233412E+03  0.33487233412E+03  0.00000000000E+00 0. -1.
          1   -1    0    0  501    0 -0.00000000000E+00 -0.00000000000E+00 -0.66299685642E+03  0.66299685642E+03  0.00000000000E+00 0. -1.
         25    2    1    2    0    0  0.13466173873E+02 -0.27847311288E+02 -0.16761541798E+03  0.21136944222E+03  0.12500120870E+03 0.  0.
          2    1    1    2  501    0 -0.21189689066E+02  0.11361321175E+03 -0.46029948956E+03  0.47458675171E+03  0.00000000000E+00 0. -1.
          1    1    1    2  502    0  0.77235151926E+01 -0.85765900458E+02  0.29979038524E+03  0.31191299661E+03  0.00000000000E+00 0. -1.
         22    1    3    3    0    0  0.54429516501E+02  0.24126134679E+02 -0.56721762578E+02  0.82231386897E+02  0.00000000000E+00 0.  1.
         22    1    3    3    0    0 -0.40963342629E+02 -0.51973445967E+02 -0.11089365540E+03  0.12913805532E+03  0.00000000000E+00 0.  1.
</event>
<event>
 7    1  0.4915160E-006  0.2897697E+02  0.7818608E-02  0.1660880E+00
          2   -1    0    0  502    0  0.00000000000E+00  0.00000000000E+00  0.46716657060E+02  0.46716657060E+02  0.00000000000E+00 0. -1.
          1   -1    0    0  501    0 -0.00000000000E+00 -0.00000000000E+00 -0.72673850232E+03  0.72673850232E+03  0.00000000000E+00 0. -1.
         25    2    1    2    0    0  0.19933612598E+02  0.40431819344E+02 -0.28415602037E+03  0.31369043402E+03  0.12499985424E+03 0.  0.
          2    1    1    2  501    0 -0.19543000226E+01 -0.28490606077E+02 -0.42363366445E+03  0.42459511959E+03  0.00000000000E+00 0. -1.
          1    1    1    2  502    0 -0.17979312575E+02 -0.11941213267E+02  0.27767839568E+02  0.35169605759E+02  0.00000000000E+00 0. -1.
         22    1    3    3    0    0  0.71687780062E+02  0.37598965427E+02 -0.16729163772E+03  0.18584755060E+03  0.00000000000E+00 0. -1.
         22    1    3    3    0    0 -0.51754167464E+02  0.28328539179E+01 -0.11686438264E+03  0.12784288342E+03  0.00000000000E+00 0. -1.
</event>
<event>
 7    1  0.4915160E-006  0.1141679E+03  0.7818608E-02  0.1382442E+00
          2   -1    0    0  502    0  0.00000000000E+00  0.00000000000E+00  0.47166919416E+02  0.47166919416E+02  0.00000000000E+00 0. -1.
          1   -1    0    0  501    0 -0.00000000000E+00 -0.00000000000E+00 -0.40152429351E+04  0.40152429351E+04  0.00000000000E+00 0. -1.
         25    2    1    2    0    0 -0.64740139062E+02  0.82987683665E+02 -0.23745468841E+04  0.23801625500E+04  0.12499047206E+03 0.  0.
          2    1    1    2  501    0 -0.30267769756E+02 -0.18896977683E+02 -0.15633217546E+04  0.15637289222E+04  0.00000000000E+00 0. -1.
          1    1    1    2  502    0  0.95007908818E+02 -0.64090705982E+02 -0.30207376925E+02  0.11851838234E+03  0.00000000000E+00 0. -1.
         22    1    3    3    0    0 -0.37428668114E+02  0.11284340915E+03 -0.15119127114E+04  0.15165798981E+04  0.00000000000E+00 0. -1.
         22    1    3    3    0    0 -0.27311470948E+02 -0.29855725480E+02 -0.86263417269E+03  0.86358265191E+03  0.00000000000E+00 0. -1.
</event>
<event>
 7    1  0.4915160E-006  0.7523951E+02  0.7818608E-02  0.1345660E+00
          2   -1    0    0  502    0  0.00000000000E+00  0.00000000000E+00  0.70191534103E+03  0.70191534103E+03  0.00000000000E+00 0. -1.
          1   -1    0    0  501    0 -0.00000000000E+00 -0.00000000000E+00 -0.36737619428E+03  0.36737619428E+03  0.00000000000E+00 0. -1.
         25    2    1    2    0    0 -0.39327974899E+02 -0.86784365663E+02  0.74239200917E+02  0.17382435518E+03  0.12500092706E+03 0.  0.
          2    1    1    2  501    0 -0.32005085460E+02  0.68578326221E+02 -0.31067802770E+03  0.31976264512E+03  0.00000000000E+00 0. -1.
          1    1    1    2  502    0  0.71333060359E+02  0.18206039442E+02  0.57097797354E+03  0.57570453501E+03  0.00000000000E+00 0. -1.
         22    1    3    3    0    0 -0.57776307074E+02 -0.10743912815E+03  0.79537707827E+02  0.14562800171E+03  0.00000000000E+00 0. -1.
         22    1    3    3    0    0  0.18448332175E+02  0.20654762483E+02 -0.52985069103E+01  0.28196353465E+02  0.00000000000E+00 0. -1.
</event>
<event>
 7    1  0.4915160E-006  0.5877258E+02  0.7818608E-02  0.1526210E+00
          2   -1    0    0  502    0  0.00000000000E+00  0.00000000000E+00  0.15762388165E+03  0.15762388165E+03  0.00000000000E+00 0. -1.
          1   -1    0    0  501    0 -0.00000000000E+00 -0.00000000000E+00 -0.59825472972E+03  0.59825472972E+03  0.00000000000E+00 0. -1.
         25    2    1    2    0    0  0.39297961257E+02  0.86215954301E+01 -0.20870600298E+03  0.24657797042E+03  0.12499535251E+03 0.  0.
          2    1    1    2  501    0  0.12242489004E+02  0.20788671440E+02 -0.36384724566E+03  0.36464621974E+03  0.00000000000E+00 0. -1.
          1    1    1    2  502    0 -0.51540450261E+02 -0.29410266871E+02  0.13192240056E+03  0.14465442122E+03  0.00000000000E+00 0. -1.
         22    1    3    3    0    0  0.59552175074E+02  0.41255314581E+02 -0.19101373675E+03  0.20429074909E+03  0.00000000000E+00 0.  1.
         22    1    3    3    0    0 -0.20254213817E+02 -0.32633719151E+02 -0.17692266227E+02  0.42287221323E+02  0.00000000000E+00 0.  1.
</event>
<event>
 7    1  0.4915160E-006  0.9958447E+02  0.7818608E-02  0.1285635E+00
          2   -1    0    0  502    0  0.00000000000E+00  0.00000000000E+00  0.81657083723E+02  0.81657083723E+02  0.00000000000E+00 0. -1.
          1   -1    0    0  501    0 -0.00000000000E+00 -0.00000000000E+00 -0.10935514455E+04  0.10935514455E+04  0.00000000000E+00 0. -1.
         25    2    1    2    0    0  0.12580088679E+02 -0.11727260282E+02 -0.24164472833E+03  0.27260429996E+03  0.12500056944E+03 0.  0.
          2    1    1    2  501    0 -0.61011578470E+01 -0.99397398186E+02 -0.78413041760E+03  0.79042873094E+03  0.00000000000E+00 0. -1.
          1    1    1    2  502    0 -0.64789308325E+01  0.11112465847E+03  0.13880784117E+02  0.11217549836E+03  0.00000000000E+00 0. -1.
         22    1    3    3    0    0  0.49312118444E+02 -0.27998228614E+02 -0.46403414234E+02  0.73272523387E+02  0.00000000000E+00 0. -1.
         22    1    3    3    0    0 -0.36732029765E+02  0.16270968332E+02 -0.19524131410E+03  0.19933177657E+03  0.00000000000E+00 0. -1.
</event>
<event>
 7    1  0.4915160E-006  0.4459606E+02  0.7818608E-02  0.1527799E+00
          2   -1    0    0  502    0  0.00000000000E+00  0.00000000000E+00  0.69346698296E+03  0.69346698296E+03  0.00000000000E+00 0. -1.
          1   -1    0    0  501    0 -0.00000000000E+00 -0.00000000000E+00 -0.21246196540E+03  0.21246196540E+03  0.00000000000E+00 0. -1.
         25    2    1    2    0    0  0.24932873740E+02 -0.15633183047E+02 -0.13213004082E+03  0.18425446167E+03  0.12500125741E+03 0.  0.
          2    1    1    2  501    0  0.18721227179E+02  0.25285889647E+02 -0.48891593045E+02  0.58139903963E+02  0.00000000000E+00 0. -1.
          1    1    1    2  502    0 -0.43654100920E+02 -0.96527065998E+01  0.66202665143E+03  0.66353458273E+03  0.00000000000E+00 0. -1.
         22    1    3    3    0    0  0.18358120274E+02  0.27812679687E+02  0.10555048164E+02  0.34956755758E+02  0.00000000000E+00 0.  1.
         22    1    3    3    0    0  0.65747534667E+01 -0.43445862734E+02 -0.14268508899E+03  0.14929770591E+03  0.00000000000E+00 0.  1.
</event>
<event>
 7    1  0.4915160E-006  0.4344764E+02  0.7818608E-02  0.1571152E+00
          2   -1    0    0  502    0  0.00000000000E+00  0.00000000000E+00  0.22724163347E+04  0.22724163347E+04  0.00000000000E+00 0. -1.
          1   -1    0    0  501    0 -0.00000000000E+00 -0.00000000000E+00 -0.50403598446E+03  0.50403598446E+03  0.00000000000E+00 0. -1.
         25    2    1    2    0    0  0.39595982759E+00  0.57656721975E+02  0.15608798009E+04  0.15669385775E+04  0.12500519334E+03 0.  0.
          2    1    1    2  501    0  0.16635634961E+02 -0.40130377645E+02 -0.49985347712E+03  0.50173767065E+03  0.00000000000E+00 0. -1.
          1    1    1    2  502    0 -0.17031594789E+02 -0.17526344330E+02  0.70735402644E+03  0.70777607101E+03  0.00000000000E+00 0. -1.
         22    1    3    3    0    0  0.51665063718E+02 -0.10105950852E+02  0.57770810039E+03  0.58010176548E+03  0.00000000000E+00 0. -1.
         22    1    3    3    0    0 -0.51269103890E+02  0.67762672827E+02  0.98317170051E+03  0.98683681201E+03  0.00000000000E+00 0. -1.
</event>
<event>
 7    1  0.6296744E-006  0.8465517E+02  0.7818608E-02  0.1399144E+00
          2   -1    0    0  502    0  0.00000000000E+00  0.00000000000E+00  0.21853297715E+04  0.21853297715E+04  0.00000000000E+00 0. -1.
          1   -1    0    0  501    0 -0.00000000000E+00 -0.00000000000E+00 -0.58240823933E+03  0.58240823933E+03  0.00000000000E+00 0. -1.
         25    2    1    2    0    0 -0.91984385985E+02  0.81390727243E+00 -0.34304112525E+02  0.15895306235E+03  0.12501005634E+03 0.  0.
          2    1    1    2  501    0  0.75096593935E+02 -0.39361933190E+02 -0.48186947891E+03  0.48927196415E+03  0.00000000000E+00 0. -1.
          1    1    1    2  502    0  0.16887792049E+02  0.38548025918E+02  0.21190951236E+04  0.21195129844E+04  0.00000000000E+00 0. -1.
         22    1    3    3    0    0 -0.70384085501E+02 -0.31000788131E+02 -0.71820786767E+02  0.10522924388E+03  0.00000000000E+00 0. -1.
         22    1    3    3    0    0 -0.21600300483E+02  0.31814695404E+02  0.37516674242E+02  0.53723818468E+02  0.00000000000E+00 0. -1.
</event>
<event>
 7    1  0.4915160E-006  0.1442860E+03  0.7818608E-02  0.1400529E+00
          2   -1    0    0  502    0  0.00000000000E+00  0.00000000000E+00  0.26003045501E+04  0.26003045501E+04  0.00000000000E+00 0. -1.
          1   -1    0    0  501    0 -0.00000000000E+00 -0.00000000000E+00 -0.38554192420E+02  0.38554192420E+02  0.00000000000E+00 0. -1.
         25    2    1    2    0    0  0.75169172832E+01  0.15332835523E+03  0.38564378134E+03  0.43348874009E+03  0.12500109254E+03 0.  0.
          2    1    1    2  501    0  0.20897120319E+02 -0.12640040458E+02 -0.11265867889E+00  0.24422795753E+02  0.00000000000E+00 0. -1.
          1    1    1    2  502    0 -0.28414037602E+02 -0.14068831477E+03  0.21762192351E+04  0.21809472067E+04  0.00000000000E+00 0. -1.
         22    1    3    3    0    0  0.25591568909E+02  0.28103169490E+02  0.22898608220E+03  0.23211924172E+03  0.00000000000E+00 0. -1.
         22    1    3    3    0    0 -0.18074651626E+02  0.12522518574E+03  0.15665769914E+03  0.20136949837E+03  0.00000000000E+00 0. -1.
</event>
<event>
 7    1  0.4915160E-006  0.1882792E+03  0.7818608E-02  0.1242733E+00
          2   -1    0    0  502    0  0.00000000000E+00  0.00000000000E+00  0.55533762699E+03  0.55533762699E+03  0.00000000000E+00 0. -1.
          1   -1    0    0  501    0 -0.00000000000E+00 -0.00000000000E+00 -0.10298131382E+04  0.10298131382E+04  0.00000000000E+00 0. -1.
         25    2    1    2    0    0  0.82158895019E+01  0.13258130330E+03 -0.15192226148E+00  0.18240002288E+03  0.12499776975E+03 0.  0.
          2    1    1    2  501    0  0.42332487568E+02 -0.19035288702E+03 -0.92512837407E+03  0.94545691050E+03  0.00000000000E+00 0. -1.
          1    1    1    2  502    0 -0.50548377070E+02  0.57771583723E+02  0.45080478512E+03  0.45729383180E+03  0.00000000000E+00 0. -1.
         22    1    3    3    0    0  0.55262140684E+02  0.37381383175E+02  0.28288281903E+02  0.72467226344E+02  0.00000000000E+00 0.  1.
         22    1    3    3    0    0 -0.47046251182E+02  0.95199920125E+02 -0.28440204164E+02  0.10993279654E+03  0.00000000000E+00 0.  1.
</event>
<event>
 7    1  0.4915160E-006  0.1727168E+03  0.7818608E-02  0.1231874E+00
          2   -1    0    0  502    0  0.00000000000E+00  0.00000000000E+00  0.14457634159E+04  0.14457634159E+04  0.00000000000E+00 0. -1.
          1   -1    0    0  501    0 -0.00000000000E+00 -0.00000000000E+00 -0.15401357152E+04  0.15401357152E+04  0.00000000000E+00 0. -1.
         25    2    1    2    0    0  0.13909656849E+03  0.21432153036E+03  0.75442107874E+03  0.80626138800E+03  0.12499875197E+03 0.  0.
          2    1    1    2  501    0 -0.62735212922E+02 -0.16039649896E+03 -0.15059998235E+04  0.15158160219E+04  0.00000000000E+00 0. -1.
          1    1    1    2  502    0 -0.76361355569E+02 -0.53925031396E+02  0.65720644548E+03  0.66382172126E+03  0.00000000000E+00 0. -1.
         22    1    3    3    0    0  0.11793691989E+03  0.13914560560E+03  0.35328745728E+03  0.39759608160E+03  0.00000000000E+00 0. -1.
         22    1    3    3    0    0  0.21159648598E+02  0.75175924758E+02  0.40113362146E+03  0.40866530640E+03  0.00000000000E+00 0. -1.
</event>
<event>
 7    1  0.4915160E-006  0.1054969E+03  0.7818608E-02  0.1326077E+00
          2   -1    0    0  502    0  0.00000000000E+00  0.00000000000E+00  0.13835056123E+04  0.13835056123E+04  0.00000000000E+00 0. -1.
          1   -1    0    0  501    0 -0.00000000000E+00 -0.00000000000E+00 -0.17733027019E+03  0.17733027019E+03  0.00000000000E+00 0. -1.
         25    2    1    2    0    0 -0.94472682175E+02  0.13002967338E+03  0.19992369770E+03  0.28535563673E+03  0.12500220348E+03 0.  0.
          2    1    1    2  501    0  0.20644421180E+02 -0.58758386588E+02 -0.12496198500E+03  0.13962176699E+03  0.00000000000E+00 0. -1.
          1    1    1    2  502    0  0.73828260995E+02 -0.71271286790E+02  0.11312136294E+04  0.11358584788E+04  0.00000000000E+00 0. -1.
         22    1    3    3    0    0  0.22342115147E+01 -0.31341099731E+00  0.88406486187E+02  0.88435268573E+02  0.00000000000E+00 0.  1.
         22    1    3    3    0    0 -0.96706893690E+02  0.13034308438E+03  0.11151721151E+03  0.19692036816E+03  0.00000000000E+00 0.  1.
</event>
<event>
 7    1  0.4915160E-006  0.3329673E+02  0.7818608E-02  0.1568988E+00
          2   -1    0    0  502    0  0.00000000000E+00  0.00000000000E+00  0.21611776382E+04  0.21611776382E+04  0.00000000000E+00 0. -1.
          1   -1    0    0  501    0 -0.00000000000E+00 -0.00000000000E+00 -0.20193143558E+03  0.20193143558E+03  0.00000000000E+00 0. -1.
         25    2    1    2    0    0  0.19333337359E+01  0.30308300327E+02  0.42591734435E+03  0.44491825401E+03  0.12499735069E+03 0.  0.
          2    1    1    2  501    0 -0.30081274990E+02 -0.14417642609E+02 -0.19083270820E+03  0.19372628640E+03  0.00000000000E+00 0. -1.
          1    1    1    2  502    0  0.28147941254E+02 -0.15890657719E+02  0.17241615665E+04  0.17244645334E+04  0.00000000000E+00 0. -1.
         22    1    3    3    0    0 -0.57412204467E+02  0.32291371603E+02  0.27405576399E+03  0.28186070261E+03  0.00000000000E+00 0.  1.
         22    1    3    3    0    0  0.59345538203E+02 -0.19830712754E+01  0.15186158037E+03  0.16305755140E+03  0.00000000000E+00 0.  1.
</event>
<event>
 7    1  0.4915160E-006  0.6388731E+02  0.7818608E-02  0.1409838E+00
          2   -1    0    0  502    0  0.00000000000E+00  0.00000000000E+00  0.18050585404E+03  0.18050585404E+03  0.00000000000E+00 0. -1.
          1   -1    0    0  501    0 -0.00000000000E+00 -0.00000000000E+00 -0.11994685273E+04  0.11994685273E+04  0.00000000000E+00 0. -1.
         25    2    1    2    0    0  0.83408467257E+02  0.54279841639E+02 -0.36275589351E+03  0.39638336134E+03  0.12499862899E+03 0.  0.
          2    1    1    2  501    0 -0.20347513559E+02 -0.47055366518E+02 -0.81290778650E+03  0.81452274257E+03  0.00000000000E+00 0. -1.
          1    1    1    2  502    0 -0.63060953699E+02 -0.72244751207E+01  0.15670100674E+03  0.16906827744E+03  0.00000000000E+00 0. -1.
         22    1    3    3    0    0 -0.49933782232E+01 -0.25300280012E+02 -0.15378542986E+03  0.15593266634E+03  0.00000000000E+00 0. -1.
         22    1    3    3    0    0  0.88401845481E+02  0.79580121651E+02 -0.20897046365E+03  0.24045069500E+03  0.00000000000E+00 0. -1.
</event>
<event>
 7    1  0.4915160E-006  0.5025355E+02  0.7818608E-02  0.1492064E+00
          2   -1    0    0  502    0  0.00000000000E+00  0.00000000000E+00  0.26698381265E+03  0.26698381265E+03  0.00000000000E+00 0. -1.
          1   -1    0    0  501    0 -0.00000000000E+00 -0.00000000000E+00 -0.20324126647E+03  0.20324126647E+03  0.00000000000E+00 0. -1.
         25    2    1    2    0    0 -0.56797815460E+02  0.60326715651E+01  0.15319098955E+03  0.20580218066E+03  0.12499869327E+03 0.  0.
          2    1    1    2  501    0  0.20121385841E+02  0.29336630866E+02 -0.16748702681E+03  0.17122328179E+03  0.00000000000E+00 0. -1.
          1    1    1    2  502    0  0.36676429618E+02 -0.35369302431E+02  0.78038583428E+02  0.93199616670E+02  0.00000000000E+00 0. -1.
         22    1    3    3    0    0 -0.25399211633E+02  0.26356770657E+02  0.16306148828E+03  0.16711926362E+03  0.00000000000E+00 0.  1.
         22    1    3    3    0    0 -0.31398603827E+02 -0.20324099092E+02 -0.98704987296E+01  0.38682917048E+02  0.00000000000E+00 0.  1.
</event>
<event>
 7    1  0.4915160E-006  0.4443001E+02  0.7818608E-02  0.1509945E+00
          2   -1    0    0  502    0  0.00000000000E+00  0.00000000000E+00  0.99098779058E+03  0.99098779058E+03  0.00000000000E+00 0. -1.
          1   -1    0    0  501    0 -0.00000000000E+00 -0.00000000000E+00 -0.22576610790E+03  0.22576610790E+03  0.00000000000E+00 0. -1.
         25    2    1    2    0    0 -0.19811579928E+02 -0.68844090911E+02 -0.10420837913E+03  0.17781103412E+03  0.12500148008E+03 0.  0.
          2    1    1    2  501    0  0.23945813995E+02  0.33494505540E+02 -0.79402549130E+02  0.89442991439E+02  0.00000000000E+00 0. -1.
          1    1    1    2  502    0 -0.41342340672E+01  0.35349585371E+02  0.94883261094E+03  0.94949987291E+03  0.00000000000E+00 0. -1.
         22    1    3    3    0    0  0.35429638219E+02 -0.74378179026E+02 -0.36115203327E+02  0.89953769742E+02  0.00000000000E+00 0. -1.
         22    1    3    3    0    0 -0.55241218147E+02  0.55340881144E+01 -0.68093175803E+02  0.87857264381E+02  0.00000000000E+00 0. -1.
</event>
<event>
 7    1  0.4915160E-006  0.2144132E+03  0.7818608E-02  0.1188211E+00
          2   -1    0    0  502    0  0.00000000000E+00  0.00000000000E+00  0.28823204691E+03  0.28823204691E+03  0.00000000000E+00 0. -1.
          1   -1    0    0  501    0 -0.00000000000E+00 -0.00000000000E+00 -0.24475623556E+04  0.24475623556E+04  0.00000000000E+00 0. -1.
         25    2    1    2    0    0 -0.29254466154E+03 -0.14247151817E+03 -0.36936519732E+03  0.50787467639E+03  0.12500210176E+03 0.  0.
          2    1    1    2  501    0  0.18895508212E+03  0.81819233017E+02 -0.19867609546E+04  0.19974026886E+04  0.00000000000E+00 0. -1.
          1    1    1    2  502    0  0.10358957942E+03  0.60652285148E+02  0.19679584322E+03  0.23051703747E+03  0.00000000000E+00 0. -1.
         22    1    3    3    0    0 -0.76457599116E+02  0.96913591870E+01 -0.13092256073E+03  0.15192236114E+03  0.00000000000E+00 0. -1.
         22    1    3    3    0    0 -0.21608706242E+03 -0.15216287735E+03 -0.23844263659E+03  0.35595231525E+03  0.00000000000E+00 0. -1.
</event>
<event>
 7    1  0.4915160E-006  0.5951747E+02  0.7818608E-02  0.1435925E+00
          2   -1    0    0  502    0  0.00000000000E+00  0.00000000000E+00  0.10737440673E+03  0.10737440673E+03  0.00000000000E+00 0. -1.
          1   -1    0    0  501    0 -0.00000000000E+00 -0.00000000000E+00 -0.47788438518E+03  0.47788438518E+03  0.00000000000E+00 0. -1.
         25    2    1    2    0    0  0.43747601262E+02 -0.48532093983E+02 -0.14613803506E+03  0.20310164422E+03  0.12499894331E+03 0.  0.
          2    1    1    2  501    0 -0.30605495208E+00  0.60514750134E+02 -0.29348020358E+03  0.29965439851E+03  0.00000000000E+00 0. -1.
          1    1    1    2  502    0 -0.43441546310E+02 -0.11982656151E+02  0.69108260195E+02  0.82502749175E+02  0.00000000000E+00 0. -1.
         22    1    3    3    0    0  0.37160817654E+02 -0.71693069624E+02 -0.32675354189E+02  0.87112004754E+02  0.00000000000E+00 0. -1.
         22    1    3    3    0    0  0.65867836082E+01  0.23160975642E+02 -0.11346268088E+03  0.11598963946E+03  0.00000000000E+00 0. -1.
</event>
<event>
 7    1  0.4915160E-006  0.4630418E+02  0.7818608E-02  0.1515076E+00
          2   -1    0    0  502    0  0.00000000000E+00  0.00000000000E+00  0.86783531010E+03  0.86783531010E+03  0.00000000000E+00 0. -1.
          1   -1    0    0  501    0 -0.00000000000E+00 -0.00000000000E+00 -0.10773593530E+03  0.10773593530E+03  0.00000000000E+00 0. -1.
         25    2    1    2    0    0 -0.76777312318E+01 -0.22442801479E+02 -0.51731066791E+01  0.12733737429E+03  0.12500167584E+03 0.  0.
          2    1    1    2  501    0 -0.48522436232E+01  0.52956984376E+02 -0.23949424446E+02  0.58322906252E+02  0.00000000000E+00 0. -1.
          1    1    1    2  502    0  0.12529974855E+02 -0.30514182897E+02  0.78922190592E+03  0.78991096486E+03  0.00000000000E+00 0. -1.
         22    1    3    3    0    0  0.50144661558E+02 -0.34951718355E+02  0.18126074740E+02  0.63754719701E+02  0.00000000000E+00 0.  1.
         22    1    3    3    0    0 -0.57822392790E+02  0.12508916876E+02 -0.23299181419E+02  0.63582654586E+02  0.00000000000E+00 0.  1.
</event>
<event>
 7    1  0.4915160E-006  0.4812093E+02  0.7818608E-02  0.1525803E+00
          2   -1    0    0  502    0  0.00000000000E+00  0.00000000000E+00  0.15794151499E+04  0.15794151499E+04  0.00000000000E+00 0. -1.
          1   -1    0    0  501    0 -0.00000000000E+00 -0.00000000000E+00 -0.40626289578E+03  0.40626289578E+03  0.00000000000E+00 0. -1.
         25    2    1    2    0    0 -0.69723832057E+02 -0.31920625428E+02  0.18843478230E+03  0.23877363978E+03  0.12499937915E+03 0.  0.
          2    1    1    2  501    0  0.28376610365E+02  0.82283645932E+01 -0.38010434173E+03  0.38125089981E+03  0.00000000000E+00 0. -1.
          1    1    1    2  502    0  0.41347221692E+02  0.23692260835E+02  0.13648218136E+04  0.13656535061E+04  0.00000000000E+00 0. -1.
         22    1    3    3    0    0 -0.10350818013E+03 -0.24767866870E+02  0.10993316366E+03  0.15301206179E+03  0.00000000000E+00 0.  1.
         22    1    3    3    0    0  0.33784348068E+02 -0.71527585583E+01  0.78501618647E+02  0.85761577992E+02  0.00000000000E+00 0.  1.
</event>
<event>
 7    1  0.4915160E-006  0.1038512E+03  0.7818608E-02  0.1416572E+00
          2   -1    0    0  502    0  0.00000000000E+00  0.00000000000E+00  0.42596303957E+04  0.42596303957E+04  0.00000000000E+00 0. -1.
          1   -1    0    0  501    0 -0.00000000000E+00 -0.00000000000E+00 -0.12482695030E+03  0.12482695030E+03  0.00000000000E+00 0. -1.
         25    2    1    2    0    0  0.36337938564E+02 -0.74585895557E+02  0.12110185801E+04  0.12202764139E+04  0.12500009391E+03 0.  0.
          2    1    1    2  501    0 -0.56445456741E+01 -0.29393994136E+02 -0.11735368678E+03  0.12111050982E+03  0.00000000000E+00 0. -1.
          1    1    1    2  502    0 -0.30693392890E+02  0.10397988969E+03  0.30411385521E+04  0.30430704223E+04  0.00000000000E+00 0. -1.
         22    1    3    3    0    0  0.67280748122E+02 -0.84112927473E+02  0.10782828184E+04  0.10836491683E+04  0.00000000000E+00 0. -1.
         22    1    3    3    0    0 -0.30942809558E+02  0.95270319159E+01  0.13273576171E+03  0.13662724559E+03  0.00000000000E+00 0. -1.
</event>
<event>
 7    1  0.4915160E-006  0.7084462E+02  0.7818608E-02  0.1419524E+00
          2   -1    0    0  502    0  0.00000000000E+00  0.00000000000E+00  0.16123020282E+04  0.16123020282E+04  0.00000000000E+00 0. -1.
          1   -1    0    0  501    0 -0.00000000000E+00 -0.00000000000E+00 -0.15738028035E+04  0.15738028035E+04  0.00000000000E+00 0. -1.
         25    2    1    2    0    0 -0.56080375144E+02 -0.84339288362E+02 -0.18114727803E+02  0.16189902929E+03  0.12500011314E+03 0.  0.
          2    1    1    2  501    0 -0.10939335891E+01  0.42874527822E+02 -0.14826761127E+04  0.14832962877E+04  0.00000000000E+00 0. -1.
          1    1    1    2  502    0  0.57174308733E+02  0.41464760540E+02  0.15392900651E+04  0.15409095147E+04  0.00000000000E+00 0. -1.
         22    1    3    3    0    0  0.32874632138E+02 -0.59658182282E+02 -0.17136816586E+01  0.68137925241E+02  0.00000000000E+00 0.  1.
         22    1    3    3    0    0 -0.88955007282E+02 -0.24681106080E+02 -0.16401046144E+02  0.93761104049E+02  0.00000000000E+00 0.  1.
</event>
<event>
 7    1  0.4915160E-006  0.6512161E+02  0.7818608E-02  0.1493125E+00
          2   -1    0    0  502    0  0.00000000000E+00  0.00000000000E+00  0.16547113639E+04  0.16547113639E+04  0.00000000000E+00 0. -1.
          1   -1    0    0  501    0 -0.00000000000E+00 -0.00000000000E+00 -0.72015463317E+02  0.72015463317E+02  0.00000000000E+00 0. -1.
         25    2    1    2    0    0  0.54880831059E+02  0.25343050545E+02  0.10225993595E+03  0.17244024943E+03  0.12499747714E+03 0.  0.
          2    1    1    2  501    0 -0.12388319476E+02  0.24271859454E+02 -0.31094254166E+02  0.41345450329E+02  0.00000000000E+00 0. -1.
          1    1    1    2  502    0 -0.42492511583E+02 -0.49614909999E+02  0.15115302188E+04  0.15129411275E+04  0.00000000000E+00 0. -1.
         22    1    3    3    0    0 -0.31438988027E+02  0.38907571654E+02  0.49470026305E+02  0.70352630390E+02  0.00000000000E+00 0. -1.
         22    1    3    3    0    0  0.86319819086E+02 -0.13564521109E+02  0.52789909649E+02  0.10208761904E+03  0.00000000000E+00 0. -1.
</event>
<event>
 7    1  0.4915160E-006  0.9597013E+02  0.7818608E-02  0.1357552E+00
          2   -1    0    0  502    0  0.00000000000E+00  0.00000000000E+00  0.10772216437E+04  0.10772216437E+04  0.00000000000E+00 0. -1.
          1   -1    0    0  501    0 -0.00000000000E+00 -0.00000000000E+00 -0.57931269242E+02  0.57931269242E+02  0.00000000000E+00 0. -1.
         25    2    1    2    0    0 -0.89600540816E+02  0.61667019899E+02  0.24527328614E+03  0.29599780406E+03  0.12499854741E+03 0.  0.
          2    1    1    2  501    0  0.46368295237E+02  0.23891215179E+02 -0.66866014164E+01  0.52588207846E+02  0.00000000000E+00 0. -1.
          1    1    1    2  502    0  0.43232245579E+02 -0.85558235078E+02  0.78070368975E+03  0.78656690105E+03  0.00000000000E+00 0. -1.
         22    1    3    3    0    0  0.12877859535E+02  0.52112052136E+02  0.13436515741E+03  0.14469105283E+03  0.00000000000E+00 0.  1.
         22    1    3    3    0    0 -0.10247840035E+03  0.95549677633E+01  0.11090812873E+03  0.15130675122E+03  0.00000000000E+00 0.  1.
</event>
<event>
 7    1  0.4915160E-006  0.7782111E+02  0.7818608E-02  0.1432442E+00
          2   -1    0    0  502    0  0.00000000000E+00  0.00000000000E+00  0.65961226659E+03  0.65961226659E+03  0.00000000000E+00 0. -1.
          1   -1    0    0  501    0 -0.00000000000E+00 -0.00000000000E+00 -0.11425298325E+03  0.11425298325E+03  0.00000000000E+00 0. -1.
         25    2    1    2    0    0  0.42481047131E+02  0.47423127011E+02  0.15745601175E+03  0.21088327102E+03  0.12500306404E+03 0.  0.
          2    1    1    2  501    0 -0.73662218752E+02 -0.30702666010E+02 -0.68523010505E+02  0.10518640188E+03  0.00000000000E+00 0. -1.
          1    1    1    2  502    0  0.31181171621E+02 -0.16720461002E+02  0.45642628210E+03  0.45779557694E+03  0.00000000000E+00 0. -1.
         22    1    3    3    0    0 -0.37248943006E+02  0.30106918458E+02  0.21892026518E+02  0.52660906934E+02  0.00000000000E+00 0.  1.
         22    1    3    3    0    0  0.79729990137E+02  0.17316208553E+02  0.13556398523E+03  0.15822236409E+03  0.00000000000E+00 0.  1.
</event>
<event>
 7    1  0.5952842E-006  0.7744568E+02  0.7818608E-02  0.1386599E+00
          2   -1    0    0  502    0  0.00000000000E+00  0.00000000000E+00  0.19764816008E+04  0.19764816008E+04  0.00000000000E+00 0. -1.
          1   -1    0    0  501    0 -0.00000000000E+00 -0.00000000000E+00 -0.48905077980E+03  0.48905077980E+03  0.00000000000E+00 0. -1.
         25    2    1    2    0    0 -0.10988015450E+03 -0.22861247908E+02  0.27972922977E+01  0.16801486277E+03  0.12499953703E+03 0.  0.
          2    1    1    2  501    0  0.63130097018E+02  0.42890644825E+02 -0.40251342237E+03  0.40968533260E+03  0.00000000000E+00 0. -1.
          1    1    1    2  502    0  0.46750057484E+02 -0.20029396917E+02  0.18871469511E+04  0.18878321852E+04  0.00000000000E+00 0. -1.
         22    1    3    3    0    0 -0.12368899906E+03  0.13908783298E+02 -0.14084855573E+02  0.12526294703E+03  0.00000000000E+00 0. -1.
         22    1    3    3    0    0  0.13808844561E+02 -0.36770031206E+02  0.16882147870E+02  0.42751915743E+02  0.00000000000E+00 0. -1.
</event>
<event>
 7    1  0.4915160E-006  0.7235811E+02  0.7818608E-02  0.1491564E+00
          2   -1    0    0  502    0  0.00000000000E+00  0.00000000000E+00  0.27421312396E+03  0.27421312396E+03  0.00000000000E+00 0. -1.
          1   -1    0    0  501    0 -0.00000000000E+00 -0.00000000000E+00 -0.16771225483E+03  0.16771225483E+03  0.00000000000E+00 0. -1.
         25    2    1    2    0    0 -0.24204995537E+02  0.44558573713E+02  0.40637472166E+02  0.14085275598E+03  0.12496698133E+03 0.  0.
          2    1    1    2  501    0  0.39540532800E+02 -0.64039021245E+02 -0.10457389406E+03  0.12884156664E+03  0.00000000000E+00 0. -1.
          1    1    1    2  502    0 -0.15335537263E+02  0.19480447532E+02  0.17043729102E+03  0.17223105617E+03  0.00000000000E+00 0. -1.
         22    1    3    3    0    0 -0.47440901069E+02 -0.29434006646E+02  0.68195051387E+01  0.56245048598E+02  0.00000000000E+00 0. -1.
         22    1    3    3    0    0  0.23235905532E+02  0.73992580359E+02  0.33817967027E+02  0.84607707379E+02  0.00000000000E+00 0. -1.
</event>
<event>
 7    1  0.4915160E-006  0.6036039E+02  0.7818608E-02  0.1427334E+00
          2   -1    0    0  502    0  0.00000000000E+00  0.00000000000E+00  0.24526474879E+04  0.24526474879E+04  0.00000000000E+00 0. -1.
          1   -1    0    0  501    0 -0.00000000000E+00 -0.00000000000E+00 -0.46336548997E+02  0.46336548997E+02  0.00000000000E+00 0. -1.
         25    2    1    2    0    0 -0.42416044782E+02  0.56429775768E+02  0.89810971475E+03  0.90951056129E+03  0.12499984368E+03 0.  0.
          2    1    1    2  501    0  0.47217772400E+02  0.43474239651E+01 -0.25988840535E+02  0.54072524982E+02  0.00000000000E+00 0. -1.
          1    1    1    2  502    0 -0.48017276180E+01 -0.60777199733E+02  0.15341900647E+04  0.15354009506E+04  0.00000000000E+00 0. -1.
         22    1    3    3    0    0 -0.75434630652E+01 -0.30129522710E+02  0.48491861741E+03  0.48591229403E+03  0.00000000000E+00 0.  1.
         22    1    3    3    0    0 -0.34872581717E+02  0.86559298478E+02  0.41319109734E+03  0.42359826726E+03  0.00000000000E+00 0.  1.
</event>
<event>
 7    1  0.4915160E-006  0.1524836E+03  0.7818608E-02  0.1277034E+00
          2   -1    0    0  502    0  0.00000000000E+00  0.00000000000E+00  0.93141863972E+03  0.93141863972E+03  0.00000000000E+00 0. -1.
          1   -1    0    0  501    0 -0.00000000000E+00 -0.00000000000E+00 -0.11947407116E+03  0.11947407116E+03  0.00000000000E+00 0. -1.
         25    2    1    2    0    0  0.15210334663E+03 -0.97299090814E+02  0.54979503476E+02  0.22638480520E+03  0.12499917236E+03 0.  0.
          2    1    1    2  501    0 -0.12449596414E+03  0.35535503380E+02  0.98762086204E+02  0.16283724009E+03  0.00000000000E+00 0. -1.
          1    1    1    2  502    0 -0.27607382490E+02  0.61763587435E+02  0.65820297888E+03  0.66167066559E+03  0.00000000000E+00 0. -1.
         22    1    3    3    0    0  0.10201422464E+03  0.11450860253E+00 -0.37769047759E+01  0.10208418169E+03  0.00000000000E+00 0. -1.
         22    1    3    3    0    0  0.50089121990E+02 -0.97413599417E+02  0.58756408252E+02  0.12430062350E+03  0.00000000000E+00 0. -1.
</event>
<event>
 7    1  0.4915160E-006  0.7933198E+02  0.7818608E-02  0.1350356E+00
          2   -1    0    0  502    0  0.00000000000E+00  0.00000000000E+00  0.28536700834E+04  0.28536700834E+04  0.00000000000E+00 0. -1.
          1   -1    0    0  501    0 -0.00000000000E+00 -0.00000000000E+00 -0.23485665983E+03  0.23485665983E+03  0.00000000000E+00 0. -1.
         25    2    1    2    0    0  0.98617284163E+02 -0.18665149857E+02  0.49161546626E+03  0.51709206563E+03  0.12499872444E+03 0.  0.
          2    1    1    2  501    0 -0.50250465513E+02 -0.44424183765E+02 -0.21636568738E+03  0.22652312920E+03  0.00000000000E+00 0. -1.
          1    1    1    2  502    0 -0.48366818650E+02  0.63089333623E+02  0.23435636446E+04  0.23449115484E+04  0.00000000000E+00 0. -1.
         22    1    3    3    0    0  0.78404369513E+02 -0.35960706694E+02  0.13978093353E+03  0.16425324034E+03  0.00000000000E+00 0. -1.
         22    1    3    3    0    0  0.20212914651E+02  0.17295556837E+02  0.35183453273E+03  0.35283882528E+03  0.00000000000E+00 0. -1.
</event>
<event>
 7    1  0.4915160E-006  0.7951063E+02  0.7818608E-02  0.1458156E+00
          2   -1    0    0  502    0  0.00000000000E+00  0.00000000000E+00  0.15936999202E+04  0.15936999202E+04  0.00000000000E+00 0. -1.
          1   -1    0    0  501    0 -0.00000000000E+00 -0.00000000000E+00 -0.73756544157E+03  0.73756544157E+03  0.00000000000E+00 0. -1.
         25    2    1    2    0    0 -0.22604793628E+02  0.84589222581E+02 -0.40795748010E+02  0.15797112920E+03  0.12499708530E+03 0.  0.
          2    1    1    2  501    0  0.44255835189E+02 -0.65877410002E+02 -0.63558058422E+03  0.64051626922E+03  0.00000000000E+00 0. -1.
          1    1    1    2  502    0 -0.21651041561E+02 -0.18711812579E+02  0.15325108108E+04  0.15327779633E+04  0.00000000000E+00 0. -1.
         22    1    3    3    0    0  0.47172657722E+02  0.17227687956E+02  0.54647108686E+01  0.50516491701E+02  0.00000000000E+00 0. -1.
         22    1    3    3    0    0 -0.69777451350E+02  0.67361534625E+02 -0.46260458879E+02  0.10745463750E+03  0.00000000000E+00 0. -1.
</event>
<event>
 7    1  0.4915160E-006  0.6367430E+02  0.7818608E-02  0.1424673E+00
          2   -1    0    0  502    0  0.00000000000E+00  0.00000000000E+00  0.41412025231E+03  0.41412025231E+03  0.00000000000E+00 0. -1.
          1   -1    0    0  501    0 -0.00000000000E+00 -0.00000000000E+00 -0.39878847123E+03  0.39878847123E+03  0.00000000000E+00 0. -1.
         25    2    1    2    0    0  0.83522130845E+01  0.27375395439E+02 -0.17531889861E+03  0.21720919726E+03  0.12499578963E+03 0.  0.
          2    1    1    2  501    0  0.45133064517E+02  0.81945092459E+01 -0.19725158497E+03  0.20251501492E+03  0.00000000000E+00 0. -1.
          1    1    1    2  502    0 -0.53485277602E+02 -0.35569904685E+02  0.38790226466E+03  0.39318451136E+03  0.00000000000E+00 0. -1.
         22    1    3    3    0    0  0.41922902591E+02  0.32624768648E+02 -0.17536113269E+03  0.18323054371E+03  0.00000000000E+00 0. -1.
         22    1    3    3    0    0 -0.33570689506E+02 -0.52493732089E+01  0.42234080030E-01  0.33978653545E+02  0.00000000000E+00 0. -1.
</event>
<event>
 7    1  0.4915160E-006  0.2268353E+03  0.7818608E-02  0.1236976E+00
          2   -1    0    0  502    0  0.00000000000E+00  0.00000000000E+00  0.12596761478E+04  0.12596761478E+04  0.00000000000E+00 0. -1.
          1   -1    0    0  501    0 -0.00000000000E+00 -0.00000000000E+00 -0.28409099288E+04  0.28409099288E+04  0.00000000000E+00 0. -1.
         25    2    1    2    0    0 -0.13691800788E+03  0.18046609238E+03 -0.41935826547E+03  0.49274777466E+03  0.12499785292E+03 0.  0.
          2    1    1    2  501    0  0.59038612481E+02  0.32830391698E+02 -0.23738323324E+04  0.23747933246E+04  0.00000000000E+00 0. -1.
          1    1    1    2  502    0  0.77879395401E+02 -0.21329648408E+03  0.12119568168E+04  0.12330449774E+04  0.00000000000E+00 0. -1.
         22    1    3    3    0    0 -0.13143262520E+03  0.11235121573E+03 -0.20727095037E+03  0.26992328078E+03  0.00000000000E+00 0. -1.
         22    1    3    3    0    0 -0.54853826804E+01  0.68114876650E+02 -0.21208731510E+03  0.22282449387E+03  0.00000000000E+00 0. -1.
</event>
<event>
 7    1  0.4915160E-006  0.1050535E+03  0.7818608E-02  0.1362989E+00
          2   -1    0    0  502    0  0.00000000000E+00  0.00000000000E+00  0.30572657899E+04  0.30572657899E+04  0.00000000000E+00 0. -1.
          1   -1    0    0  501    0 -0.00000000000E+00 -0.00000000000E+00 -0.14674801752E+03  0.14674801752E+03  0.00000000000E+00 0. -1.
         25    2    1    2    0    0  0.27602476597E+02  0.10297873097E+03  0.55334553791E+03  0.57721972919E+03  0.12499926279E+03 0.  0.
          2    1    1    2  501    0 -0.67431961892E+02 -0.80932248917E+02 -0.11399022074E+03  0.15521233464E+03  0.00000000000E+00 0. -1.
          1    1    1    2  502    0  0.39829485295E+02 -0.22046482053E+02  0.24711624552E+04  0.24715817436E+04  0.00000000000E+00 0. -1.
         22    1    3    3    0    0  0.34304404161E+01  0.84426948496E+02  0.14563608004E+03  0.16837323233E+03  0.00000000000E+00 0.  1.
         22    1    3    3    0    0  0.24172036181E+02  0.18551782474E+02  0.40770945786E+03  0.40884649686E+03  0.00000000000E+00 0.  1.
</event>
<event>
 7    1  0.4915160E-006  0.7078510E+02  0.7818608E-02  0.1495641E+00
          2   -1    0    0  502    0  0.00000000000E+00  0.00000000000E+00  0.59351419041E+03  0.59351419041E+03  0.00000000000E+00 0. -1.
          1   -1    0    0  501    0 -0.00000000000E+00 -0.00000000000E+00 -0.24940020965E+03  0.24940020965E+03  0.00000000000E+00 0. -1.
         25    2    1    2    0    0  0.25053219485E+02  0.74284800911E+02  0.24913566279E+03  0.28955106263E+03  0.12500137577E+03 0.  0.
          2    1    1    2  501    0  0.16674347926E+02 -0.18137253011E+02 -0.22473740501E+03  0.22608382303E+03  0.00000000000E+00 0. -1.
          1    1    1    2  502    0 -0.41727567411E+02 -0.56147547900E+02  0.31971572298E+03  0.32727951439E+03  0.00000000000E+00 0. -1.
         22    1    3    3    0    0 -0.42060161992E+02 -0.39544937779E+01  0.96800582469E+02  0.10561746075E+03  0.00000000000E+00 0. -1.
         22    1    3    3    0    0  0.67113381478E+02  0.78239294689E+02  0.15233508032E+03  0.18393360188E+03  0.00000000000E+00 0. -1.
</event>
<event>
 7    1  0.4915160E-006  0.5918388E+02  0.7818608E-02  0.1414834E+00
          2   -1    0    0  502    0  0.00000000000E+00  0.00000000000E+00  0.74398115543E+03  0.74398115543E+03  0.00000000000E+00 0. -1.
          1   -1    0    0  501    0 -0.00000000000E+00 -0.00000000000E+00 -0.29101987868E+03  0.29101987868E+03  0.00000000000E+00 0. -1.
         25    2    1    2    0    0  0.33374776270E+02 -0.74126239552E+02  0.26384016865E+02  0.15142578579E+03  0.12500030869E+03 0.  0.
          2    1    1    2  501    0 -0.50282887396E+02  0.17471702274E+02 -0.22404000324E+03  0.23027712044E+03  0.00000000000E+00 0. -1.
          1    1    1    2  502    0  0.16908111126E+02  0.56654537279E+02  0.65061726313E+03  0.65329812789E+03  0.00000000000E+00 0. -1.
         22    1    3    3    0    0  0.36611424724E+02 -0.37374830583E+02 -0.46332476187E+02  0.69885425741E+02  0.00000000000E+00 0.  1.
         22    1    3    3    0    0 -0.32366484537E+01 -0.36751408969E+02  0.72716493052E+02  0.81540360044E+02  0.00000000000E+00 0.  1.
</event>
<event>
 7    1  0.4915160E-006  0.5866690E+02  0.7818608E-02  0.1429900E+00
          2   -1    0    0  502    0  0.00000000000E+00  0.00000000000E+00  0.31463243336E+04  0.31463243336E+04  0.00000000000E+00 0. -1.
          1   -1    0    0  501    0 -0.00000000000E+00 -0.00000000000E+00 -0.47931872771E+02  0.47931872771E+02  0.00000000000E+00 0. -1.
         25    2    1    2    0    0 -0.63311768582E+02 -0.54543084767E+02  0.62172197978E+03  0.63965104649E+03  0.12502764896E+03 0.  0.
          2    1    1    2  501    0  0.57848556640E+02  0.70115466383E+01 -0.16823776664E+02  0.60651931155E+02  0.00000000000E+00 0. -1.
          1    1    1    2  502    0  0.54632119417E+01  0.47531538129E+02  0.24934942577E+04  0.24939532287E+04  0.00000000000E+00 0. -1.
         22    1    3    3    0    0 -0.14080469999E+02 -0.74042886272E+02  0.18550174526E+03  0.20022863465E+03  0.00000000000E+00 0.  1.
         22    1    3    3    0    0 -0.49231298583E+02  0.19499801504E+02  0.43622023452E+03  0.43942241184E+03  0.00000000000E+00 0.  1.
</event>
<event>
 7    1  0.4915160E-006  0.2462796E+03  0.7818608E-02  0.1128692E+00
          2   -1    0    0  502    0  0.00000000000E+00  0.00000000000E+00  0.12237321825E+04  0.12237321825E+04  0.00000000000E+00 0. -1.
          1   -1    0    0  501    0 -0.00000000000E+00 -0.00000000000E+00 -0.12874636394E+04  0.12874636394E+04  0.00000000000E+00 0. -1.
         25    2    1    2    0    0 -0.60134136770E+02  0.38822893652E+03 -0.22947314823E+03  0.47182654247E+03  0.12499815545E+03 0.  0.
          2    1    1    2  501    0  0.13195980865E+03 -0.19150313785E+03 -0.91214465779E+03  0.94132604321E+03  0.00000000000E+00 0. -1.
          1    1    1    2  502    0 -0.71825671884E+02 -0.19672579868E+03  0.10778863491E+04  0.10980432363E+04  0.00000000000E+00 0. -1.
         22    1    3    3    0    0  0.48793619603E-01  0.14865628264E+03 -0.15280563567E+03  0.21318596352E+03  0.00000000000E+00 0. -1.
         22    1    3    3    0    0 -0.60182930390E+02  0.23957265388E+03 -0.76667512555E+02  0.25864057895E+03  0.00000000000E+00 0. -1.
</event>
<event>
 7    1  0.4915160E-006  0.6550454E+02  0.7818608E-02  0.1518312E+00
          2   -1    0    0  502    0  0.00000000000E+00  0.00000000000E+00  0.13490771458E+04  0.13490771458E+04  0.00000000000E+00 0. -1.
          1   -1    0    0  501    0 -0.00000000000E+00 -0.00000000000E+00 -0.56508080140E+03  0.56508080140E+03  0.00000000000E+00 0. -1.
         25    2    1    2    0    0  0.44413849542E+02  0.24179138913E+02 -0.88149043781E+02  0.16111465226E+03  0.12502182395E+03 0.  0.
          2    1    1    2  501    0 -0.65072112780E+02 -0.14492854936E+02 -0.43782637464E+03  0.44287284522E+03  0.00000000000E+00 0. -1.
          1    1    1    2  502    0  0.20658263238E+02 -0.96862839766E+01  0.13099717628E+04  0.13101704497E+04  0.00000000000E+00 0. -1.
         22    1    3    3    0    0  0.61807199261E+02 -0.10910614316E+02 -0.10183984864E+03  0.11962661141E+03  0.00000000000E+00 0. -1.
         22    1    3    3    0    0 -0.17393349719E+02  0.35089753229E+02  0.13690804863E+02  0.41488040854E+02  0.00000000000E+00 0. -1.
</event>
<event>
 7    1  0.4915160E-006  0.8528269E+02  0.7818608E-02  0.1366787E+00
          2   -1    0    0  502    0  0.00000000000E+00  0.00000000000E+00  0.17623958946E+04  0.17623958946E+04  0.00000000000E+00 0. -1.
          1   -1    0    0  501    0 -0.00000000000E+00 -0.00000000000E+00 -0.22320498459E+02  0.22320498459E+02  0.00000000000E+00 0. -1.
         25    2    1    2    0    0  0.32234328360E+02  0.37273793024E+02  0.55559773765E+03  0.57161439299E+03  0.12500312245E+03 0.  0.
          2    1    1    2  501    0 -0.53683551208E+01  0.54063149071E+02  0.47560734721E+02  0.72205725613E+02  0.00000000000E+00 0. -1.
          1    1    1    2  502    0 -0.26865973239E+02 -0.91336942095E+02  0.11369169238E+04  0.11408962745E+04  0.00000000000E+00 0. -1.
         22    1    3    3    0    0 -0.48370663716E+02  0.13857215418E+02  0.21963593808E+03  0.22532573937E+03  0.00000000000E+00 0.  1.
         22    1    3    3    0    0  0.80604992076E+02  0.23416577606E+02  0.33596179957E+03  0.34628865362E+03  0.00000000000E+00 0.  1.
</event>
<event>
 7    1  0.4915160E-006  0.7694768E+02  0.7818608E-02  0.1381103E+00
          2   -1    0    0  502    0  0.00000000000E+00  0.00000000000E+00  0.41474600042E+03  0.41474600042E+03  0.00000000000E+00 0. -1.
          1   -1    0    0  501    0 -0.00000000000E+00 -0.00000000000E+00 -0.31908016470E+03  0.31908016470E+03  0.00000000000E+00 0. -1.
         25    2    1    2    0    0 -0.20875604347E+02 -0.24385680394E+02 -0.53405335424E+02  0.13966864891E+03  0.12499899748E+03 0.  0.
          2    1    1    2  501    0  0.53090495188E+02  0.67126964602E+02 -0.21227013431E+03  0.22887385166E+03  0.00000000000E+00 0. -1.
          1    1    1    2  502    0 -0.32214890842E+02 -0.42741284208E+02  0.36134130544E+03  0.36528366455E+03  0.00000000000E+00 0. -1.
         22    1    3    3    0    0  0.47510143822E+02  0.12543234258E+02 -0.83765430696E+01  0.49846895244E+02  0.00000000000E+00 0.  1.
         22    1    3    3    0    0 -0.68385748169E+02 -0.36928914653E+02 -0.45028792355E+02  0.89821753662E+02  0.00000000000E+00 0.  1.
</event>
<event>
 7    1  0.4915160E-006  0.8914136E+02  0.7818608E-02  0.1354220E+00
          2   -1    0    0  502    0  0.00000000000E+00  0.00000000000E+00  0.21119245374E+04  0.21119245374E+04  0.00000000000E+00 0. -1.
          1   -1    0    0  501    0 -0.00000000000E+00 -0.00000000000E+00 -0.64289626696E+02  0.64289626696E+02  0.00000000000E+00 0. -1.
         25    2    1    2    0    0  0.34162333877E+02  0.12293534046E+03  0.26039401223E+03  0.31576906164E+03  0.12499958277E+03 0.  0.
          2    1    1    2  501    0 -0.49863068619E+02 -0.67348290650E+02  0.12453970994E+02  0.84718470590E+02  0.00000000000E+00 0. -1.
          1    1    1    2  502    0  0.15700734742E+02 -0.55587049806E+02  0.17747869274E+04  0.17757266318E+04  0.00000000000E+00 0. -1.
         22    1    3    3    0    0  0.73147447803E+02  0.93081056088E+02  0.22812188408E+03  0.25701016735E+03  0.00000000000E+00 0. -1.
         22    1    3    3    0    0 -0.38985113926E+02  0.29854284368E+02  0.32272128151E+02  0.58758894291E+02  0.00000000000E+00 0. -1.
</event>
<event>
 7    1  0.4915160E-006  0.8285494E+02  0.7818608E-02  0.1383247E+00
          2   -1    0    0  502    0  0.00000000000E+00  0.00000000000E+00  0.74090943429E+03  0.74090943429E+03  0.00000000000E+00 0. -1.
          1   -1    0    0  501    0 -0.00000000000E+00 -0.00000000000E+00 -0.55243463913E+02  0.55243463913E+02  0.00000000000E+00 0. -1.
         25    2    1    2    0    0 -0.30592681689E+02 -0.72278325559E+02  0.40059484484E+03  0.42692079198E+03  0.12500025757E+03 0.  0.
          2    1    1    2  501    0  0.71446331605E+02  0.45500626182E+02  0.49125908220E+01  0.84847031953E+02  0.00000000000E+00 0. -1.
          1    1    1    2  502    0 -0.40853649916E+02  0.26777699378E+02  0.28015853471E+03  0.28438507427E+03  0.00000000000E+00 0. -1.
         22    1    3    3    0    0 -0.73233104917E+02 -0.12690543386E+02  0.20117405831E+03  0.21446477399E+03  0.00000000000E+00 0. -1.
         22    1    3    3    0    0  0.42640423228E+02 -0.59587782173E+02  0.19942078653E+03  0.21245601799E+03  0.00000000000E+00 0. -1.
</event>
<event>
 7    1  0.4915160E-006  0.5524613E+02  0.7818608E-02  0.1420421E+00
          2   -1    0    0  502    0  0.00000000000E+00  0.00000000000E+00  0.21543173143E+04  0.21543173143E+04  0.00000000000E+00 0. -1.
          1   -1    0    0  501    0 -0.00000000000E+00 -0.00000000000E+00 -0.16390166863E+03  0.16390166863E+03  0.00000000000E+00 0. -1.
         25    2    1    2    0    0 -0.19254623768E+02 -0.47405016320E+02  0.10597735039E+03  0.17168018146E+03  0.12499963920E+03 0.  0.
          2    1    1    2  501    0 -0.35988616683E+02  0.41086605282E+02 -0.12495779831E+03  0.13637353491E+03  0.00000000000E+00 0. -1.
          1    1    1    2  502    0  0.55243240451E+02  0.63184110380E+01  0.20093960936E+04  0.20101652665E+04  0.00000000000E+00 0. -1.
         22    1    3    3    0    0  0.18481094365E+02  0.37690050862E+02  0.32489657353E+02  0.53081716417E+02  0.00000000000E+00 0. -1.
         22    1    3    3    0    0 -0.37735718134E+02 -0.85095067181E+02  0.73487693037E+02  0.11859846504E+03  0.00000000000E+00 0. -1.
</event>
<event>
 7    1  0.4915160E-006  0.9504139E+02  0.7818608E-02  0.1463986E+00
          2   -1    0    0  502    0  0.00000000000E+00  0.00000000000E+00  0.12900478646E+03  0.12900478646E+03  0.00000000000E+00 0. -1.
          1   -1    0    0  501    0 -0.00000000000E+00 -0.00000000000E+00 -0.14276032253E+04  0.14276032253E+04  0.00000000000E+00 0. -1.
         25    2    1    2    0    0 -0.42822892048E+02  0.66603018008E+02 -0.10367218783E+03  0.18067205341E+03  0.12499882505E+03 0.  0.
          2    1    1    2  501    0  0.65529067137E+02 -0.69932349351E+02 -0.12821586587E+04  0.12857353609E+04  0.00000000000E+00 0. -1.
          1    1    1    2  502    0 -0.22706175089E+02  0.33293313426E+01  0.87232407684E+02  0.90200597474E+02  0.00000000000E+00 0. -1.
         22    1    3    3    0    0  0.21496012384E+01 -0.35466292755E+02 -0.33900554399E+02  0.49109330028E+02  0.00000000000E+00 0. -1.
         22    1    3    3    0    0 -0.44972493286E+02  0.10206931076E+03 -0.69771633428E+02  0.13156272338E+03  0.00000000000E+00 0. -1.
</event>
<event>
 7    1  0.4915160E-006  0.3899377E+02  0.7818608E-02  0.1519666E+00
          2   -1    0    0  502    0  0.00000000000E+00  0.00000000000E+00  0.19543697440E+04  0.19543697440E+04  0.00000000000E+00 0. -1.
          1   -1    0    0  501    0 -0.00000000000E+00 -0.00000000000E+00 -0.23656612367E+03  0.23656612367E+03  0.00000000000E+00 0. -1.
         25    2    1    2    0    0  0.11537114997E+02  0.79345053340E+01  0.19563717973E+03  0.23258321427E+03  0.12499993628E+03 0.  0.
          2    1    1    2  501    0  0.12707603509E+02 -0.37172811389E+02 -0.21611487430E+03  0.21965641349E+03  0.00000000000E+00 0. -1.
          1    1    1    2  502    0 -0.24244718506E+02  0.29238306055E+02  0.17382813149E+04  0.17386962399E+04  0.00000000000E+00 0. -1.
         22    1    3    3    0    0  0.67600137914E+02  0.30814795340E+01  0.86822693632E+02  0.11007930910E+03  0.00000000000E+00 0.  1.
         22    1    3    3    0    0 -0.56063022917E+02  0.48530258001E+01  0.10881448609E+03  0.12250390517E+03  0.00000000000E+00 0.  1.
</event>
<event>
 7    1  0.4915160E-006  0.8093853E+02  0.7818608E-02  0.1387561E+00
          2   -1    0    0  502    0  0.00000000000E+00  0.00000000000E+00  0.10804976994E+04  0.10804976994E+04  0.00000000000E+00 0. -1.
          1   -1    0    0  501    0 -0.00000000000E+00 -0.00000000000E+00 -0.16447313492E+03  0.16447313492E+03  0.00000000000E+00 0. -1.
         25    2    1    2    0    0  0.37033140297E+02  0.17331913629E+02  0.18802036421E+03  0.22944738989E+03  0.12499039427E+03 0.  0.
          2    1    1    2  501    0  0.24439417861E+02  0.41647454073E+02 -0.13755361935E+03  0.14578337962E+03  0.00000000000E+00 0. -1.
          1    1    1    2  502    0 -0.61472558158E+02 -0.58979367702E+02  0.86555781962E+03  0.86974006480E+03  0.00000000000E+00 0. -1.
         22    1    3    3    0    0  0.24240831594E+02 -0.94561504850E+01  0.19678265898E+03  0.19849546991E+03  0.00000000000E+00 0.  1.
         22    1    3    3    0    0  0.12792308703E+02  0.26788064114E+02 -0.87622947707E+01  0.30951919982E+02  0.00000000000E+00 0.  1.
</event>
<event>
 7    1  0.4915160E-006  0.8122467E+02  0.7818608E-02  0.1408529E+00
          2   -1    0    0  502    0  0.00000000000E+00  0.00000000000E+00  0.14779759993E+04  0.14779759993E+04  0.00000000000E+00 0. -1.
          1   -1    0    0  501    0 -0.00000000000E+00 -0.00000000000E+00 -0.21812868905E+02  0.21812868905E+02  0.00000000000E+00 0. -1.
         25    2    1    2    0    0  0.85514506219E+02 -0.39606874522E+02  0.11477220049E+04  0.11583489346E+04  0.12500007316E+03 0.  0.
          2    1    1    2  501    0 -0.51579114471E+02  0.62145525671E+02  0.97516860644E+02  0.12661757193E+03  0.00000000000E+00 0. -1.
          1    1    1    2  502    0 -0.33935391748E+02 -0.22538651148E+02  0.21092426485E+03  0.21482236175E+03  0.00000000000E+00 0. -1.
         22    1    3    3    0    0  0.92409757073E+02 -0.57845863575E+02  0.11145587458E+04  0.11198780760E+04  0.00000000000E+00 0. -1.
         22    1    3    3    0    0 -0.68952508541E+01  0.18238989053E+02  0.33163259135E+02  0.38470858613E+02  0.00000000000E+00 0. -1.
</event>
<event>
 7    1  0.4915160E-006  0.8374620E+02  0.7818608E-02  0.1330103E+00
          2   -1    0    0  502    0  0.00000000000E+00  0.00000000000E+00  0.77465356160E+03  0.77465356160E+03  0.00000000000E+00 0. -1.
          1   -1    0    0  501    0 -0.00000000000E+00 -0.00000000000E+00 -0.17071873968E+04  0.17071873968E+04  0.00000000000E+00 0. -1.
         25    2    1    2    0    0 -0.84887000262E+02  0.12299812480E+03  0.31143900723E+03  0.36735917560E+03  0.12499666858E+03 0.  0.
          2    1    1    2  501    0  0.22169507208E+02 -0.80575770840E+02 -0.16748846269E+04  0.16769682332E+04  0.00000000000E+00 0. -1.
          1    1    1    2  502    0  0.62717493054E+02 -0.42422353963E+02  0.43091178447E+03  0.43751354955E+03  0.00000000000E+00 0. -1.
         22    1    3    3    0    0 -0.41888078058E+01  0.40547705491E+02  0.64398175883E+01  0.41269041447E+02  0.00000000000E+00 0. -1.
         22    1    3    3    0    0 -0.80698192457E+02  0.82450419312E+02  0.30499918964E+03  0.32609013416E+03  0.00000000000E+00 0. -1.
</event>
<event>
 7    1  0.4915160E-006  0.1366958E+03  0.7818608E-02  0.1295780E+00
          2   -1    0    0  502    0  0.00000000000E+00  0.00000000000E+00  0.40680221371E+03  0.40680221371E+03  0.00000000000E+00 0. -1.
          1   -1    0    0  501    0 -0.00000000000E+00 -0.00000000000E+00 -0.44117152371E+03  0.44117152371E+03  0.00000000000E+00 0. -1.
         25    2    1    2    0    0 -0.15725491898E+03 -0.32651328888E+01 -0.60477637446E+02  0.20981127881E+03  0.12499382964E+03 0.  0.
          2    1    1    2  501    0  0.31633760340E+02  0.54772814201E+02 -0.28858211288E+03  0.29543255042E+03  0.00000000000E+00 0. -1.
          1    1    1    2  502    0  0.12562115864E+03 -0.51507681313E+02  0.31469044034E+03  0.34272990819E+03  0.00000000000E+00 0. -1.
         22    1    3    3    0    0 -0.40901924692E+02 -0.43739649307E+02  0.19448323605E+02  0.62963176985E+02  0.00000000000E+00 0.  1.
         22    1    3    3    0    0 -0.11635299429E+03  0.40474516418E+02 -0.79925961051E+02  0.14684810182E+03  0.00000000000E+00 0.  1.
</event>
<event>
 7    1  0.4915160E-006  0.5185727E+02  0.7818608E-02  0.1468583E+00
          2   -1    0    0  502    0  0.00000000000E+00  0.00000000000E+00  0.18474783155E+03  0.18474783155E+03  0.00000000000E+00 0. -1.
          1   -1    0    0  501    0 -0.00000000000E+00 -0.00000000000E+00 -0.15192483031E+04  0.15192483031E+04  0.00000000000E+00 0. -1.
         25    2    1    2    0    0 -0.76945638076E+02 -0.13328293416E+01 -0.90563556904E+03  0.91745513577E+03  0.12500293828E+03 0.  0.
          2    1    1    2  501    0  0.42826686166E+02  0.23505223900E+02 -0.60438997991E+03  0.60636116994E+03  0.00000000000E+00 0. -1.
          1    1    1    2  502    0  0.34118951909E+02 -0.22172394558E+02  0.17552507740E+03  0.18017982894E+03  0.00000000000E+00 0. -1.
         22    1    3    3    0    0 -0.85538360197E+02 -0.42525136688E+02 -0.45858954442E+03  0.46843309935E+03  0.00000000000E+00 0.  1.
         22    1    3    3    0    0  0.85927221214E+01  0.41192307346E+02 -0.44704602463E+03  0.44902203642E+03  0.00000000000E+00 0.  1.
</event>
<event>
 7    1  0.4915160E-006  0.4734514E+02  0.7818608E-02  0.1477027E+00
          2   -1    0    0  502    0  0.00000000000E+00  0.00000000000E+00  0.15940232792E+04  0.15940232792E+04  0.00000000000E+00 0. -1.
          1   -1    0    0  501    0 -0.00000000000E+00 -0.00000000000E+00 -0.19223887457E+04  0.19223887457E+04  0.00000000000E+00 0. -1.
         25    2    1    2    0    0 -0.86518555132E+02  0.40056869920E+01  0.15899340049E+02  0.15290122006E+03  0.12499795266E+03 0.  0.
          2    1    1    2  501    0  0.46449494004E+02  0.84569637400E+01 -0.18532955017E+04  0.18538967858E+04  0.00000000000E+00 0. -1.
          1    1    1    2  502    0  0.40069061128E+02 -0.12462650732E+02  0.15090306952E+04  0.15096140190E+04  0.00000000000E+00 0. -1.
         22    1    3    3    0    0 -0.61562601476E+02  0.11158109815E+02 -0.51270209656E+02  0.80889379484E+02  0.00000000000E+00 0. -1.
         22    1    3    3    0    0 -0.24955953655E+02 -0.71524228234E+01  0.67169549704E+02  0.72011840572E+02  0.00000000000E+00 0. -1.
</event>
<event>
 7    1  0.4915160E-006  0.4946417E+02  0.7818608E-02  0.1526969E+00
          2   -1    0    0  502    0  0.00000000000E+00  0.00000000000E+00  0.24795223323E+03  0.24795223323E+03  0.00000000000E+00 0. -1.
          1   -1    0    0  501    0 -0.00000000000E+00 -0.00000000000E+00 -0.66232916571E+03  0.66232916571E+03  0.00000000000E+00 0. -1.
         25    2    1    2    0    0  0.13358964901E+02 -0.64985027168E+02 -0.24884777435E+03  0.28627144449E+03  0.12499843772E+03 0.  0.
          2    1    1    2  501    0 -0.23177087656E+02  0.16623114591E+02 -0.39158905522E+03  0.39262640449E+03  0.00000000000E+00 0. -1.
          1    1    1    2  502    0  0.98181227556E+01  0.48361912577E+02  0.22605989709E+03  0.23138354996E+03  0.00000000000E+00 0. -1.
         22    1    3    3    0    0  0.57493821349E+02 -0.17673376497E+02 -0.18824339706E+03  0.19761949364E+03  0.00000000000E+00 0. -1.
         22    1    3    3    0    0 -0.44134856448E+02 -0.47311650671E+02 -0.60604377288E+02  0.88651950849E+02  0.00000000000E+00 0. -1.
</event>
<event>
 7    1  0.4915160E-006  0.6744464E+02  0.7818608E-02  0.1383151E+00
          2   -1    0    0  502    0  0.00000000000E+00  0.00000000000E+00  0.96857455082E+02  0.96857455082E+02  0.00000000000E+00 0. -1.
          1   -1    0    0  501    0 -0.00000000000E+00 -0.00000000000E+00 -0.12090617627E+04  0.12090617627E+04  0.00000000000E+00 0. -1.
         25    2    1    2    0    0 -0.21669992209E+01  0.14136132579E+02 -0.21897787790E+03  0.25254849385E+03  0.12499961842E+03 0.  0.
          2    1    1    2  501    0  0.45946539259E+02 -0.55245043245E+02 -0.96050422268E+03  0.96318817531E+03  0.00000000000E+00 0. -1.
          1    1    1    2  502    0 -0.43779540038E+02  0.41108910666E+02  0.67277792925E+02  0.90182548661E+02  0.00000000000E+00 0. -1.
         22    1    3    3    0    0 -0.11135821794E+02  0.51552885159E+01  0.14346753698E+02  0.18878900084E+02  0.00000000000E+00 0.  1.
         22    1    3    3    0    0  0.89688225728E+01  0.89808440630E+01 -0.23332463160E+03  0.23366959377E+03  0.00000000000E+00 0.  1.
</event>
<event>
 7    1  0.4915160E-006  0.2022087E+03  0.7818608E-02  0.1218109E+00
          2   -1    0    0  502    0  0.00000000000E+00  0.00000000000E+00  0.22346494604E+03  0.22346494604E+03  0.00000000000E+00 0. -1.
          1   -1    0    0  501    0 -0.00000000000E+00 -0.00000000000E+00 -0.15900722929E+04  0.15900722929E+04  0.00000000000E+00 0. -1.
         25    2    1    2    0    0 -0.22408621312E+03 -0.10339440309E+03  0.10175169810E+01  0.27663974169E+03  0.12499391121E+03 0.  0.
          2    1    1    2  501    0  0.50483984963E+02  0.77092665840E+02 -0.13579231028E+04  0.13610463125E+04  0.00000000000E+00 0. -1.
          1    1    1    2  502    0  0.17360222816E+03  0.26301737254E+02 -0.97017611021E+01  0.17585118473E+03  0.00000000000E+00 0. -1.
         22    1    3    3    0    0 -0.22141708160E+03 -0.12496703685E+03  0.60789020765E+01  0.25432113041E+03  0.00000000000E+00 0.  1.
         22    1    3    3    0    0 -0.26691315221E+01  0.21572633759E+02 -0.50613850955E+01  0.22318611280E+02  0.00000000000E+00 0.  1.
</event>
<event>
 7    1  0.4915160E-006  0.1436736E+03  0.7818608E-02  0.1273126E+00
          2   -1    0    0  502    0  0.00000000000E+00  0.00000000000E+00  0.85619042480E+03  0.85619042480E+03  0.00000000000E+00 0. -1.
          1   -1    0    0  501    0 -0.00000000000E+00 -0.00000000000E+00 -0.49972146930E+03  0.49972146930E+03  0.00000000000E+00 0. -1.
         25    2    1    2    0    0  0.76320064613E+02  0.80748053410E+01  0.22954615924E+03  0.27240918600E+03  0.12500148261E+03 0.  0.
          2    1    1    2  501    0 -0.14544402254E+03  0.19828201981E+02 -0.46463292983E+03  0.48726879725E+03  0.00000000000E+00 0. -1.
          1    1    1    2  502    0  0.69123957928E+02 -0.27903007322E+02  0.59155572609E+03  0.59623391085E+03  0.00000000000E+00 0. -1.
         22    1    3    3    0    0  0.11059434997E+03 -0.29357069767E+01  0.17014330237E+03  0.20294943203E+03  0.00000000000E+00 0.  1.
         22    1    3    3    0    0 -0.34274285353E+02  0.11010512318E+02  0.59402856864E+02  0.69459753970E+02  0.00000000000E+00 0.  1.
</event>
<event>
 7    1  0.4915160E-006  0.9026090E+02  0.7818608E-02  0.1368277E+00
          2   -1    0    0  502    0  0.00000000000E+00  0.00000000000E+00  0.15793701805E+04  0.15793701805E+04  0.00000000000E+00 0. -1.
          1   -1    0    0  501    0 -0.00000000000E+00 -0.00000000000E+00 -0.26496839783E+03  0.26496839783E+03  0.00000000000E+00 0. -1.
         25    2    1    2    0    0 -0.13310822768E+02 -0.10604106841E+03 -0.64606480730E+00  0.16446596502E+03  0.12500700004E+03 0.  0.
          2    1    1    2  501    0 -0.38910778045E+02  0.32504448114E+02 -0.17750153411E+03  0.18460060240E+03  0.00000000000E+00 0. -1.
          1    1    1    2  502    0  0.52221600813E+02  0.73536620298E+02  0.14925493816E+04  0.14952720109E+04  0.00000000000E+00 0. -1.
         22    1    3    3    0    0 -0.25557754801E+02  0.22300372620E+02 -0.95398181398E+01  0.35235118555E+02  0.00000000000E+00 0. -1.
         22    1    3    3    0    0  0.12246932033E+02 -0.12834144103E+03  0.88937533325E+01  0.12923084647E+03  0.00000000000E+00 0. -1.
</event>
<event>
 7    1  0.4915160E-006  0.3145310E+02  0.7818608E-02  0.1613860E+00
          2   -1    0    0  502    0  0.00000000000E+00  0.00000000000E+00  0.10962679199E+04  0.10962679199E+04  0.00000000000E+00 0. -1.
          1   -1    0    0  501    0 -0.00000000000E+00 -0.00000000000E+00 -0.62140471907E+03  0.62140471907E+03  0.00000000000E+00 0. -1.
         25    2    1    2    0    0 -0.52623109467E+02 -0.18518894290E+02  0.56802668333E+03  0.58428709468E+03  0.12499981976E+03 0.  0.
          2    1    1    2  501    0  0.31220758664E+02  0.36810888829E+01 -0.61254517521E+03  0.61335134944E+03  0.00000000000E+00 0. -1.
          1    1    1    2  502    0  0.21402350802E+02  0.14837805407E+02  0.51938169268E+03  0.52003419482E+03  0.00000000000E+00 0. -1.
         22    1    3    3    0    0  0.22831975930E+02  0.19496492031E+02  0.42637258753E+02  0.52147369640E+02  0.00000000000E+00 0.  1.
         22    1    3    3    0    0 -0.75455085396E+02 -0.38015386321E+02  0.52538942458E+03  0.53213972504E+03  0.00000000000E+00 0.  1.
</event>
<event>
 7    1  0.4915160E-006  0.1325211E+03  0.7818608E-02  0.1391249E+00
          2   -1    0    0  502    0  0.00000000000E+00  0.00000000000E+00  0.32812259513E+03  0.32812259513E+03  0.00000000000E+00 0. -1.
          1   -1    0    0  501    0 -0.00000000000E+00 -0.00000000000E+00 -0.83914624986E+03  0.83914624986E+03  0.00000000000E+00 0. -1.
         25    2    1    2    0    0 -0.34146723359E+02  0.15560063966E+03 -0.64696023459E+03  0.67790835510E+03  0.12499853995E+03 0.  0.
          2    1    1    2  501    0 -0.16387200341E+01 -0.28584000060E+02 -0.16147186790E+03  0.16399053200E+03  0.00000000000E+00 0. -1.
          1    1    1    2  502    0  0.35785443393E+02 -0.12701663960E+03  0.29740844776E+03  0.32536995789E+03  0.00000000000E+00 0. -1.
         22    1    3    3    0    0  0.22911825335E+02  0.42747494385E+02 -0.37336409786E+03  0.37650106187E+03  0.00000000000E+00 0. -1.
         22    1    3    3    0    0 -0.57058548694E+02  0.11285314527E+03 -0.27359613673E+03  0.30140729323E+03  0.00000000000E+00 0. -1.
</event>
<event>
 7    1  0.4915160E-006  0.7875541E+02  0.7818608E-02  0.1349848E+00
          2   -1    0    0  502    0  0.00000000000E+00  0.00000000000E+00  0.34333397220E+04  0.34333397220E+04  0.00000000000E+00 0. -1.
          1   -1    0    0  501    0 -0.00000000000E+00 -0.00000000000E+00 -0.14640823287E+04  0.14640823287E+04  0.00000000000E+00 0. -1.
         25    2    1    2    0    0  0.81565198896E+02  0.34243406393E+02  0.20061562111E+03  0.25238323498E+03  0.12500070926E+03 0.  0.
          2    1    1    2  501    0 -0.26708248836E+02 -0.74183609834E+02 -0.14367585592E+04  0.14389203230E+04  0.00000000000E+00 0. -1.
          1    1    1    2  502    0 -0.54856950060E+02  0.39940203442E+02  0.32054003314E+04  0.32061184927E+04  0.00000000000E+00 0. -1.
         22    1    3    3    0    0  0.11196915426E+03  0.30156319660E+02  0.12358661906E+03  0.16947019659E+03  0.00000000000E+00 0. -1.
         22    1    3    3    0    0 -0.30403955359E+02  0.40870867325E+01  0.77029002049E+02  0.82913038396E+02  0.00000000000E+00 0. -1.
</event>
<event>
 7    1  0.4915160E-006  0.1071724E+04  0.7818608E-02  0.9869264E-01
          2   -1    0    0  502    0  0.00000000000E+00  0.00000000000E+00  0.29703295383E+04  0.29703295383E+04  0.00000000000E+00 0. -1.
          1   -1    0    0  501    0 -0.00000000000E+00 -0.00000000000E+00 -0.26326481406E+04  0.26326481406E+04  0.00000000000E+00 0. -1.
         25    2    1    2    0    0  0.81339932118E+03 -0.11120785420E+04  0.44524827307E+03  0.14533437850E+04  0.12499997330E+03 0.  0.
          2    1    1    2  501    0 -0.54971042370E+03  0.87280359317E+03 -0.19859243515E+04  0.22378255500E+04  0.00000000000E+00 0. -1.
          1    1    1    2  502    0 -0.26368889748E+03  0.23927494882E+03  0.18783574761E+04  0.19118083439E+04  0.00000000000E+00 0. -1.
         22    1    3    3    0    0  0.40083117240E+03 -0.63464612635E+03  0.20454141391E+03  0.77799648101E+03  0.00000000000E+00 0.  1.
         22    1    3    3    0    0  0.41256814877E+03 -0.47743241564E+03  0.24070685916E+03  0.67534730394E+03  0.00000000000E+00 0.  1.
</event>
<event>
 7    1  0.5779586E-006  0.9692153E+02  0.7818608E-02  0.1432152E+00
          2   -1    0    0  502    0  0.00000000000E+00  0.00000000000E+00  0.16490259039E+04  0.16490259039E+04  0.00000000000E+00 0. -1.
          1   -1    0    0  501    0 -0.00000000000E+00 -0.00000000000E+00 -0.79677701380E+03  0.79677701380E+03  0.00000000000E+00 0. -1.
         25    2    1    2    0    0 -0.77007853972E+02 -0.92843116676E+01 -0.92072663865E+02  0.17354999626E+03  0.12500327097E+03 0.  0.
          2    1    1    2  501    0 -0.13974962619E+02 -0.24805172672E+02 -0.66219212407E+03  0.66280389660E+03  0.00000000000E+00 0. -1.
          1    1    1    2  502    0  0.90982816591E+02  0.34089484339E+02  0.16065136781E+04  0.16094490249E+04  0.00000000000E+00 0. -1.
         22    1    3    3    0    0 -0.14962040296E+02  0.17860044053E+02 -0.10242330933E+03  0.10503988822E+03  0.00000000000E+00 0. -1.
         22    1    3    3    0    0 -0.62045813676E+02 -0.27144355721E+02  0.10350645464E+02  0.68510108041E+02  0.00000000000E+00 0. -1.
</event>
<event>
 7    1  0.4915160E-006  0.1237428E+03  0.7818608E-02  0.1399454E+00
          2   -1    0    0  502    0  0.00000000000E+00  0.00000000000E+00  0.31495411995E+03  0.31495411995E+03  0.00000000000E+00 0. -1.
          1   -1    0    0  501    0 -0.00000000000E+00 -0.00000000000E+00 -0.10547687873E+04  0.10547687873E+04  0.00000000000E+00 0. -1.
         25    2    1    2    0    0  0.79439217642E+01  0.15150494471E+03  0.99616386229E+02  0.22037602467E+03  0.12500125471E+03 0.  0.
          2    1    1    2  501    0 -0.44673621397E+01 -0.12299549106E+03 -0.98921102138E+03  0.99683814783E+03  0.00000000000E+00 0. -1.
          1    1    1    2  502    0 -0.34765596245E+01 -0.28509453645E+02  0.14977996781E+03  0.15250873474E+03  0.00000000000E+00 0. -1.
         22    1    3    3    0    0 -0.17778873700E+02  0.16009770243E+03  0.10559138941E+03  0.19260556636E+03  0.00000000000E+00 0. -1.
         22    1    3    3    0    0  0.25722795464E+02 -0.85927577257E+01 -0.59750031786E+01  0.27770458311E+02  0.00000000000E+00 0. -1.
</event>
<event>
 7    1  0.4915160E-006  0.9317827E+02  0.7818608E-02  0.1392666E+00
          2   -1    0    0  502    0  0.00000000000E+00  0.00000000000E+00  0.65820406474E+03  0.65820406474E+03  0.00000000000E+00 0. -1.
          1   -1    0    0  501    0 -0.00000000000E+00 -0.00000000000E+00 -0.23220457959E+04  0.23220457959E+04  0.00000000000E+00 0. -1.
         25    2    1    2    0    0  0.34761683867E+02  0.11508911182E+03 -0.15996173264E+04  0.16089912867E+04  0.12499396612E+03 0.  0.
          2    1    1    2  501    0 -0.26993064377E+02 -0.75585528916E+02 -0.71487356881E+03  0.71936500964E+03  0.00000000000E+00 0. -1.
          1    1    1    2  502    0 -0.77686194906E+01 -0.39503582899E+02  0.65064916402E+03  0.65189356428E+03  0.00000000000E+00 0. -1.
         22    1    3    3    0    0  0.53417887748E+02  0.10157595591E+03 -0.15504858638E+04  0.15547274872E+04  0.00000000000E+00 0.  1.
         22    1    3    3    0    0 -0.18656203880E+02  0.13513155900E+02 -0.49131462608E+02  0.54263799569E+02  0.00000000000E+00 0.  1.
</event>
<event>
 7    1  0.4915160E-006  0.7711441E+02  0.7818608E-02  0.1358512E+00
          2   -1    0    0  502    0  0.00000000000E+00  0.00000000000E+00  0.14167572052E+03  0.14167572052E+03  0.00000000000E+00 0. -1.
          1   -1    0    0  501    0 -0.00000000000E+00 -0.00000000000E+00 -0.14044368101E+04  0.14044368101E+04  0.00000000000E+00 0. -1.
         25    2    1    2    0    0 -0.24437508595E+02  0.28788768562E+02 -0.36404660568E+03  0.38675760139E+03  0.12500210439E+03 0.  0.
          2    1    1    2  501    0  0.43102739261E+02  0.47838765521E+02 -0.10159889094E+04  0.10180274347E+04  0.00000000000E+00 0. -1.
          1    1    1    2  502    0 -0.18665230666E+02 -0.76627534083E+02  0.11727442558E+03  0.14132749453E+03  0.00000000000E+00 0. -1.
         22    1    3    3    0    0  0.23880102744E+02 -0.35606325492E+02 -0.71809963059E+02  0.83634565323E+02  0.00000000000E+00 0. -1.
         22    1    3    3    0    0 -0.48317611339E+02  0.64395094054E+02 -0.29223664262E+03  0.30312303607E+03  0.00000000000E+00 0. -1.
</event>
<event>
 7    1  0.4915160E-006  0.9956604E+02  0.7818608E-02  0.1321190E+00
          2   -1    0    0  502    0  0.00000000000E+00  0.00000000000E+00  0.94335394568E+03  0.94335394568E+03  0.00000000000E+00 0. -1.
          1   -1    0    0  501    0 -0.00000000000E+00 -0.00000000000E+00 -0.18685842806E+03  0.18685842806E+03  0.00000000000E+00 0. -1.
         25    2    1    2    0    0 -0.54925675832E+02  0.79364683186E+01  0.29278246511E+03  0.32314319527E+03  0.12498054002E+03 0.  0.
          2    1    1    2  501    0  0.87828618049E+02  0.52619338982E+02 -0.15432553404E+03  0.18519997689E+03  0.00000000000E+00 0. -1.
          1    1    1    2  502    0 -0.32902942216E+02 -0.60555807301E+02  0.61803858655E+03  0.62186920158E+03  0.00000000000E+00 0. -1.
         22    1    3    3    0    0 -0.53809665589E+02 -0.38256283871E+02  0.72461127469E+02  0.98028762924E+02  0.00000000000E+00 0.  1.
         22    1    3    3    0    0 -0.11160102432E+01  0.46192752190E+02  0.22032133764E+03  0.22511443235E+03  0.00000000000E+00 0.  1.
</event>
<event>
 7    1  0.4915160E-006  0.6717067E+02  0.7818608E-02  0.1433087E+00
          2   -1    0    0  502    0  0.00000000000E+00  0.00000000000E+00  0.26463107001E+04  0.26463107001E+04  0.00000000000E+00 0. -1.
          1   -1    0    0  501    0 -0.00000000000E+00 -0.00000000000E+00 -0.93329722249E+03  0.93329722249E+03  0.00000000000E+00 0. -1.
         25    2    1    2    0    0 -0.22122801947E+02  0.10343359455E+03  0.53998355801E+03  0.56426500078E+03  0.12499928535E+03 0.  0.
          2    1    1    2  501    0  0.32211265154E+01 -0.40664580456E+02 -0.92019154263E+03  0.92109524963E+03  0.00000000000E+00 0. -1.
          1    1    1    2  502    0  0.18901675432E+02 -0.62769014098E+02  0.20932214622E+04  0.20942476721E+04  0.00000000000E+00 0. -1.
         22    1    3    3    0    0  0.52116387508E+02  0.49622489938E+02  0.22799627765E+03  0.23908327415E+03  0.00000000000E+00 0.  1.
         22    1    3    3    0    0 -0.74239189455E+02  0.53811104615E+02  0.31198728036E+03  0.32518172663E+03  0.00000000000E+00 0.  1.
</event>
<event>
 7    1  0.4915160E-006  0.9757984E+02  0.7818608E-02  0.1413574E+00
          2   -1    0    0  502    0  0.00000000000E+00  0.00000000000E+00  0.91363727067E+03  0.91363727067E+03  0.00000000000E+00 0. -1.
          1   -1    0    0  501    0 -0.00000000000E+00 -0.00000000000E+00 -0.38899148621E+03  0.38899148621E+03  0.00000000000E+00 0. -1.
         25    2    1    2    0    0 -0.36883202427E+02  0.96968531260E+02  0.94939315598E+02  0.18815284876E+03  0.12499901670E+03 0.  0.
          2    1    1    2  501    0  0.42833186273E+01 -0.97428274769E+02 -0.33508596532E+03  0.34898885325E+03  0.00000000000E+00 0. -1.
          1    1    1    2  502    0  0.32599883800E+02  0.45974350910E+00  0.76479243418E+03  0.76548705487E+03  0.00000000000E+00 0. -1.
         22    1    3    3    0    0 -0.10270166403E+02  0.12391589640E+00 -0.27754514197E+02  0.29593998233E+02  0.00000000000E+00 0.  1.
         22    1    3    3    0    0 -0.26613036024E+02  0.96844615364E+02  0.12269382980E+03  0.15855885053E+03  0.00000000000E+00 0.  1.
</event>
<event>
 7    1  0.4915160E-006  0.6895703E+02  0.7818608E-02  0.1493849E+00
          2   -1    0    0  502    0  0.00000000000E+00  0.00000000000E+00  0.24994354938E+03  0.24994354938E+03  0.00000000000E+00 0. -1.
          1   -1    0    0  501    0 -0.00000000000E+00 -0.00000000000E+00 -0.24724570520E+03  0.24724570520E+03  0.00000000000E+00 0. -1.
         25    2    1    2    0    0 -0.29826226676E+02  0.77456661277E+02  0.13563394222E+03  0.20226307994E+03  0.12499859619E+03 0.  0.
          2    1    1    2  501    0  0.41464568165E+02 -0.54648517674E+02 -0.20620273477E+03  0.21731391746E+03  0.00000000000E+00 0. -1.
          1    1    1    2  502    0 -0.11638341489E+02 -0.22808143602E+02  0.73266636727E+02  0.77612257179E+02  0.00000000000E+00 0. -1.
         22    1    3    3    0    0 -0.11795695672E+02 -0.46564058094E+01  0.11500192841E+03  0.11569902372E+03  0.00000000000E+00 0. -1.
         22    1    3    3    0    0 -0.18030531004E+02  0.82113067086E+02  0.20632013811E+02  0.86564056215E+02  0.00000000000E+00 0. -1.
</event>
<event>
 7    1  0.4915160E-006  0.1195940E+03  0.7818608E-02  0.1269683E+00
          2   -1    0    0  502    0  0.00000000000E+00  0.00000000000E+00  0.83324445258E+03  0.83324445258E+03  0.00000000000E+00 0. -1.
          1   -1    0    0  501    0 -0.00000000000E+00 -0.00000000000E+00 -0.49547630900E+03  0.49547630900E+03  0.00000000000E+00 0. -1.
         25    2    1    2    0    0 -0.13385497315E+03  0.19861726522E+02  0.27151820438E+03  0.32811376344E+03  0.12499945771E+03 0.  0.
          2    1    1    2  501    0  0.55337263762E+02  0.74217280702E+02 -0.45542207080E+03  0.46473614029E+03  0.00000000000E+00 0. -1.
          1    1    1    2  502    0  0.78517709387E+02 -0.94079007224E+02  0.52167201000E+03  0.53587085786E+03  0.00000000000E+00 0. -1.
         22    1    3    3    0    0 -0.21156610126E+02 -0.61257361764E+01  0.17805997192E+03  0.17941705715E+03  0.00000000000E+00 0. -1.
         22    1    3    3    0    0 -0.11269836302E+03  0.25987462699E+02  0.93458232458E+02  0.14869670628E+03  0.00000000000E+00 0. -1.
</event>
<event>
 7    1  0.4915160E-006  0.1436165E+03  0.7818608E-02  0.1281397E+00
          2   -1    0    0  502    0  0.00000000000E+00  0.00000000000E+00  0.46717748642E+03  0.46717748642E+03  0.00000000000E+00 0. -1.
          1   -1    0    0  501    0 -0.00000000000E+00 -0.00000000000E+00 -0.35472339766E+03  0.35472339766E+03  0.00000000000E+00 0. -1.
         25    2    1    2    0    0 -0.15453880734E+03 -0.74259389140E+02  0.33971237938E+02  0.21488700384E+03  0.12500271823E+03 0.  0.
          2    1    1    2  501    0  0.93304857020E+02  0.10585516797E+03 -0.24149665763E+03  0.27969938966E+03  0.00000000000E+00 0. -1.
          1    1    1    2  502    0  0.61233950316E+02 -0.31595778827E+02  0.31997950845E+03  0.32731449058E+03  0.00000000000E+00 0. -1.
         22    1    3    3    0    0 -0.11039139204E+03 -0.48043351394E+02 -0.38206623271E+02  0.12630981400E+03  0.00000000000E+00 0. -1.
         22    1    3    3    0    0 -0.44147415291E+02 -0.26216037745E+02  0.72177861210E+02  0.88577189844E+02  0.00000000000E+00 0. -1.
</event>
<event>
 7    1  0.4915160E-006  0.1382848E+03  0.7818608E-02  0.1230119E+00
          2   -1    0    0  502    0  0.00000000000E+00  0.00000000000E+00  0.20603619801E+04  0.20603619801E+04  0.00000000000E+00 0. -1.
          1   -1    0    0  501    0 -0.00000000000E+00 -0.00000000000E+00 -0.12636387586E+04  0.12636387586E+04  0.00000000000E+00 0. -1.
         25    2    1    2    0    0 -0.12383899914E+03  0.11390402241E+03  0.48974557759E+03  0.53271730088E+03  0.12500707125E+03 0.  0.
          2    1    1    2  501    0 -0.16050315251E+02 -0.11780134331E+03 -0.12361344683E+04  0.12418386340E+04  0.00000000000E+00 0. -1.
          1    1    1    2  502    0  0.13988931439E+03  0.38973208965E+01  0.15431121122E+04  0.15494448039E+04  0.00000000000E+00 0. -1.
         22    1    3    3    0    0 -0.36094156167E+01  0.84626491132E+02  0.22707359814E+03  0.24235735981E+03  0.00000000000E+00 0.  1.
         22    1    3    3    0    0 -0.12022958352E+03  0.29277531276E+02  0.26267197945E+03  0.29035994107E+03  0.00000000000E+00 0.  1.
</event>
<event>
 7    1  0.4915160E-006  0.9862682E+02  0.7818608E-02  0.1313087E+00
          2   -1    0    0  502    0  0.00000000000E+00  0.00000000000E+00  0.30066364184E+04  0.30066364184E+04  0.00000000000E+00 0. -1.
          1   -1    0    0  501    0 -0.00000000000E+00 -0.00000000000E+00 -0.26481065954E+03  0.26481065954E+03  0.00000000000E+00 0. -1.
         25    2    1    2    0    0 -0.45876407505E+02 -0.34942710536E+02  0.39793841367E+03  0.42107618564E+03  0.12499814100E+03 0.  0.
          2    1    1    2  501    0  0.31610916260E+02 -0.67815699148E+02 -0.24665422014E+03  0.25775283391E+03  0.00000000000E+00 0. -1.
          1    1    1    2  502    0  0.14265491245E+02  0.10275840968E+03  0.25905415653E+04  0.25926180584E+04  0.00000000000E+00 0. -1.
         22    1    3    3    0    0 -0.15641839579E+02 -0.16628440440E+02  0.13004866419E+01  0.22866207433E+02  0.00000000000E+00 0.  1.
         22    1    3    3    0    0 -0.30234567926E+02 -0.18314270096E+02  0.39663792703E+03  0.39820997821E+03  0.00000000000E+00 0.  1.
</event>
<event>
 7    1  0.4915160E-006  0.1502550E+03  0.7818608E-02  0.1212607E+00
          2   -1    0    0  502    0  0.00000000000E+00  0.00000000000E+00  0.22129234010E+03  0.22129234010E+03  0.00000000000E+00 0. -1.
          1   -1    0    0  501    0 -0.00000000000E+00 -0.00000000000E+00 -0.12137993657E+04  0.12137993657E+04  0.00000000000E+00 0. -1.
         25    2    1    2    0    0 -0.14260835251E+03 -0.10561632105E+03 -0.14902724806E+03  0.26330202323E+03  0.12500754096E+03 0.  0.
          2    1    1    2  501    0 -0.88941133502E+01  0.13114788022E+03 -0.96623377992E+03  0.97513413908E+03  0.00000000000E+00 0. -1.
          1    1    1    2  502    0  0.15150246586E+03 -0.25531559174E+02  0.12275400239E+03  0.19665554348E+03  0.00000000000E+00 0. -1.
         22    1    3    3    0    0 -0.26426813556E+02 -0.79959889996E+02 -0.17627894646E+02  0.86038962991E+02  0.00000000000E+00 0. -1.
         22    1    3    3    0    0 -0.11618153896E+03 -0.25656431051E+02 -0.13139935341E+03  0.17726306024E+03  0.00000000000E+00 0. -1.
</event>
<event>
 7    1  0.4915160E-006  0.9407654E+02  0.7818608E-02  0.1369004E+00
          2   -1    0    0  502    0  0.00000000000E+00  0.00000000000E+00  0.14193500083E+04  0.14193500083E+04  0.00000000000E+00 0. -1.
          1   -1    0    0  501    0 -0.00000000000E+00 -0.00000000000E+00 -0.19147606681E+03  0.19147606681E+03  0.00000000000E+00 0. -1.
         25    2    1    2    0    0  0.11140043950E+02 -0.78854964287E+02  0.15158727727E+02  0.14898566384E+03  0.12499894012E+03 0.  0.
          2    1    1    2  501    0  0.48098044707E+02  0.49516770932E+01 -0.11812296887E+03  0.12763611082E+03  0.00000000000E+00 0. -1.
          1    1    1    2  502    0 -0.59238088657E+02  0.73903287193E+02  0.13308381826E+04  0.13342043004E+04  0.00000000000E+00 0. -1.
         22    1    3    3    0    0  0.31543705420E+02 -0.22443937594E+02 -0.48141503012E+02  0.61776532750E+02  0.00000000000E+00 0. -1.
         22    1    3    3    0    0 -0.20403661469E+02 -0.56411026693E+02  0.63300230739E+02  0.87209131090E+02  0.00000000000E+00 0. -1.
</event>
<event>
 7    1  0.4915160E-006  0.1096596E+03  0.7818608E-02  0.1363798E+00
          2   -1    0    0  502    0  0.00000000000E+00  0.00000000000E+00  0.21327306635E+03  0.21327306635E+03  0.00000000000E+00 0. -1.
          1   -1    0    0  501    0 -0.00000000000E+00 -0.00000000000E+00 -0.54870883779E+03  0.54870883779E+03  0.00000000000E+00 0. -1.
         25    2    1    2    0    0  0.11145641544E+03 -0.40453563274E+02 -0.33669277903E+03  0.37821392785E+03  0.12499889778E+03 0.  0.
          2    1    1    2  501    0 -0.80025173628E+02  0.70261473209E+02 -0.17358056958E+03  0.20364409436E+03  0.00000000000E+00 0. -1.
          1    1    1    2  502    0 -0.31431241814E+02 -0.29807909935E+02  0.17483757716E+03  0.18012388194E+03  0.00000000000E+00 0. -1.
         22    1    3    3    0    0  0.44530533242E+02 -0.39127654160E+01 -0.14310815522E+02  0.46936953086E+02  0.00000000000E+00 0.  1.
         22    1    3    3    0    0  0.66925882199E+02 -0.36540797858E+02 -0.32238196351E+03  0.33127697477E+03  0.00000000000E+00 0.  1.
</event>
<event>
 7    1  0.4915160E-006  0.1530145E+03  0.7818608E-02  0.1249933E+00
          2   -1    0    0  502    0  0.00000000000E+00  0.00000000000E+00  0.75071342876E+03  0.75071342876E+03  0.00000000000E+00 0. -1.
          1   -1    0    0  501    0 -0.00000000000E+00 -0.00000000000E+00 -0.72719118767E+03  0.72719118767E+03  0.00000000000E+00 0. -1.
         25    2    1    2    0    0 -0.20434422939E+03  0.10633910514E+03 -0.27207360677E+03  0.37777515520E+03  0.12500180405E+03 0.  0.
          2    1    1    2  501    0  0.58874984015E+02 -0.65219500281E+02 -0.38912437262E+03  0.39892057396E+03  0.00000000000E+00 0. -1.
          1    1    1    2  502    0  0.14546924538E+03 -0.41119604863E+02  0.68472022048E+03  0.70120888727E+03  0.00000000000E+00 0. -1.
         22    1    3    3    0    0 -0.11688199117E+03  0.12462831639E+03 -0.19946153416E+03  0.26263762243E+03  0.00000000000E+00 0.  1.
         22    1    3    3    0    0 -0.87462238226E+02 -0.18289211249E+02 -0.72612072618E+02  0.11513753277E+03  0.00000000000E+00 0.  1.
</event>
<event>
 7    1  0.4915160E-006  0.1505214E+03  0.7818608E-02  0.1367393E+00
          2   -1    0    0  502    0  0.00000000000E+00  0.00000000000E+00  0.22806717080E+04  0.22806717080E+04  0.00000000000E+00 0. -1.
          1   -1    0    0  501    0 -0.00000000000E+00 -0.00000000000E+00 -0.80896558372E+03  0.80896558372E+03  0.00000000000E+00 0. -1.
         25    2    1    2    0    0  0.17565445229E+03 -0.18913194658E+02  0.58463031255E+02  0.22417586485E+03  0.12499878726E+03 0.  0.
          2    1    1    2  501    0 -0.14908982413E+03  0.36706564823E+01 -0.71834031748E+03  0.73365800009E+03  0.00000000000E+00 0. -1.
          1    1    1    2  502    0 -0.26564628165E+02  0.15242538176E+02  0.21315834105E+04  0.21318034268E+04  0.00000000000E+00 0. -1.
         22    1    3    3    0    0  0.53503674503E+00  0.28518944461E+02 -0.10047863640E+02  0.30241957960E+02  0.00000000000E+00 0. -1.
         22    1    3    3    0    0  0.17511941555E+03 -0.47432139120E+02  0.68510894896E+02  0.19393390689E+03  0.00000000000E+00 0. -1.
</event>
<event>
 7    1  0.4915160E-006  0.6991874E+02  0.7818608E-02  0.1434456E+00
          2   -1    0    0  502    0  0.00000000000E+00  0.00000000000E+00  0.13280262853E+03  0.13280262853E+03  0.00000000000E+00 0. -1.
          1   -1    0    0  501    0 -0.00000000000E+00 -0.00000000000E+00 -0.36398733275E+03  0.36398733275E+03  0.00000000000E+00 0. -1.
         25    2    1    2    0    0  0.59986748574E+02 -0.21265123234E+02 -0.24716185115E+02  0.14242701826E+03  0.12499580094E+03 0.  0.
          2    1    1    2  501    0 -0.14501087122E+02 -0.35973716561E+02 -0.26055130665E+03  0.26342242351E+03  0.00000000000E+00 0. -1.
          1    1    1    2  502    0 -0.45485661452E+02  0.57238839795E+02  0.54082787548E+02  0.90940519504E+02  0.00000000000E+00 0. -1.
         22    1    3    3    0    0 -0.36462092125E+02 -0.23850225462E+02 -0.11335498242E+02  0.45020117027E+02  0.00000000000E+00 0.  1.
         22    1    3    3    0    0  0.96448840699E+02  0.25851022282E+01 -0.13380686873E+02  0.97406901228E+02  0.00000000000E+00 0.  1.
</event>
<event>
 7    1  0.4915160E-006  0.1018368E+03  0.7818608E-02  0.1277190E+00
          2   -1    0    0  502    0  0.00000000000E+00  0.00000000000E+00  0.35949274917E+04  0.35949274917E+04  0.00000000000E+00 0. -1.
          1   -1    0    0  501    0 -0.00000000000E+00 -0.00000000000E+00 -0.47570142788E+03  0.47570142788E+03  0.00000000000E+00 0. -1.
         25    2    1    2    0    0  0.84736347768E+02  0.22145531974E+02  0.32306315816E+03  0.35730274256E+03  0.12499908984E+03 0.  0.
          2    1    1    2  501    0 -0.61747419016E+02  0.80113540768E+02 -0.45214860367E+03  0.46332416618E+03  0.00000000000E+00 0. -1.
          1    1    1    2  502    0 -0.22988928752E+02 -0.10225907274E+03  0.32483115094E+04  0.32500020109E+04  0.00000000000E+00 0. -1.
         22    1    3    3    0    0  0.27756418213E+02 -0.31308132158E+02  0.23862133569E+03  0.24226175872E+03  0.00000000000E+00 0.  1.
         22    1    3    3    0    0  0.56979929555E+02  0.53453664132E+02  0.84441822468E+02  0.11504098384E+03  0.00000000000E+00 0.  1.
</event>
<event>
 7    1  0.4915160E-006  0.8320481E+02  0.7818608E-02  0.1373166E+00
          2   -1    0    0  502    0  0.00000000000E+00  0.00000000000E+00  0.25877061810E+04  0.25877061810E+04  0.00000000000E+00 0. -1.
          1   -1    0    0  501    0 -0.00000000000E+00 -0.00000000000E+00 -0.29941690625E+02  0.29941690625E+02  0.00000000000E+00 0. -1.
         25    2    1    2    0    0  0.76660517384E+02 -0.49536273041E+01  0.15448527235E+04  0.15518043664E+04  0.12500192255E+03 0.  0.
          2    1    1    2  501    0  0.28695007913E+01  0.52743627711E+02  0.43255171755E+01  0.52998437691E+02  0.00000000000E+00 0. -1.
          1    1    1    2  502    0 -0.79530018175E+02 -0.47790000406E+02  0.10085862497E+04  0.10128450676E+04  0.00000000000E+00 0. -1.
         22    1    3    3    0    0  0.67245998130E+02 -0.60328486807E+02  0.99238643983E+03  0.99649003835E+03  0.00000000000E+00 0.  1.
         22    1    3    3    0    0  0.94145192538E+01  0.55374859502E+02  0.55246628372E+03  0.55531432801E+03  0.00000000000E+00 0.  1.
</event>
<event>
 7    1  0.4915160E-006  0.1433199E+03  0.7818608E-02  0.1346913E+00
          2   -1    0    0  502    0  0.00000000000E+00  0.00000000000E+00  0.35699240808E+03  0.35699240808E+03  0.00000000000E+00 0. -1.
          1   -1    0    0  501    0 -0.00000000000E+00 -0.00000000000E+00 -0.70563100941E+03  0.70563100941E+03  0.00000000000E+00 0. -1.
         25    2    1    2    0    0 -0.44035440845E+02 -0.11193524743E+03  0.76672579868E+02  0.18966469384E+03  0.12500156767E+03 0.  0.
          2    1    1    2  501    0  0.57611185764E+01 -0.37798812554E+02 -0.62179894903E+03  0.62297341334E+03  0.00000000000E+00 0. -1.
          1    1    1    2  502    0  0.38274322268E+02  0.14973405998E+03  0.19648776783E+03  0.24998531031E+03  0.00000000000E+00 0. -1.
         22    1    3    3    0    0 -0.53396134167E+02 -0.13650748429E+03  0.59136091494E+02  0.15805858955E+03  0.00000000000E+00 0.  1.
         22    1    3    3    0    0  0.93606933222E+01  0.24572236868E+02  0.17536488373E+02  0.31606104294E+02  0.00000000000E+00 0.  1.
</event>
<event>
 7    1  0.4915160E-006  0.4288994E+02  0.7818608E-02  0.1493752E+00
          2   -1    0    0  502    0  0.00000000000E+00  0.00000000000E+00  0.77506217579E+03  0.77506217579E+03  0.00000000000E+00 0. -1.
          1   -1    0    0  501    0 -0.00000000000E+00 -0.00000000000E+00 -0.14439373017E+03  0.14439373017E+03  0.00000000000E+00 0. -1.
         25    2    1    2    0    0 -0.30624077113E+02  0.76923031984E+02  0.25167995391E+03  0.29295591935E+03  0.12500153811E+03 0.  0.
          2    1    1    2  501    0  0.20773039894E+02 -0.36922096550E+02 -0.11925496001E+03  0.12655633484E+03  0.00000000000E+00 0. -1.
          1    1    1    2  502    0  0.98510372192E+01 -0.40000935434E+02  0.49824345171E+03  0.49994365177E+03  0.00000000000E+00 0. -1.
         22    1    3    3    0    0 -0.18042884140E+01 -0.17826034129E+02  0.14982004025E+03  0.15088759860E+03  0.00000000000E+00 0. -1.
         22    1    3    3    0    0 -0.28819788699E+02  0.94749066113E+02  0.10185991366E+03  0.14206832075E+03  0.00000000000E+00 0. -1.
</event>
<event>
 7    1  0.4915160E-006  0.1634009E+03  0.7818608E-02  0.1317368E+00
          2   -1    0    0  502    0  0.00000000000E+00  0.00000000000E+00  0.19777631424E+03  0.19777631424E+03  0.00000000000E+00 0. -1.
          1   -1    0    0  501    0 -0.00000000000E+00 -0.00000000000E+00 -0.95695898697E+03  0.95695898697E+03  0.00000000000E+00 0. -1.
         25    2    1    2    0    0  0.77794518265E+02 -0.10949362001E+03 -0.36713327695E+03  0.41043278345E+03  0.12500954678E+03 0.  0.
          2    1    1    2  501    0 -0.94040153750E+01 -0.42424417171E+02 -0.52768376694E+03  0.52946994680E+03  0.00000000000E+00 0. -1.
          1    1    1    2  502    0 -0.68390502890E+02  0.15191803718E+03  0.13563437116E+03  0.21483257096E+03  0.00000000000E+00 0. -1.
         22    1    3    3    0    0  0.86895596965E+02 -0.79441058216E+02 -0.35926028511E+03  0.37806041708E+03  0.00000000000E+00 0. -1.
         22    1    3    3    0    0 -0.91010787006E+01 -0.30052561796E+02 -0.78729918454E+01  0.32372366374E+02  0.00000000000E+00 0. -1.
</event>
<event>
 7    1  0.4915160E-006  0.3541165E+02  0.7818608E-02  0.1546243E+00
          2   -1    0    0  502    0  0.00000000000E+00  0.00000000000E+00  0.81611219711E+03  0.81611219711E+03  0.00000000000E+00 0. -1.
          1   -1    0    0  501    0 -0.00000000000E+00 -0.00000000000E+00 -0.11868202008E+04  0.11868202008E+04  0.00000000000E+00 0. -1.
         25    2    1    2    0    0  0.22898538212E+02  0.54935619433E+02 -0.79039315627E+02  0.15941892779E+03  0.12499966315E+03 0.  0.
          2    1    1    2  501    0 -0.28820764252E+02 -0.20073993928E+02 -0.10668990677E+04  0.10674770360E+04  0.00000000000E+00 0. -1.
          1    1    1    2  502    0  0.59222260400E+01 -0.34861625504E+02  0.77523037961E+03  0.77603643418E+03  0.00000000000E+00 0. -1.
         22    1    3    3    0    0 -0.30777520006E+02 -0.32082544196E+01  0.16737729493E+02  0.35180963925E+02  0.00000000000E+00 0. -1.
         22    1    3    3    0    0  0.53676058218E+02  0.58143873852E+02 -0.95777045120E+02  0.12423796386E+03  0.00000000000E+00 0. -1.
</event>
<event>
 7    1  0.4915160E-006  0.6648836E+02  0.7818608E-02  0.1428865E+00
          2   -1    0    0  502    0  0.00000000000E+00  0.00000000000E+00  0.60009219612E+03  0.60009219612E+03  0.00000000000E+00 0. -1.
          1   -1    0    0  501    0 -0.00000000000E+00 -0.00000000000E+00 -0.71403381747E+02  0.71403381747E+02  0.00000000000E+00 0. -1.
         25    2    1    2    0    0  0.18035134042E+02 -0.60224019519E+02  0.90459251784E+02  0.16661307412E+03  0.12499936658E+03 0.  0.
          2    1    1    2  501    0  0.24073894992E+02  0.66328590487E+02  0.62787162115E+01  0.70841065869E+02  0.00000000000E+00 0. -1.
          1    1    1    2  502    0 -0.42109029034E+02 -0.61045709688E+01  0.43195084638E+03  0.43404143788E+03  0.00000000000E+00 0. -1.
         22    1    3    3    0    0  0.10140592438E+01 -0.36919398732E+02 -0.26942676622E+02  0.45716278746E+02  0.00000000000E+00 0. -1.
         22    1    3    3    0    0  0.17021074798E+02 -0.23304620787E+02  0.11740192841E+03  0.12089679537E+03  0.00000000000E+00 0. -1.
</event>
<event>
 7    1  0.4915160E-006  0.5337035E+02  0.7818608E-02  0.1519543E+00
          2   -1    0    0  502    0  0.00000000000E+00  0.00000000000E+00  0.88902634504E+03  0.88902634504E+03  0.00000000000E+00 0. -1.
          1   -1    0    0  501    0 -0.00000000000E+00 -0.00000000000E+00 -0.54183930111E+02  0.54183930111E+02  0.00000000000E+00 0. -1.
         25    2    1    2    0    0 -0.13533620127E+02  0.23157128989E+02  0.15356342234E+03  0.19981730713E+03  0.12500328017E+03 0.  0.
          2    1    1    2  501    0 -0.15087260194E+02  0.23318925391E+02 -0.23573993489E+02  0.36429807447E+02  0.00000000000E+00 0. -1.
          1    1    1    2  502    0  0.28620880321E+02 -0.46476054380E+02  0.70485298608E+03  0.70696316057E+03  0.00000000000E+00 0. -1.
         22    1    3    3    0    0 -0.33664562284E+02 -0.48335160049E+00 -0.85665573557E+01  0.34740787087E+02  0.00000000000E+00 0.  1.
         22    1    3    3    0    0  0.20130942157E+02  0.23640480589E+02  0.16212997970E+03  0.16507652005E+03  0.00000000000E+00 0.  1.
</event>
<event>
 7    1  0.4915160E-006  0.5910436E+02  0.7818608E-02  0.1407042E+00
          2   -1    0    0  502    0  0.00000000000E+00  0.00000000000E+00  0.99823068854E+03  0.99823068854E+03  0.00000000000E+00 0. -1.
          1   -1    0    0  501    0 -0.00000000000E+00 -0.00000000000E+00 -0.42367538728E+02  0.42367538728E+02  0.00000000000E+00 0. -1.
         25    2    1    2    0    0  0.38922741246E+02  0.73484178303E+02  0.23104846096E+03  0.27554293820E+03  0.12500246091E+03 0.  0.
          2    1    1    2  501    0 -0.54829135301E+02 -0.19123167381E+02  0.25449705833E+02  0.63400450594E+02  0.00000000000E+00 0. -1.
          1    1    1    2  502    0  0.15906394055E+02 -0.54361010922E+02  0.69936498302E+03  0.70165483847E+03  0.00000000000E+00 0. -1.
         22    1    3    3    0    0  0.40269435785E+02  0.89554622069E+02  0.88820752051E+02  0.13240386621E+03  0.00000000000E+00 0.  1.
         22    1    3    3    0    0 -0.13466945394E+01 -0.16070443766E+02  0.14222770891E+03  0.14313907199E+03  0.00000000000E+00 0.  1.
</event>
<event>
 7    1  0.4915160E-006  0.3847120E+02  0.7818608E-02  0.1623992E+00
          2   -1    0    0  502    0  0.00000000000E+00  0.00000000000E+00  0.12339001519E+03  0.12339001519E+03  0.00000000000E+00 0. -1.
          1   -1    0    0  501    0 -0.00000000000E+00 -0.00000000000E+00 -0.89879045767E+02  0.89879045767E+02  0.00000000000E+00 0. -1.
         25    2    1    2    0    0  0.10285480000E+02 -0.22008650180E+02  0.16676956346E+02  0.12842661514E+03  0.12500041129E+03 0.  0.
          2    1    1    2  501    0 -0.42754481673E+01  0.41149236609E+02 -0.17625132139E+02  0.44968704823E+02  0.00000000000E+00 0. -1.
          1    1    1    2  502    0 -0.60100318327E+01 -0.19140586429E+02  0.34459145212E+02  0.39873740986E+02  0.00000000000E+00 0. -1.
         22    1    3    3    0    0  0.40528418457E+02  0.26962255124E+02 -0.27465430045E+02  0.55891553490E+02  0.00000000000E+00 0. -1.
         22    1    3    3    0    0 -0.30242938457E+02 -0.48970905304E+02  0.44142386391E+02  0.72535061654E+02  0.00000000000E+00 0. -1.
</event>
<event>
 7    1  0.4915160E-006  0.7608215E+02  0.7818608E-02  0.1475397E+00
          2   -1    0    0  502    0  0.00000000000E+00  0.00000000000E+00  0.51786276194E+03  0.51786276194E+03  0.00000000000E+00 0. -1.
          1   -1    0    0  501    0 -0.00000000000E+00 -0.00000000000E+00 -0.17096657764E+03  0.17096657764E+03  0.00000000000E+00 0. -1.
         25    2    1    2    0    0  0.14461948778E+02  0.66358906628E+02  0.27773218685E+03  0.31204611456E+03  0.12499983019E+03 0.  0.
          2    1    1    2  501    0 -0.40824668014E+02 -0.64667246971E+02 -0.14343526073E+03  0.16254900914E+03  0.00000000000E+00 0. -1.
          1    1    1    2  502    0  0.26362719236E+02 -0.16916596567E+01  0.21259925818E+03  0.21423421589E+03  0.00000000000E+00 0. -1.
         22    1    3    3    0    0 -0.16995566199E+02  0.89943356904E+02  0.24269506607E+03  0.25938302145E+03  0.00000000000E+00 0. -1.
         22    1    3    3    0    0  0.31457514977E+02 -0.23584450277E+02  0.35037120781E+02  0.52663093111E+02  0.00000000000E+00 0. -1.
</event>
<event>
 7    1  0.4915160E-006  0.8088519E+02  0.7818608E-02  0.1394412E+00
          2   -1    0    0  502    0  0.00000000000E+00  0.00000000000E+00  0.23313156602E+03  0.23313156602E+03  0.00000000000E+00 0. -1.
          1   -1    0    0  501    0 -0.00000000000E+00 -0.00000000000E+00 -0.60884432739E+03  0.60884432739E+03  0.00000000000E+00 0. -1.
         25    2    1    2    0    0  0.64088955972E+02  0.76564678353E+02 -0.63729519440E+02  0.17221132891E+03  0.12500298359E+03 0.  0.
          2    1    1    2  501    0 -0.45712146741E+02  0.14800908302E+01 -0.48074962920E+03  0.48292028017E+03  0.00000000000E+00 0. -1.
          1    1    1    2  502    0 -0.18376809231E+02 -0.78044769183E+02  0.16876638726E+03  0.18684428432E+03  0.00000000000E+00 0. -1.
         22    1    3    3    0    0  0.93994297824E+02  0.73782919380E+02 -0.23133551192E+02  0.12171281118E+03  0.00000000000E+00 0.  1.
         22    1    3    3    0    0 -0.29905341852E+02  0.27817589729E+01 -0.40595968248E+02  0.50498517724E+02  0.00000000000E+00 0.  1.
</event>
<event>
 7    1  0.4915160E-006  0.3073971E+02  0.7818608E-02  0.1600371E+00
          2   -1    0    0  502    0  0.00000000000E+00  0.00000000000E+00  0.40222697902E+03  0.40222697902E+03  0.00000000000E+00 0. -1.
          1   -1    0    0  501    0 -0.00000000000E+00 -0.00000000000E+00 -0.12999551254E+03  0.12999551254E+03  0.00000000000E+00 0. -1.
         25    2    1    2    0    0 -0.26977614959E+01  0.56810221958E+02 -0.29667802916E+02  0.14050398883E+03  0.12500605230E+03 0.  0.
          2    1    1    2  501    0 -0.72940262259E+01 -0.27942033885E+02 -0.39513614866E+02  0.48941657470E+02  0.00000000000E+00 0. -1.
          1    1    1    2  502    0  0.99917877218E+01 -0.28868188073E+02  0.34141288426E+03  0.34277684526E+03  0.00000000000E+00 0. -1.
         22    1    3    3    0    0 -0.12084770594E+02  0.75201178940E+02  0.26513267724E+02  0.80648697198E+02  0.00000000000E+00 0. -1.
         22    1    3    3    0    0  0.93870090978E+01 -0.18390956982E+02 -0.56181070640E+02  0.59855291635E+02  0.00000000000E+00 0. -1.
</event>
<event>
 7    1  0.4915160E-006  0.6674609E+02  0.7818608E-02  0.1440459E+00
          2   -1    0    0  502    0  0.00000000000E+00  0.00000000000E+00  0.78928546146E+02  0.78928546146E+02  0.00000000000E+00 0. -1.
          1   -1    0    0  501    0 -0.00000000000E+00 -0.00000000000E+00 -0.91678380997E+03  0.91678380997E+03  0.00000000000E+00 0. -1.
         25    2    1    2    0    0 -0.47455720841E+02  0.27756903879E+02 -0.21884244260E+03  0.25795399621E+03  0.12500303326E+03 0.  0.
          2    1    1    2  501    0  0.68432834193E+02  0.49325890656E+01 -0.67008838571E+03  0.67359173680E+03  0.00000000000E+00 0. -1.
          1    1    1    2  502    0 -0.20977113352E+02 -0.32689492944E+02  0.51075564481E+02  0.64166623104E+02  0.00000000000E+00 0. -1.
         22    1    3    3    0    0 -0.13317364691E+02  0.82582341746E+01  0.14483974481E+02  0.21338607048E+02  0.00000000000E+00 0. -1.
         22    1    3    3    0    0 -0.34138356151E+02  0.19498669704E+02 -0.23332641708E+03  0.23661538916E+03  0.00000000000E+00 0. -1.
</event>
<event>
 7    1  0.4915160E-006  0.3430949E+02  0.7818608E-02  0.1597632E+00
          2   -1    0    0  502    0  0.00000000000E+00  0.00000000000E+00  0.18473836402E+04  0.18473836402E+04  0.00000000000E+00 0. -1.
          1   -1    0    0  501    0 -0.00000000000E+00 -0.00000000000E+00 -0.40942691831E+03  0.40942691831E+03  0.00000000000E+00 0. -1.
         25    2    1    2    0    0  0.83942661632E+01  0.14472082955E+01  0.10167383508E+03  0.16135539954E+03  0.12500175240E+03 0.  0.
          2    1    1    2  501    0 -0.34348039210E+02  0.28315733896E+01 -0.37870276921E+03  0.38026779118E+03  0.00000000000E+00 0. -1.
          1    1    1    2  502    0  0.25953773047E+02 -0.42787816850E+01  0.17149856560E+04  0.17151873678E+04  0.00000000000E+00 0. -1.
         22    1    3    3    0    0 -0.22566764169E+02  0.27278006161E+02  0.11385662656E+03  0.11923371954E+03  0.00000000000E+00 0. -1.
         22    1    3    3    0    0  0.30961030332E+02 -0.25830797865E+02 -0.12182791477E+02  0.42121679996E+02  0.00000000000E+00 0. -1.
</event>
<event>
 7    1  0.4915160E-006  0.5581777E+02  0.7818608E-02  0.1454287E+00
          2   -1    0    0  502    0  0.00000000000E+00  0.00000000000E+00  0.13915948004E+03  0.13915948004E+03  0.00000000000E+00 0. -1.
          1   -1    0    0  501    0 -0.00000000000E+00 -0.00000000000E+00 -0.11938875951E+04  0.11938875951E+04  0.00000000000E+00 0. -1.
         25    2    1    2    0    0  0.34130123899E+02 -0.60590120343E+02 -0.72825342225E+03  0.74216814325E+03  0.12499791116E+03 0.  0.
          2    1    1    2  501    0 -0.50577680400E+02  0.22019143687E+02 -0.45363852833E+03  0.45698015146E+03  0.00000000000E+00 0. -1.
          1    1    1    2  502    0  0.16447556501E+02  0.38570976656E+02  0.12716383548E+03  0.13389878046E+03  0.00000000000E+00 0. -1.
         22    1    3    3    0    0  0.81321296525E+02 -0.45576936027E+02 -0.45241768430E+03  0.46192225692E+03  0.00000000000E+00 0.  1.
         22    1    3    3    0    0 -0.47191172626E+02 -0.15013184316E+02 -0.27583573795E+03  0.28024588633E+03  0.00000000000E+00 0.  1.
</event>
<event>
 7    1  0.4915160E-006  0.7965961E+02  0.7818608E-02  0.1434271E+00
          2   -1    0    0  502    0  0.00000000000E+00  0.00000000000E+00  0.54011755602E+03  0.54011755602E+03  0.00000000000E+00 0. -1.
          1   -1    0    0  501    0 -0.00000000000E+00 -0.00000000000E+00 -0.34042637519E+03  0.34042637519E+03  0.00000000000E+00 0. -1.
         25    2    1    2    0    0 -0.44430288763E+01 -0.55220672965E+02 -0.11570916024E+03  0.17911146527E+03  0.12499297581E+03 0.  0.
          2    1    1    2  501    0  0.21361006009E+02  0.84817691525E+02 -0.18249423929E+03  0.20237213431E+03  0.00000000000E+00 0. -1.
          1    1    1    2  502    0 -0.16917977133E+02 -0.29597018560E+02  0.49789458035E+03  0.49906033163E+03  0.00000000000E+00 0. -1.
         22    1    3    3    0    0 -0.30142723384E+02  0.16759982942E+02 -0.93288826087E+02  0.99459971215E+02  0.00000000000E+00 0.  1.
         22    1    3    3    0    0  0.25699694508E+02 -0.71980655907E+02 -0.22420334149E+02  0.79651494059E+02  0.00000000000E+00 0.  1.
</event>
<event>
 7    1  0.4915160E-006  0.1242535E+03  0.7818608E-02  0.1384006E+00
          2   -1    0    0  502    0  0.00000000000E+00  0.00000000000E+00  0.11959688472E+04  0.11959688472E+04  0.00000000000E+00 0. -1.
          1   -1    0    0  501    0 -0.00000000000E+00 -0.00000000000E+00 -0.15695645949E+04  0.15695645949E+04  0.00000000000E+00 0. -1.
         25    2    1    2    0    0  0.12008791009E+03  0.70337701924E+01  0.23076887540E+03  0.28869925477E+03  0.12498962268E+03 0.  0.
          2    1    1    2  501    0  0.26942423463E+01 -0.32260213517E+02 -0.15362326325E+04  0.15365736824E+04  0.00000000000E+00 0. -1.
          1    1    1    2  502    0 -0.12278215244E+03  0.25226443325E+02  0.93186800938E+03  0.94026050502E+03  0.00000000000E+00 0. -1.
         22    1    3    3    0    0  0.16346402567E+02 -0.26581312359E+02  0.14943150703E+03  0.15265499119E+03  0.00000000000E+00 0.  1.
         22    1    3    3    0    0  0.10374150752E+03  0.33615082552E+02  0.81337368377E+02  0.13604426358E+03  0.00000000000E+00 0.  1.
</event>
<event>
 7    1  0.4915160E-006  0.1724640E+03  0.7818608E-02  0.1293821E+00
          2   -1    0    0  502    0  0.00000000000E+00  0.00000000000E+00  0.10810486187E+04  0.10810486187E+04  0.00000000000E+00 0. -1.
          1   -1    0    0  501    0 -0.00000000000E+00 -0.00000000000E+00 -0.77490405276E+03  0.77490405276E+03  0.00000000000E+00 0. -1.
         25    2    1    2    0    0  0.12644529615E+03  0.97402547360E+02  0.24421747172E+03  0.31739897470E+03  0.12499706594E+03 0.  0.
          2    1    1    2  501    0 -0.22145783253E+02  0.46001286581E+02 -0.72758478906E+03  0.72937382689E+03  0.00000000000E+00 0. -1.
          1    1    1    2  502    0 -0.10429951289E+03 -0.14340383394E+03  0.78951188327E+03  0.80917986987E+03  0.00000000000E+00 0. -1.
         22    1    3    3    0    0  0.16883283994E+02  0.91401701743E+02  0.11575718976E+03  0.14845552647E+03  0.00000000000E+00 0.  1.
         22    1    3    3    0    0  0.10956201215E+03  0.60008456172E+01  0.12846028197E+03  0.16894344823E+03  0.00000000000E+00 0.  1.
</event>
<event>
 7    1  0.4915160E-006  0.6055740E+02  0.7818608E-02  0.1434027E+00
          2   -1    0    0  502    0  0.00000000000E+00  0.00000000000E+00  0.31678615246E+04  0.31678615246E+04  0.00000000000E+00 0. -1.
          1   -1    0    0  501    0 -0.00000000000E+00 -0.00000000000E+00 -0.37155011418E+02  0.37155011418E+02  0.00000000000E+00 0. -1.
         25    2    1    2    0    0  0.21102597328E+02 -0.55830086650E+01  0.14235029944E+04  0.14291482064E+04  0.12500932416E+03 0.  0.
          2    1    1    2  501    0 -0.58026055946E+02 -0.20012275787E+02 -0.63665688138E+01  0.61709379752E+02  0.00000000000E+00 0. -1.
          1    1    1    2  502    0  0.36923458618E+02  0.25595284452E+02  0.17135700876E+04  0.17141589499E+04  0.00000000000E+00 0. -1.
         22    1    3    3    0    0 -0.53686099945E+01 -0.25636325526E+01  0.13633031000E+04  0.13633160810E+04  0.00000000000E+00 0. -1.
         22    1    3    3    0    0  0.26471207323E+02 -0.30193761124E+01  0.60199894440E+02  0.65832125439E+02  0.00000000000E+00 0. -1.
</event>
<event>
 7    1  0.4915160E-006  0.2086710E+03  0.7818608E-02  0.1268984E+00
          2   -1    0    0  502    0  0.00000000000E+00  0.00000000000E+00  0.18568341674E+04  0.18568341674E+04  0.00000000000E+00 0. -1.
          1   -1    0    0  501    0 -0.00000000000E+00 -0.00000000000E+00 -0.81774845418E+02  0.81774845418E+02  0.00000000000E+00 0. -1.
         25    2    1    2    0    0 -0.19962361406E+03 -0.59488635468E+02  0.25188135205E+03  0.34994574808E+03  0.12501730299E+03 0.  0.
          2    1    1    2  501    0  0.20489200086E+02 -0.49332432944E+02  0.23602812754E+01  0.53470245819E+02  0.00000000000E+00 0. -1.
          1    1    1    2  502    0  0.17913441398E+03  0.10882106841E+03  0.15208176886E+04  0.15351930189E+04  0.00000000000E+00 0. -1.
         22    1    3    3    0    0 -0.12305453929E+03 -0.55347755378E+02  0.68805287942E+02  0.15145943785E+03  0.00000000000E+00 0. -1.
         22    1    3    3    0    0 -0.76569074772E+02 -0.41408800903E+01  0.18307606410E+03  0.19848631023E+03  0.00000000000E+00 0. -1.
</event>
<event>
 7    1  0.4915160E-006  0.4042754E+02  0.7818608E-02  0.1562830E+00
          2   -1    0    0  502    0  0.00000000000E+00  0.00000000000E+00  0.19404483410E+04  0.19404483410E+04  0.00000000000E+00 0. -1.
          1   -1    0    0  501    0 -0.00000000000E+00 -0.00000000000E+00 -0.14873190709E+03  0.14873190709E+03  0.00000000000E+00 0. -1.
         25    2    1    2    0    0 -0.20370632493E+00  0.16907269210E+02  0.11199553682E+03  0.16868043730E+03  0.12499676961E+03 0.  0.
          2    1    1    2  501    0 -0.19896483780E+02 -0.35928641206E+02 -0.11677711900E+03  0.12378866203E+03  0.00000000000E+00 0. -1.
          1    1    1    2  502    0  0.20100190105E+02  0.19021371996E+02  0.17964980161E+04  0.17967111487E+04  0.00000000000E+00 0. -1.
         22    1    3    3    0    0  0.42210354209E+02 -0.97526436441E+01  0.11035792685E+03  0.11855673781E+03  0.00000000000E+00 0. -1.
         22    1    3    3    0    0 -0.42414060534E+02  0.26659912854E+02  0.16376099671E+01  0.50123699492E+02  0.00000000000E+00 0. -1.
</event>
<event>
 7    1  0.4915160E-006  0.3727920E+02  0.7818608E-02  0.1534951E+00
          2   -1    0    0  502    0  0.00000000000E+00  0.00000000000E+00  0.13367115846E+03  0.13367115846E+03  0.00000000000E+00 0. -1.
          1   -1    0    0  501    0 -0.00000000000E+00 -0.00000000000E+00 -0.10513105704E+04  0.10513105704E+04  0.00000000000E+00 0. -1.
         25    2    1    2    0    0  0.19379072366E+02 -0.51743423648E+02 -0.52878224265E+03  0.54615732392E+03  0.12499692791E+03 0.  0.
          2    1    1    2  501    0  0.13068661131E+02  0.33442944511E+02 -0.51042014778E+03  0.51168149048E+03  0.00000000000E+00 0. -1.
          1    1    1    2  502    0 -0.32447733497E+02  0.18300479137E+02  0.12156297852E+03  0.12714291444E+03  0.00000000000E+00 0. -1.
         22    1    3    3    0    0  0.19934923053E+02 -0.43941220638E+02 -0.58595969186E+02  0.75905992077E+02  0.00000000000E+00 0.  1.
         22    1    3    3    0    0 -0.55585068633E+00 -0.78022030092E+01 -0.47018627346E+03  0.47025133184E+03  0.00000000000E+00 0.  1.
</event>
<event>
 7    1  0.4915160E-006  0.1033927E+03  0.7818608E-02  0.1350183E+00
          2   -1    0    0  502    0  0.00000000000E+00  0.00000000000E+00  0.93177883381E+03  0.93177883381E+03  0.00000000000E+00 0. -1.
          1   -1    0    0  501    0 -0.00000000000E+00 -0.00000000000E+00 -0.67350150496E+03  0.67350150496E+03  0.00000000000E+00 0. -1.
         25    2    1    2    0    0  0.35169043723E+02  0.12034170436E+03  0.26505787653E+03  0.31874659534E+03  0.12499890674E+03 0.  0.
          2    1    1    2  501    0  0.13141943931E+02 -0.10238792491E+03 -0.64148628367E+03  0.64973890910E+03  0.00000000000E+00 0. -1.
          1    1    1    2  502    0 -0.48310987654E+02 -0.17953779444E+02  0.63470573600E+03  0.63679483433E+03  0.00000000000E+00 0. -1.
         22    1    3    3    0    0 -0.43721038517E+02  0.22096944973E+02  0.97351430601E+02  0.10898213260E+03  0.00000000000E+00 0.  1.
         22    1    3    3    0    0  0.78890082240E+02  0.98244759383E+02  0.16770644593E+03  0.20976446274E+03  0.00000000000E+00 0.  1.
</event>
<event>
 7    1  0.4915160E-006  0.1188323E+03  0.7818608E-02  0.1346311E+00
          2   -1    0    0  502    0  0.00000000000E+00  0.00000000000E+00  0.68030779150E+02  0.68030779150E+02  0.00000000000E+00 0. -1.
          1   -1    0    0  501    0 -0.00000000000E+00 -0.00000000000E+00 -0.15196346410E+04  0.15196346410E+04  0.00000000000E+00 0. -1.
         25    2    1    2    0    0 -0.15593518065E+03 -0.46998883102E+02 -0.11686105838E+04  0.11865077703E+04  0.12500126726E+03 0.  0.
          2    1    1    2  501    0  0.45056472450E+02  0.10886876170E+02 -0.28072320256E+03  0.28452438602E+03  0.00000000000E+00 0. -1.
          1    1    1    2  502    0  0.11087870820E+03  0.36112006932E+02 -0.22700754250E+01  0.11663326378E+03  0.00000000000E+00 0. -1.
         22    1    3    3    0    0 -0.55726892383E+02 -0.14508783411E+02 -0.12537477512E+03  0.13796675530E+03  0.00000000000E+00 0. -1.
         22    1    3    3    0    0 -0.10020828827E+03 -0.32490099691E+02 -0.10432358087E+04  0.10485410150E+04  0.00000000000E+00 0. -1.
</event>
<event>
 7    1  0.4915160E-006  0.6730858E+02  0.7818608E-02  0.1455385E+00
          2   -1    0    0  502    0  0.00000000000E+00  0.00000000000E+00  0.37544504574E+02  0.37544504574E+02  0.00000000000E+00 0. -1.
          1   -1    0    0  501    0 -0.00000000000E+00 -0.00000000000E+00 -0.11133821744E+04  0.11133821744E+04  0.00000000000E+00 0. -1.
         25    2    1    2    0    0  0.60514079981E+02 -0.71481355712E+02 -0.21809274963E+03  0.26825549918E+03  0.12500010924E+03 0.  0.
          2    1    1    2  501    0 -0.28033617730E+02  0.59866503258E+02 -0.84227713998E+03  0.84486724547E+03  0.00000000000E+00 0. -1.
          1    1    1    2  502    0 -0.32480462252E+02  0.11614852453E+02 -0.15467780223E+02  0.37803934327E+02  0.00000000000E+00 0. -1.
         22    1    3    3    0    0  0.57249138037E+01 -0.89415757781E+02 -0.86280415463E+02  0.12438754950E+03  0.00000000000E+00 0.  1.
         22    1    3    3    0    0  0.54789166177E+02  0.17934402069E+02 -0.13181233416E+03  0.14386794968E+03  0.00000000000E+00 0.  1.
</event>
<event>
 7    1  0.4915160E-006  0.6084294E+02  0.7818608E-02  0.1433166E+00
          2   -1    0    0  502    0  0.00000000000E+00  0.00000000000E+00  0.67185658380E+03  0.67185658380E+03  0.00000000000E+00 0. -1.
          1   -1    0    0  501    0 -0.00000000000E+00 -0.00000000000E+00 -0.67817438171E+03  0.67817438171E+03  0.00000000000E+00 0. -1.
         25    2    1    2    0    0  0.41246873941E+02  0.60915280132E+00  0.14324474030E+03  0.19450486300E+03  0.12494562989E+03 0.  0.
          2    1    1    2  501    0  0.26843193069E+01  0.44927663037E+02 -0.64977287183E+03  0.65132978240E+03  0.00000000000E+00 0. -1.
          1    1    1    2  502    0 -0.43931193248E+02 -0.45536815838E+02  0.50021033363E+03  0.50419632010E+03  0.00000000000E+00 0. -1.
         22    1    3    3    0    0  0.83758248447E+02  0.16313671688E+02  0.10423060791E+03  0.13470560379E+03  0.00000000000E+00 0. -1.
         22    1    3    3    0    0 -0.42511374506E+02 -0.15704518887E+02  0.39014132389E+02  0.59799259209E+02  0.00000000000E+00 0. -1.
</event>
<event>
 7    1  0.4915160E-006  0.9873689E+02  0.7818608E-02  0.1378834E+00
          2   -1    0    0  502    0  0.00000000000E+00  0.00000000000E+00  0.13804953952E+04  0.13804953952E+04  0.00000000000E+00 0. -1.
          1   -1    0    0  501    0 -0.00000000000E+00 -0.00000000000E+00 -0.22594525082E+03  0.22594525082E+03  0.00000000000E+00 0. -1.
         25    2    1    2    0    0 -0.10893332908E+03 -0.86816804967E+02  0.78624742754E+03  0.80821660882E+03  0.12500176660E+03 0.  0.
          2    1    1    2  501    0  0.70867491800E+02  0.67938598981E+02 -0.20292145292E+03  0.22542176177E+03  0.00000000000E+00 0. -1.
          1    1    1    2  502    0  0.38065837275E+02  0.18878205986E+02  0.57122416980E+03  0.57280227548E+03  0.00000000000E+00 0. -1.
         22    1    3    3    0    0 -0.24465542927E+02  0.54309103033E+01  0.20659823831E+02  0.32479007038E+02  0.00000000000E+00 0.  1.
         22    1    3    3    0    0 -0.84467786149E+02 -0.92247715270E+02  0.76558760371E+03  0.77573760178E+03  0.00000000000E+00 0.  1.
</event>
<event>
 7    1  0.4915160E-006  0.1163475E+03  0.7818608E-02  0.1294028E+00
          2   -1    0    0  502    0  0.00000000000E+00  0.00000000000E+00  0.58346466443E+03  0.58346466443E+03  0.00000000000E+00 0. -1.
          1   -1    0    0  501    0 -0.00000000000E+00 -0.00000000000E+00 -0.39019168918E+03  0.39019168918E+03  0.00000000000E+00 0. -1.
         25    2    1    2    0    0  0.11808512485E+03 -0.59514828614E+02  0.22087045121E+03  0.28617194172E+03  0.12499804988E+03 0.  0.
          2    1    1    2  501    0 -0.11550028450E+03 -0.15974419095E+02 -0.34346195043E+03  0.36271422522E+03  0.00000000000E+00 0. -1.
          1    1    1    2  502    0 -0.25848403559E+01  0.75489247709E+02  0.31586447447E+03  0.32477018667E+03  0.00000000000E+00 0. -1.
         22    1    3    3    0    0 -0.23011852635E+02 -0.27914639121E+02  0.58211648880E+02  0.68537351162E+02  0.00000000000E+00 0.  1.
         22    1    3    3    0    0  0.14109697749E+03 -0.31600189492E+02  0.16265880233E+03  0.21763459056E+03  0.00000000000E+00 0.  1.
</event>
<event>
 7    1  0.4915160E-006  0.3906510E+02  0.7818608E-02  0.1572287E+00
          2   -1    0    0  502    0  0.00000000000E+00  0.00000000000E+00  0.15511099887E+03  0.15511099887E+03  0.00000000000E+00 0. -1.
          1   -1    0    0  501    0 -0.00000000000E+00 -0.00000000000E+00 -0.23828426688E+04  0.23828426688E+04  0.00000000000E+00 0. -1.
         25    2    1    2    0    0 -0.64072297789E+02  0.13922239037E+02 -0.30254968959E+03  0.33385312471E+03  0.12499002410E+03 0.  0.
          2    1    1    2  501    0  0.37295754213E+02 -0.10546795920E+02 -0.20631518269E+04  0.20635158515E+04  0.00000000000E+00 0. -1.
          1    1    1    2  502    0  0.26776543576E+02 -0.33754431169E+01  0.13796984662E+03  0.14058469148E+03  0.00000000000E+00 0. -1.
         22    1    3    3    0    0 -0.68904699420E+02 -0.32496071812E+02 -0.98440204304E+02  0.12447620700E+03  0.00000000000E+00 0.  1.
         22    1    3    3    0    0  0.48324016311E+01  0.46418310849E+02 -0.20410948528E+03  0.20937691771E+03  0.00000000000E+00 0.  1.
</event>
<event>
 7    1  0.4915160E-006  0.5459155E+02  0.7818608E-02  0.1454300E+00
          2   -1    0    0  502    0  0.00000000000E+00  0.00000000000E+00  0.18806571136E+02  0.18806571136E+02  0.00000000000E+00 0. -1.
          1   -1    0    0  501    0 -0.00000000000E+00 -0.00000000000E+00 -0.26278832107E+04  0.26278832107E+04  0.00000000000E+00 0. -1.
         25    2    1    2    0    0 -0.37775391380E+02  0.32651663681E+02 -0.47154799644E+03  0.49038296664E+03  0.12499931875E+03 0.  0.
          2    1    1    2  501    0  0.14213953206E+01 -0.55370401309E+02 -0.20956341248E+04  0.20963659716E+04  0.00000000000E+00 0. -1.
          1    1    1    2  502    0  0.36353996059E+02  0.22718737628E+02 -0.41894518301E+02  0.59940843609E+02  0.00000000000E+00 0. -1.
         22    1    3    3    0    0 -0.26834899378E+02 -0.25957727705E+02 -0.37538241012E+03  0.37723450171E+03  0.00000000000E+00 0.  1.
         22    1    3    3    0    0 -0.10940492002E+02  0.58609391386E+02 -0.96165586323E+02  0.11314846493E+03  0.00000000000E+00 0.  1.
</event>
<event>
 7    1  0.4915160E-006  0.1076016E+03  0.7818608E-02  0.1349910E+00
          2   -1    0    0  502    0  0.00000000000E+00  0.00000000000E+00  0.16840959932E+04  0.16840959932E+04  0.00000000000E+00 0. -1.
          1   -1    0    0  501    0 -0.00000000000E+00 -0.00000000000E+00 -0.39925414429E+02  0.39925414429E+02  0.00000000000E+00 0. -1.
         25    2    1    2    0    0 -0.25642492643E+02  0.99340863323E+02  0.10992898704E+04  0.11111210209E+04  0.12500223768E+03 0.  0.
          2    1    1    2  501    0  0.72016284920E+02 -0.81635177687E+02  0.57718115748E+02  0.12321537410E+03  0.00000000000E+00 0. -1.
          1    1    1    2  502    0 -0.46373792277E+02 -0.17705685636E+02  0.48716259270E+03  0.48968501268E+03  0.00000000000E+00 0. -1.
         22    1    3    3    0    0 -0.29938056845E+02  0.99714859899E+02  0.11014075196E+04  0.11063172532E+04  0.00000000000E+00 0.  1.
         22    1    3    3    0    0  0.42955642016E+01 -0.37399657622E+00 -0.21176492604E+01  0.48037676504E+01  0.00000000000E+00 0.  1.
</event>
<event>
 7    1  0.4915160E-006  0.1049445E+03  0.7818608E-02  0.1286051E+00
          2   -1    0    0  502    0  0.00000000000E+00  0.00000000000E+00  0.34612536553E+03  0.34612536553E+03  0.00000000000E+00 0. -1.
          1   -1    0    0  501    0 -0.00000000000E+00 -0.00000000000E+00 -0.39710506416E+03  0.39710506416E+03  0.00000000000E+00 0. -1.
         25    2    1    2    0    0 -0.10153158836E+03  0.60068705536E+01  0.29668881434E+01  0.16118040909E+03  0.12500230366E+03 0.  0.
          2    1    1    2  501    0  0.64458113181E+02 -0.88274801161E+02 -0.30036220587E+03  0.31963220049E+03  0.00000000000E+00 0. -1.
          1    1    1    2  502    0  0.37073475181E+02  0.82267930608E+02  0.24641561911E+03  0.26241782010E+03  0.00000000000E+00 0. -1.
         22    1    3    3    0    0 -0.47442518658E+02 -0.49141073550E+01 -0.60525608051E+02  0.77060302736E+02  0.00000000000E+00 0.  1.
         22    1    3    3    0    0 -0.54089069704E+02  0.10920977909E+02  0.63492496195E+02  0.84120106353E+02  0.00000000000E+00 0.  1.
</event>
<event>
 7    1  0.4915160E-006  0.1474861E+03  0.7818608E-02  0.1371114E+00
          2   -1    0    0  502    0  0.00000000000E+00  0.00000000000E+00  0.61262763424E+03  0.61262763424E+03  0.00000000000E+00 0. -1.
          1   -1    0    0  501    0 -0.00000000000E+00 -0.00000000000E+00 -0.76189214339E+03  0.76189214339E+03  0.00000000000E+00 0. -1.
         25    2    1    2    0    0 -0.16021739144E+03 -0.64607499947E+02  0.12237769341E+03  0.24585627826E+03  0.12500107257E+03 0.  0.
          2    1    1    2  501    0  0.26827651395E+02  0.14102116058E+02 -0.68794115167E+03  0.68860846693E+03  0.00000000000E+00 0. -1.
          1    1    1    2  502    0  0.13338974005E+03  0.50505383889E+02  0.41629894911E+03  0.44005503244E+03  0.00000000000E+00 0. -1.
         22    1    3    3    0    0 -0.10237402489E+03 -0.61321832156E+02  0.14126081979E+03  0.18492005645E+03  0.00000000000E+00 0. -1.
         22    1    3    3    0    0 -0.57843366547E+02 -0.32856677912E+01 -0.18883126373E+02  0.60936221805E+02  0.00000000000E+00 0. -1.
</event>
<event>
 7    1  0.4915160E-006  0.1243683E+03  0.7818608E-02  0.1315653E+00
          2   -1    0    0  502    0  0.00000000000E+00  0.00000000000E+00  0.21361256346E+04  0.21361256346E+04  0.00000000000E+00 0. -1.
          1   -1    0    0  501    0 -0.00000000000E+00 -0.00000000000E+00 -0.59338641434E+02  0.59338641434E+02  0.00000000000E+00 0. -1.
         25    2    1    2    0    0 -0.16908548314E+03  0.14758025065E+02  0.37520242158E+03  0.43035903492E+03  0.12499736743E+03 0.  0.
          2    1    1    2  501    0  0.53662230580E+02  0.21952117693E+02 -0.12267900248E+01  0.57991684540E+02  0.00000000000E+00 0. -1.
          1    1    1    2  502    0  0.11542325256E+03 -0.36710142758E+02  0.17028113616E+04  0.17071135565E+04  0.00000000000E+00 0. -1.
         22    1    3    3    0    0 -0.64720588880E+01  0.33043734171E+02  0.19719830623E+02  0.39021117795E+02  0.00000000000E+00 0.  1.
         22    1    3    3    0    0 -0.16261342425E+03 -0.18285709106E+02  0.35548259096E+03  0.39133791713E+03  0.00000000000E+00 0.  1.
</event>
<event>
 7    1  0.4915160E-006  0.1486795E+03  0.7818608E-02  0.1305194E+00
          2   -1    0    0  502    0  0.00000000000E+00  0.00000000000E+00  0.26972455812E+04  0.26972455812E+04  0.00000000000E+00 0. -1.
          1   -1    0    0  501    0 -0.00000000000E+00 -0.00000000000E+00 -0.69303935096E+03  0.69303935096E+03  0.00000000000E+00 0. -1.
         25    2    1    2    0    0 -0.13580419795E+03  0.64242454073E+02  0.35783926348E+03  0.40772957141E+03  0.12499836731E+03 0.  0.
          2    1    1    2  501    0  0.31702899984E+02  0.42875448467E+02 -0.66461525106E+03  0.66675093543E+03  0.00000000000E+00 0. -1.
          1    1    1    2  502    0  0.10410129797E+03 -0.10711790254E+03  0.23109822178E+04  0.23158044253E+04  0.00000000000E+00 0. -1.
         22    1    3    3    0    0 -0.14610134016E+03  0.17032079036E+02  0.26663539748E+03  0.30451622043E+03  0.00000000000E+00 0. -1.
         22    1    3    3    0    0  0.10297142210E+02  0.47210375037E+02  0.91203865999E+02  0.10321335099E+03  0.00000000000E+00 0. -1.
</event>
<event>
 7    1  0.4915160E-006  0.1307984E+03  0.7818608E-02  0.1310335E+00
          2   -1    0    0  502    0  0.00000000000E+00  0.00000000000E+00  0.52127469609E+03  0.52127469609E+03  0.00000000000E+00 0. -1.
          1   -1    0    0  501    0 -0.00000000000E+00 -0.00000000000E+00 -0.90030447305E+02  0.90030447305E+02  0.00000000000E+00 0. -1.
         25    2    1    2    0    0 -0.65830479405E+02 -0.87439323874E+02  0.14204479576E+03  0.21858958198E+03  0.12500157586E+03 0.  0.
          2    1    1    2  501    0  0.42849621641E+02  0.14051880929E+03  0.64062641093E+02  0.16026742595E+03  0.00000000000E+00 0. -1.
          1    1    1    2  502    0  0.22980857764E+02 -0.53079485411E+02  0.22513681193E+03  0.23244813547E+03  0.00000000000E+00 0. -1.
         22    1    3    3    0    0  0.25512665399E+02 -0.51849901135E+02  0.18084279034E+02  0.60550388039E+02  0.00000000000E+00 0.  1.
         22    1    3    3    0    0 -0.91343144804E+02 -0.35589422739E+02  0.12396051673E+03  0.15803919394E+03  0.00000000000E+00 0.  1.
</event>
<event>
 7    1  0.4915160E-006  0.9491891E+02  0.7818608E-02  0.1323758E+00
          2   -1    0    0  502    0  0.00000000000E+00  0.00000000000E+00  0.22595095716E+04  0.22595095716E+04  0.00000000000E+00 0. -1.
          1   -1    0    0  501    0 -0.00000000000E+00 -0.00000000000E+00 -0.51645554549E+03  0.51645554549E+03  0.00000000000E+00 0. -1.
         25    2    1    2    0    0  0.17105100563E+02  0.49318020201E+02  0.39751641473E+03  0.41996421314E+03  0.12500315500E+03 0.  0.
          2    1    1    2  501    0 -0.54119658176E+02  0.45427256665E+02 -0.50135484561E+03  0.50630944517E+03  0.00000000000E+00 0. -1.
          1    1    1    2  502    0  0.37014557613E+02 -0.94745276866E+02  0.18468924570E+04  0.18496914587E+04  0.00000000000E+00 0. -1.
         22    1    3    3    0    0  0.60188070414E+02  0.58770767714E+02  0.31901496811E+03  0.32991992488E+03  0.00000000000E+00 0. -1.
         22    1    3    3    0    0 -0.43082969851E+02 -0.94527475126E+01  0.78501446621E+02  0.90044288260E+02  0.00000000000E+00 0. -1.
</event>
<event>
 7    1  0.4915160E-006  0.1031181E+03  0.7818608E-02  0.1359066E+00
          2   -1    0    0  502    0  0.00000000000E+00  0.00000000000E+00  0.12060058441E+04  0.12060058441E+04  0.00000000000E+00 0. -1.
          1   -1    0    0  501    0 -0.00000000000E+00 -0.00000000000E+00 -0.46113994385E+03  0.46113994385E+03  0.00000000000E+00 0. -1.
         25    2    1    2    0    0  0.79343610788E+02  0.63761351980E+02 -0.42671119576E+03  0.45614611358E+03  0.12500365503E+03 0.  0.
          2    1    1    2  501    0 -0.68387107129E+02 -0.11042259018E+03  0.20146449944E+03  0.23970375337E+03  0.00000000000E+00 0. -1.
          1    1    1    2  502    0 -0.10956503659E+02  0.46661238202E+02  0.97011259652E+03  0.97129592095E+03  0.00000000000E+00 0. -1.
         22    1    3    3    0    0  0.28923472820E+02  0.15975112396E+02 -0.35416782366E+03  0.35570580374E+03  0.00000000000E+00 0. -1.
         22    1    3    3    0    0  0.50420137968E+02  0.47786239584E+02 -0.72543372093E+02  0.10044030984E+03  0.00000000000E+00 0. -1.
</event>
<event>
 7    1  0.4915160E-006  0.5700686E+02  0.7818608E-02  0.1425897E+00
          2   -1    0    0  502    0  0.00000000000E+00  0.00000000000E+00  0.18624418181E+03  0.18624418181E+03  0.00000000000E+00 0. -1.
          1   -1    0    0  501    0 -0.00000000000E+00 -0.00000000000E+00 -0.13753838508E+04  0.13753838508E+04  0.00000000000E+00 0. -1.
         25    2    1    2    0    0 -0.93752263614E+01 -0.87374557398E+01 -0.74679754396E+03  0.75729557871E+03  0.12500313540E+03 0.  0.
          2    1    1    2  501    0  0.15938288728E+02 -0.48192004006E+02 -0.61773399837E+03  0.61981593319E+03  0.00000000000E+00 0. -1.
          1    1    1    2  502    0 -0.65630623667E+01  0.56929459746E+02  0.17539187335E+03  0.18451652070E+03  0.00000000000E+00 0. -1.
         22    1    3    3    0    0 -0.58412127433E+02  0.23665291314E+02 -0.47869892996E+03  0.48282987499E+03  0.00000000000E+00 0.  1.
         22    1    3    3    0    0  0.49036901072E+02 -0.32402747054E+02 -0.26809861400E+03  0.27446570371E+03  0.00000000000E+00 0.  1.
</event>
<event>
 7    1  0.4915160E-006  0.6886691E+02  0.7818608E-02  0.1506879E+00
          2   -1    0    0  502    0  0.00000000000E+00  0.00000000000E+00  0.48463543643E+03  0.48463543643E+03  0.00000000000E+00 0. -1.
          1   -1    0    0  501    0 -0.00000000000E+00 -0.00000000000E+00 -0.24764096391E+04  0.24764096391E+04  0.00000000000E+00 0. -1.
         25    2    1    2    0    0 -0.76252552659E+02 -0.62246611282E+00 -0.14586437632E+04  0.14659786235E+04  0.12504741991E+03 0.  0.
          2    1    1    2  501    0  0.64149485231E+02  0.20701567230E+02 -0.10126916244E+04  0.10149325285E+04  0.00000000000E+00 0. -1.
          1    1    1    2  502    0  0.12103067428E+02 -0.20079101117E+02  0.47956118489E+03  0.48013392360E+03  0.00000000000E+00 0. -1.
         22    1    3    3    0    0  0.51525217328E+01 -0.39335712380E+02 -0.18793161113E+03  0.19207326001E+03  0.00000000000E+00 0. -1.
         22    1    3    3    0    0 -0.81405074391E+02  0.38713246267E+02 -0.12707121521E+04  0.12739053634E+04  0.00000000000E+00 0. -1.
</event>
<event>
 7    1  0.4915160E-006  0.1393576E+03  0.7818608E-02  0.1319978E+00
          2   -1    0    0  502    0  0.00000000000E+00  0.00000000000E+00  0.26138492453E+03  0.26138492453E+03  0.00000000000E+00 0. -1.
          1   -1    0    0  501    0 -0.00000000000E+00 -0.00000000000E+00 -0.39526786024E+03  0.39526786024E+03  0.00000000000E+00 0. -1.
         25    2    1    2    0    0  0.98940001666E+02 -0.10608366455E+03 -0.13781830037E+03  0.23592745281E+03  0.12500004503E+03 0.  0.
          2    1    1    2  501    0  0.25487813763E+02  0.42753696551E+02 -0.18172962104E+03  0.18842282872E+03  0.00000000000E+00 0. -1.
          1    1    1    2  502    0 -0.12442781543E+03  0.63329967995E+02  0.18566498570E+03  0.23230250325E+03  0.00000000000E+00 0. -1.
         22    1    3    3    0    0  0.83896872512E+02 -0.42061365972E+02 -0.12870339843E+02  0.94728503484E+02  0.00000000000E+00 0.  1.
         22    1    3    3    0    0  0.15043129155E+02 -0.64022298574E+02 -0.12494796053E+03  0.14119894932E+03  0.00000000000E+00 0.  1.
</event>
<event>
 7    1  0.4915160E-006  0.3716602E+02  0.7818608E-02  0.1555330E+00
          2   -1    0    0  502    0  0.00000000000E+00  0.00000000000E+00  0.76328747012E+02  0.76328747012E+02  0.00000000000E+00 0. -1.
          1   -1    0    0  501    0 -0.00000000000E+00 -0.00000000000E+00 -0.22660406889E+03  0.22660406889E+03  0.00000000000E+00 0. -1.
         25    2    1    2    0    0 -0.26413195123E+01  0.63712379930E+02 -0.40741657036E+02  0.14611388876E+03  0.12499256756E+03 0.  0.
          2    1    1    2  501    0 -0.53992547549E+01 -0.31104346368E+02 -0.11802762495E+03  0.12217672678E+03  0.00000000000E+00 0. -1.
          1    1    1    2  502    0  0.80405742672E+01 -0.32608033562E+02  0.84939601134E+01  0.34642200360E+02  0.00000000000E+00 0. -1.
         22    1    3    3    0    0  0.54838479064E+02  0.31875592161E+02 -0.48641240661E+02  0.79932987275E+02  0.00000000000E+00 0. -1.
         22    1    3    3    0    0 -0.57479798576E+02  0.31836787769E+02  0.78995836245E+01  0.66180901484E+02  0.00000000000E+00 0. -1.
</event>
<event>
 7    1  0.4915160E-006  0.1252639E+03  0.7818608E-02  0.1270909E+00
          2   -1    0    0  502    0  0.00000000000E+00  0.00000000000E+00  0.90436652895E+03  0.90436652895E+03  0.00000000000E+00 0. -1.
          1   -1    0    0  501    0 -0.00000000000E+00 -0.00000000000E+00 -0.29320152390E+03  0.29320152390E+03  0.00000000000E+00 0. -1.
         25    2    1    2    0    0  0.35822535299E+02  0.30277136054E+02  0.48701339630E+03  0.50498396406E+03  0.12500718689E+03 0.  0.
          2    1    1    2  501    0  0.10101845322E+03  0.74069638795E+02 -0.25062591520E+03  0.28018634630E+03  0.00000000000E+00 0. -1.
          1    1    1    2  502    0 -0.13684098852E+03 -0.10434677485E+03  0.37477752395E+03  0.41239774250E+03  0.00000000000E+00 0. -1.
         22    1    3    3    0    0  0.71770846018E+02  0.16328327858E+01  0.16827892893E+03  0.18295222984E+03  0.00000000000E+00 0.  1.
         22    1    3    3    0    0 -0.35948310718E+02  0.28644303268E+02  0.31873446738E+03  0.32203173422E+03  0.00000000000E+00 0.  1.
</event>
<event>
 7    1  0.4915160E-006  0.9306714E+02  0.7818608E-02  0.1316074E+00
          2   -1    0    0  502    0  0.00000000000E+00  0.00000000000E+00  0.40020926863E+04  0.40020926863E+04  0.00000000000E+00 0. -1.
          1   -1    0    0  501    0 -0.00000000000E+00 -0.00000000000E+00 -0.84349741955E+03  0.84349741955E+03  0.00000000000E+00 0. -1.
         25    2    1    2    0    0 -0.47480071540E+02 -0.11965563027E+03  0.17149212543E+03  0.24819529664E+03  0.12497811464E+03 0.  0.
          2    1    1    2  501    0  0.78871190706E+02  0.49141659093E+02 -0.80207012896E+03  0.80743548296E+03  0.00000000000E+00 0. -1.
          1    1    1    2  502    0 -0.31391119166E+02  0.70513971179E+02  0.37891732703E+04  0.37899593262E+04  0.00000000000E+00 0. -1.
         22    1    3    3    0    0 -0.27211609681E+02 -0.13972110179E+03  0.10828748270E+03  0.17885367454E+03  0.00000000000E+00 0.  1.
         22    1    3    3    0    0 -0.20268461859E+02  0.20065471513E+02  0.63204642729E+02  0.69341622102E+02  0.00000000000E+00 0.  1.
</event>
<event>
 7    1  0.4915160E-006  0.9878268E+02  0.7818608E-02  0.1304853E+00
          2   -1    0    0  502    0  0.00000000000E+00  0.00000000000E+00  0.65032750767E+03  0.65032750767E+03  0.00000000000E+00 0. -1.
          1   -1    0    0  501    0 -0.00000000000E+00 -0.00000000000E+00 -0.47475389213E+04  0.47475389213E+04  0.00000000000E+00 0. -1.
         25    2    1    2    0    0 -0.33818682096E+02  0.46443804566E+01  0.11668535503E+03  0.17437356818E+03  0.12500158268E+03 0.  0.
          2    1    1    2  501    0 -0.71384581181E+02  0.37226271575E+02 -0.47119971174E+04  0.47126848386E+04  0.00000000000E+00 0. -1.
          1    1    1    2  502    0  0.10520326328E+03 -0.41870652031E+02  0.49810034874E+03  0.51080802217E+03  0.00000000000E+00 0. -1.
         22    1    3    3    0    0 -0.44803471400E+02 -0.42228848823E+02  0.10960367172E+03  0.12571233662E+03  0.00000000000E+00 0. -1.
         22    1    3    3    0    0  0.10984789304E+02  0.46873229280E+02  0.70816833090E+01  0.48661231567E+02  0.00000000000E+00 0. -1.
</event>
<event>
 7    1  0.4915160E-006  0.5184100E+02  0.7818608E-02  0.1539508E+00
          2   -1    0    0  502    0  0.00000000000E+00  0.00000000000E+00  0.12157000155E+04  0.12157000155E+04  0.00000000000E+00 0. -1.
          1   -1    0    0  501    0 -0.00000000000E+00 -0.00000000000E+00 -0.19778672122E+03  0.19778672122E+03  0.00000000000E+00 0. -1.
         25    2    1    2    0    0  0.15484040025E+02  0.64842869247E+02  0.86512904744E+01  0.14194121725E+03  0.12501244394E+03 0.  0.
          2    1    1    2  501    0 -0.21172075425E+02 -0.13411984498E+02 -0.12935134684E+03  0.13175700753E+03  0.00000000000E+00 0. -1.
          1    1    1    2  502    0  0.56880353999E+01 -0.51430884750E+02  0.11386133507E+04  0.11397885119E+04  0.00000000000E+00 0. -1.
         22    1    3    3    0    0  0.28532140061E+02  0.96536394436E+02  0.25361663762E+02  0.10381027144E+03  0.00000000000E+00 0. -1.
         22    1    3    3    0    0 -0.13048100036E+02 -0.31693525189E+02 -0.16710373287E+02  0.38130945816E+02  0.00000000000E+00 0. -1.
</event>
<event>
 7    1  0.4915160E-006  0.9544730E+02  0.7818608E-02  0.1379772E+00
          2   -1    0    0  502    0  0.00000000000E+00  0.00000000000E+00  0.38337476635E+03  0.38337476635E+03  0.00000000000E+00 0. -1.
          1   -1    0    0  501    0 -0.00000000000E+00 -0.00000000000E+00 -0.13606670168E+04  0.13606670168E+04  0.00000000000E+00 0. -1.
         25    2    1    2    0    0 -0.20952298912E+02  0.48546917177E+02  0.10762826515E+03  0.17321832235E+03  0.12499976696E+03 0.  0.
          2    1    1    2  501    0  0.46142256845E+02 -0.84157149087E+02 -0.13241632241E+04  0.13276369148E+04  0.00000000000E+00 0. -1.
          1    1    1    2  502    0 -0.25189957933E+02  0.35610231910E+02  0.23924270846E+03  0.24318654599E+03  0.00000000000E+00 0. -1.
         22    1    3    3    0    0 -0.53034682740E+02 -0.18983184594E+02  0.68974779101E+02  0.89053686182E+02  0.00000000000E+00 0.  1.
         22    1    3    3    0    0  0.32082383828E+02  0.67530101771E+02  0.38653486049E+02  0.84164636166E+02  0.00000000000E+00 0.  1.
</event>
<event>
 7    1  0.4915160E-006  0.1448136E+03  0.7818608E-02  0.1251720E+00
          2   -1    0    0  502    0  0.00000000000E+00  0.00000000000E+00  0.22559730094E+04  0.22559730094E+04  0.00000000000E+00 0. -1.
          1   -1    0    0  501    0 -0.00000000000E+00 -0.00000000000E+00 -0.76362224547E+02  0.76362224547E+02  0.00000000000E+00 0. -1.
         25    2    1    2    0    0  0.64796976496E+02 -0.27503495306E+02  0.13282242884E+04  0.13359491316E+04  0.12500092511E+03 0.  0.
          2    1    1    2  501    0 -0.14955079773E+03 -0.61701615448E+01  0.99355199292E+01  0.15000742166E+03  0.00000000000E+00 0. -1.
          1    1    1    2  502    0  0.84753821236E+02  0.33673656851E+02  0.84145097648E+03  0.84637868074E+03  0.00000000000E+00 0. -1.
         22    1    3    3    0    0  0.49735636289E+02  0.21523418401E+02  0.22135976689E+03  0.22789698869E+03  0.00000000000E+00 0. -1.
         22    1    3    3    0    0  0.15061340207E+02 -0.49026913707E+02  0.11068645216E+04  0.11080521429E+04  0.00000000000E+00 0. -1.
</event>
<event>
 7    1  0.4915160E-006  0.2700649E+03  0.7818608E-02  0.1201579E+00
          2   -1    0    0  502    0  0.00000000000E+00  0.00000000000E+00  0.45106785658E+03  0.45106785658E+03  0.00000000000E+00 0. -1.
          1   -1    0    0  501    0 -0.00000000000E+00 -0.00000000000E+00 -0.27102409040E+03  0.27102409040E+03  0.00000000000E+00 0. -1.
         25    2    1    2    0    0  0.10694645520E+03 -0.22058472125E+03  0.11084764969E+03  0.29665845198E+03  0.12499548856E+03 0.  0.
          2    1    1    2  501    0 -0.39530150508E+02 -0.72208035216E+02 -0.56397120238E+02  0.99786112862E+02  0.00000000000E+00 0. -1.
          1    1    1    2  502    0 -0.67416304690E+02  0.29279275647E+03  0.12559323673E+03  0.32564738213E+03  0.00000000000E+00 0. -1.
         22    1    3    3    0    0 -0.26290059129E+02 -0.36509570774E+02  0.35328447639E+02  0.57203279449E+02  0.00000000000E+00 0. -1.
         22    1    3    3    0    0  0.13323651433E+03 -0.18407515048E+03  0.75519202052E+02  0.23945517253E+03  0.00000000000E+00 0. -1.
</event>
<event>
 7    1  0.4915160E-006  0.4446991E+02  0.7818608E-02  0.1576099E+00
          2   -1    0    0  502    0  0.00000000000E+00  0.00000000000E+00  0.68058218868E+03  0.68058218868E+03  0.00000000000E+00 0. -1.
          1   -1    0    0  501    0 -0.00000000000E+00 -0.00000000000E+00 -0.52861944408E+03  0.52861944408E+03  0.00000000000E+00 0. -1.
         25    2    1    2    0    0 -0.16636596278E+02 -0.48391421893E+02 -0.13928832539E+03  0.19402294009E+03  0.12500063057E+03 0.  0.
          2    1    1    2  501    0  0.22740794675E+02  0.43479910923E+01 -0.36083569402E+03  0.36157771896E+03  0.00000000000E+00 0. -1.
          1    1    1    2  502    0 -0.61041983970E+01  0.44043430800E+02  0.65208676401E+03  0.65360097371E+03  0.00000000000E+00 0. -1.
         22    1    3    3    0    0 -0.38708733336E+02 -0.84123986486E+02 -0.10311652826E+03  0.13859375721E+03  0.00000000000E+00 0. -1.
         22    1    3    3    0    0  0.22072137058E+02  0.35732564594E+02 -0.36171797131E+02  0.55429182877E+02  0.00000000000E+00 0. -1.
</event>
<event>
 7    1  0.4915160E-006  0.3048087E+03  0.7818608E-02  0.1151048E+00
          2   -1    0    0  502    0  0.00000000000E+00  0.00000000000E+00  0.28691442121E+04  0.28691442121E+04  0.00000000000E+00 0. -1.
          1   -1    0    0  501    0 -0.00000000000E+00 -0.00000000000E+00 -0.12806878209E+03  0.12806878209E+03  0.00000000000E+00 0. -1.
         25    2    1    2    0    0 -0.14851862328E+03  0.12596267718E+03  0.13046081181E+04  0.13249722797E+04  0.12499929120E+03 0.  0.
          2    1    1    2  501    0  0.24641102561E+03 -0.21029943235E+03  0.11392190834E+03  0.34339837796E+03  0.00000000000E+00 0. -1.
          1    1    1    2  502    0 -0.97892402328E+02  0.84336755163E+02  0.13225454037E+04  0.13288423366E+04  0.00000000000E+00 0. -1.
         22    1    3    3    0    0 -0.29188411436E+02  0.33702322032E+01  0.44637751044E+02  0.53440159482E+02  0.00000000000E+00 0. -1.
         22    1    3    3    0    0 -0.11933021185E+03  0.12259244498E+03  0.12599703670E+04  0.12715321202E+04  0.00000000000E+00 0. -1.
</event>
<event>
 7    1  0.4915160E-006  0.9888685E+02  0.7818608E-02  0.1293284E+00
          2   -1    0    0  502    0  0.00000000000E+00  0.00000000000E+00  0.14684949611E+04  0.14684949611E+04  0.00000000000E+00 0. -1.
          1   -1    0    0  501    0 -0.00000000000E+00 -0.00000000000E+00 -0.14720843674E+04  0.14720843674E+04  0.00000000000E+00 0. -1.
         25    2    1    2    0    0  0.29909123183E+02  0.13657521573E+03 -0.87450463591E+02  0.20692652946E+03  0.12499463912E+03 0.  0.
          2    1    1    2  501    0  0.47827793267E+02 -0.75634674849E+02 -0.13216494968E+04  0.13246756185E+04  0.00000000000E+00 0. -1.
          1    1    1    2  502    0 -0.77736916450E+02 -0.60940540885E+02  0.14055105541E+04  0.14089771806E+04  0.00000000000E+00 0. -1.
         22    1    3    3    0    0  0.78504711063E+01  0.12375357383E+03 -0.11518171871E+03  0.16924362693E+03  0.00000000000E+00 0.  1.
         22    1    3    3    0    0  0.22058652076E+02  0.12821641905E+02  0.27731255115E+02  0.37682902527E+02  0.00000000000E+00 0.  1.
</event>
<event>
 7    1  0.4915160E-006  0.1523002E+03  0.7818608E-02  0.1316152E+00
          2   -1    0    0  502    0  0.00000000000E+00  0.00000000000E+00  0.19807447969E+03  0.19807447969E+03  0.00000000000E+00 0. -1.
          1   -1    0    0  501    0 -0.00000000000E+00 -0.00000000000E+00 -0.11658706404E+04  0.11658706404E+04  0.00000000000E+00 0. -1.
         25    2    1    2    0    0 -0.77581371750E+02 -0.82926399749E+02 -0.18701438535E+03  0.25198071335E+03  0.12499697018E+03 0.  0.
          2    1    1    2  501    0  0.11365854183E+03  0.11325788422E+03 -0.93604853954E+03  0.94970125873E+03  0.00000000000E+00 0. -1.
          1    1    1    2  502    0 -0.36077170084E+02 -0.30331484475E+02  0.15526676416E+03  0.16226314802E+03  0.00000000000E+00 0. -1.
         22    1    3    3    0    0  0.27703933761E+02 -0.41871518808E+02 -0.29863821386E+02  0.58417290770E+02  0.00000000000E+00 0.  1.
         22    1    3    3    0    0 -0.10528530551E+03 -0.41054880941E+02 -0.15715056396E+03  0.19356342258E+03  0.00000000000E+00 0.  1.
</event>
<event>
 7    1  0.4915160E-006  0.3842642E+02  0.7818608E-02  0.1552924E+00
          2   -1    0    0  502    0  0.00000000000E+00  0.00000000000E+00  0.13484863877E+04  0.13484863877E+04  0.00000000000E+00 0. -1.
          1   -1    0    0  501    0 -0.00000000000E+00 -0.00000000000E+00 -0.93300219569E+03  0.93300219569E+03  0.00000000000E+00 0. -1.
         25    2    1    2    0    0  0.22635413020E+02  0.15482970325E+02  0.84540318160E+03  0.85503492917E+03  0.12500442532E+03 0.  0.
          2    1    1    2  501    0 -0.17458114798E+01 -0.38397024549E+02 -0.92730542178E+03  0.92810167795E+03  0.00000000000E+00 0. -1.
          1    1    1    2  502    0 -0.20889601540E+02  0.22914054224E+02  0.49738643220E+03  0.49835197628E+03  0.00000000000E+00 0. -1.
         22    1    3    3    0    0 -0.23943324608E+02  0.58344415839E+02  0.48960021409E+03  0.49364534161E+03  0.00000000000E+00 0.  1.
         22    1    3    3    0    0  0.46578737628E+02 -0.42861445514E+02  0.35580296751E+03  0.36138958757E+03  0.00000000000E+00 0.  1.
</event>
<event>
 7    1  0.5385820E-006  0.5487088E+02  0.7818608E-02  0.1509622E+00
          2   -1    0    0  502    0  0.00000000000E+00  0.00000000000E+00  0.74952320766E+03  0.74952320766E+03  0.00000000000E+00 0. -1.
          1   -1    0    0  501    0 -0.00000000000E+00 -0.00000000000E+00 -0.24567253419E+04  0.24567253419E+04  0.00000000000E+00 0. -1.
         25    2    1    2    0    0 -0.54185781012E+02  0.62190133739E+02 -0.62375561974E+03  0.64148228682E+03  0.12499895820E+03 0.  0.
          2    1    1    2  501    0  0.34307569510E+02 -0.41237735379E+02 -0.18234302431E+04  0.18242191238E+04  0.00000000000E+00 0. -1.
          1    1    1    2  502    0  0.19878211502E+02 -0.20952398360E+02  0.73998372864E+03  0.74054713891E+03  0.00000000000E+00 0. -1.
         22    1    3    3    0    0  0.30845499582E+02  0.21694865841E+02 -0.34902944054E+03  0.35106076741E+03  0.00000000000E+00 0.  1.
         22    1    3    3    0    0 -0.85031280594E+02  0.40495267898E+02 -0.27472617920E+03  0.29042151942E+03  0.00000000000E+00 0.  1.
</event>
<event>
 7    1  0.4915160E-006  0.1594090E+03  0.7818608E-02  0.1242541E+00
          2   -1    0    0  502    0  0.00000000000E+00  0.00000000000E+00  0.40767659491E+03  0.40767659491E+03  0.00000000000E+00 0. -1.
          1   -1    0    0  501    0 -0.00000000000E+00 -0.00000000000E+00 -0.49792741661E+03  0.49792741661E+03  0.00000000000E+00 0. -1.
         25    2    1    2    0    0  0.88044631951E+02  0.86312808317E+00  0.41134647112E+01  0.15294957054E+03  0.12499619326E+03 0.  0.
          2    1    1    2  501    0 -0.17409590538E+03 -0.29975425303E+02 -0.39814753819E+03  0.43557935276E+03  0.00000000000E+00 0. -1.
          1    1    1    2  502    0  0.86051273426E+02  0.29112297220E+02  0.30378325177E+03  0.31707508821E+03  0.00000000000E+00 0. -1.
         22    1    3    3    0    0  0.22024441968E+01 -0.45802965737E+02 -0.23347107929E+02  0.51457262649E+02  0.00000000000E+00 0. -1.
         22    1    3    3    0    0  0.85842187755E+02  0.46666093820E+02  0.27460572640E+02  0.10149230789E+03  0.00000000000E+00 0. -1.
</event>
<event>
 7    1  0.4915160E-006  0.9523211E+02  0.7818608E-02  0.1299311E+00
          2   -1    0    0  502    0  0.00000000000E+00  0.00000000000E+00  0.45871350567E+02  0.45871350567E+02  0.00000000000E+00 0. -1.
          1   -1    0    0  501    0 -0.00000000000E+00 -0.00000000000E+00 -0.12328085114E+04  0.12328085114E+04  0.00000000000E+00 0. -1.
         25    2    1    2    0    0 -0.40469377835E+02  0.18256302611E+02 -0.65828921554E+03  0.67152088250E+03  0.12499816482E+03 0.  0.
          2    1    1    2  501    0  0.58022947426E+02  0.75514850747E+02 -0.49790101165E+03  0.50692659479E+03  0.00000000000E+00 0. -1.
          1    1    1    2  502    0 -0.17553569591E+02 -0.93771153359E+02 -0.30746933639E+02  0.10023238467E+03  0.00000000000E+00 0. -1.
         22    1    3    3    0    0  0.10728560786E+02 -0.30621101972E+02 -0.53257509562E+02  0.62362779182E+02  0.00000000000E+00 0.  1.
         22    1    3    3    0    0 -0.51197938621E+02  0.48877404583E+02 -0.60503170598E+03  0.60915810332E+03  0.00000000000E+00 0.  1.
</event>
<event>
 7    1  0.4915160E-006  0.4814021E+02  0.7818608E-02  0.1466742E+00
          2   -1    0    0  502    0  0.00000000000E+00  0.00000000000E+00  0.44842873443E+03  0.44842873443E+03  0.00000000000E+00 0. -1.
          1   -1    0    0  501    0 -0.00000000000E+00 -0.00000000000E+00 -0.24775048245E+03  0.24775048245E+03  0.00000000000E+00 0. -1.
         25    2    1    2    0    0 -0.83913471866E+02 -0.34740231070E+02  0.17133028701E+02  0.15545728262E+03  0.12500028653E+03 0.  0.
          2    1    1    2  501    0  0.38356878674E+02  0.22394859639E+02 -0.17425264923E+03  0.17982426322E+03  0.00000000000E+00 0. -1.
          1    1    1    2  502    0  0.45556593193E+02  0.12345371432E+02  0.35779787251E+03  0.36089767102E+03  0.00000000000E+00 0. -1.
         22    1    3    3    0    0 -0.26121050979E+02 -0.61428933291E+02  0.50390158535E+02  0.83636064152E+02  0.00000000000E+00 0.  1.
         22    1    3    3    0    0 -0.57792420887E+02  0.26688702221E+02 -0.33257129834E+02  0.71821218473E+02  0.00000000000E+00 0.  1.
</event>
<event>
 7    1  0.4915160E-006  0.9585080E+02  0.7818608E-02  0.1343537E+00
          2   -1    0    0  502    0  0.00000000000E+00  0.00000000000E+00  0.25526275454E+03  0.25526275454E+03  0.00000000000E+00 0. -1.
          1   -1    0    0  501    0 -0.00000000000E+00 -0.00000000000E+00 -0.13870480420E+04  0.13870480420E+04  0.00000000000E+00 0. -1.
         25    2    1    2    0    0 -0.12924297991E+03 -0.33561417093E+02 -0.57918039176E+03  0.60737641950E+03  0.12500428867E+03 0.  0.
          2    1    1    2  501    0  0.34842952782E+02  0.47431496535E+02 -0.78318485020E+03  0.78539307853E+03  0.00000000000E+00 0. -1.
          1    1    1    2  502    0  0.94400027131E+02 -0.13870079442E+02  0.23057995452E+03  0.24954129849E+03  0.00000000000E+00 0. -1.
         22    1    3    3    0    0 -0.15423449931E+03 -0.30020634747E+02 -0.48162260518E+03  0.50660621108E+03  0.00000000000E+00 0.  1.
         22    1    3    3    0    0  0.24991519392E+02 -0.35407823463E+01 -0.97557786580E+02  0.10077020841E+03  0.00000000000E+00 0.  1.
</event>
<event>
 7    1  0.4915160E-006  0.4356988E+02  0.7818608E-02  0.1489308E+00
          2   -1    0    0  502    0  0.00000000000E+00  0.00000000000E+00  0.53498874827E+03  0.53498874827E+03  0.00000000000E+00 0. -1.
          1   -1    0    0  501    0 -0.00000000000E+00 -0.00000000000E+00 -0.79684058794E+03  0.79684058794E+03  0.00000000000E+00 0. -1.
         25    2    1    2    0    0  0.12625777748E+02  0.23019592470E+02  0.21999409311E+03  0.25438350967E+03  0.12499702832E+03 0.  0.
          2    1    1    2  501    0  0.34248443467E+02 -0.24008974999E+02 -0.77723475742E+03  0.77835933533E+03  0.00000000000E+00 0. -1.
          1    1    1    2  502    0 -0.46874221215E+02  0.98938252935E+00  0.29538882464E+03  0.29908649120E+03  0.00000000000E+00 0. -1.
         22    1    3    3    0    0 -0.20500558852E+02  0.50669089121E+01  0.21539256221E+03  0.21642528118E+03  0.00000000000E+00 0. -1.
         22    1    3    3    0    0  0.33126336601E+02  0.17952683558E+02  0.46015308981E+01  0.37958228490E+02  0.00000000000E+00 0. -1.
</event>
<event>
 7    1  0.4915160E-006  0.1333957E+03  0.7818608E-02  0.1381027E+00
          2   -1    0    0  502    0  0.00000000000E+00  0.00000000000E+00  0.36072844690E+03  0.36072844690E+03  0.00000000000E+00 0. -1.
          1   -1    0    0  501    0 -0.00000000000E+00 -0.00000000000E+00 -0.20855772993E+03  0.20855772993E+03  0.00000000000E+00 0. -1.
         25    2    1    2    0    0  0.90736581069E+02 -0.63097854674E+02  0.45153480197E+02  0.17285347145E+03  0.12500007764E+03 0.  0.
          2    1    1    2  501    0  0.29165000157E+02 -0.10186450916E+02 -0.12303662142E+03  0.12685571027E+03  0.00000000000E+00 0. -1.
          1    1    1    2  502    0 -0.11990158123E+03  0.73284305590E+02  0.23005385819E+03  0.26957699511E+03  0.00000000000E+00 0. -1.
         22    1    3    3    0    0  0.10634632699E+03 -0.49983225734E+01  0.33172916985E+02  0.11151218280E+03  0.00000000000E+00 0.  1.
         22    1    3    3    0    0 -0.15609745919E+02 -0.58099532101E+02  0.11980563212E+02  0.61341288647E+02  0.00000000000E+00 0.  1.
</event>
<event>
 7    1  0.4915160E-006  0.2874207E+02  0.7818608E-02  0.1614593E+00
          2   -1    0    0  502    0  0.00000000000E+00  0.00000000000E+00  0.22957652725E+04  0.22957652725E+04  0.00000000000E+00 0. -1.
          1   -1    0    0  501    0 -0.00000000000E+00 -0.00000000000E+00 -0.41175723570E+03  0.41175723570E+03  0.00000000000E+00 0. -1.
         25    2    1    2    0    0 -0.17623203797E+01 -0.41920694222E+02  0.30488066621E+03  0.33218986577E+03  0.12504973376E+03 0.  0.
          2    1    1    2  501    0  0.20248863100E+02  0.20393080492E+02 -0.39748202460E+03  0.39851957803E+03  0.00000000000E+00 0. -1.
          1    1    1    2  502    0 -0.18486542720E+02  0.21527613731E+02  0.19766093952E+04  0.19768130644E+04  0.00000000000E+00 0. -1.
         22    1    3    3    0    0  0.37568788375E+02 -0.41230237066E+02  0.51968993359E+02  0.76237278147E+02  0.00000000000E+00 0. -1.
         22    1    3    3    0    0 -0.39331108755E+02 -0.69045715673E+00  0.25291167285E+03  0.25595258762E+03  0.00000000000E+00 0. -1.
</event>
<event>
 7    1  0.4915160E-006  0.2278716E+03  0.7818608E-02  0.1165894E+00
          2   -1    0    0  502    0  0.00000000000E+00  0.00000000000E+00  0.11200280689E+03  0.11200280689E+03  0.00000000000E+00 0. -1.
          1   -1    0    0  501    0 -0.00000000000E+00 -0.00000000000E+00 -0.14557627496E+04  0.14557627496E+04  0.00000000000E+00 0. -1.
         25    2    1    2    0    0 -0.12309603913E+03 -0.26161477751E+03 -0.10176735203E+04  0.10653074150E+04  0.12500227124E+03 0.  0.
          2    1    1    2  501    0  0.13274606355E+03  0.11659436484E+03 -0.30922763382E+03  0.35614251757E+03  0.00000000000E+00 0. -1.
          1    1    1    2  502    0 -0.96500244124E+01  0.14502041266E+03 -0.16858788597E+02  0.14631562395E+03  0.00000000000E+00 0. -1.
         22    1    3    3    0    0 -0.72997137760E+02 -0.25391601060E+03 -0.86375566761E+03  0.90325842143E+03  0.00000000000E+00 0.  1.
         22    1    3    3    0    0 -0.50098901373E+02 -0.76987669051E+01 -0.15391785272E+03  0.16204899357E+03  0.00000000000E+00 0.  1.
</event>
<event>
 7    1  0.4915160E-006  0.4551070E+02  0.7818608E-02  0.1511575E+00
          2   -1    0    0  502    0  0.00000000000E+00  0.00000000000E+00  0.21347961053E+04  0.21347961053E+04  0.00000000000E+00 0. -1.
          1   -1    0    0  501    0 -0.00000000000E+00 -0.00000000000E+00 -0.14746976817E+02  0.14746976817E+02  0.00000000000E+00 0. -1.
         25    2    1    2    0    0 -0.89798185310E+01  0.23535162754E+02  0.87320145889E+03  0.88246163557E+03  0.12499283751E+03 0.  0.
          2    1    1    2  501    0  0.43098884557E+02 -0.19440105605E+02  0.46745520204E+02  0.66487406441E+02  0.00000000000E+00 0. -1.
          1    1    1    2  502    0 -0.34119066026E+02 -0.40950571491E+01  0.12001021494E+04  0.12005940401E+04  0.00000000000E+00 0. -1.
         22    1    3    3    0    0 -0.41921530832E+02  0.54551614504E+02  0.31480719309E+03  0.32223727626E+03  0.00000000000E+00 0. -1.
         22    1    3    3    0    0  0.32941712301E+02 -0.31016451750E+02  0.55839426580E+03  0.56022435931E+03  0.00000000000E+00 0. -1.
</event>
<event>
 7    1  0.4915160E-006  0.1278856E+03  0.7818608E-02  0.1440460E+00
          2   -1    0    0  502    0  0.00000000000E+00  0.00000000000E+00  0.10520332802E+04  0.10520332802E+04  0.00000000000E+00 0. -1.
          1   -1    0    0  501    0 -0.00000000000E+00 -0.00000000000E+00 -0.23615783917E+03  0.23615783917E+03  0.00000000000E+00 0. -1.
         25    2    1    2    0    0  0.96403406567E+02  0.85072010941E+02  0.10840298798E+03  0.20954163855E+03  0.12500250654E+03 0.  0.
          2    1    1    2  501    0  0.11674341460E+02 -0.16572975525E+02 -0.18043461965E+03  0.18156983708E+03  0.00000000000E+00 0. -1.
          1    1    1    2  502    0 -0.10807774803E+03 -0.68499035416E+02  0.88790707275E+03  0.89707964380E+03  0.00000000000E+00 0. -1.
         22    1    3    3    0    0  0.82920510490E+02 -0.80534881668E+01  0.66219905916E+02  0.10642248668E+03  0.00000000000E+00 0.  1.
         22    1    3    3    0    0  0.13482896077E+02  0.93125499108E+02  0.42183082061E+02  0.10311915187E+03  0.00000000000E+00 0.  1.
</event>
<event>
 7    1  0.4915160E-006  0.1620168E+03  0.7818608E-02  0.1311215E+00
          2   -1    0    0  502    0  0.00000000000E+00  0.00000000000E+00  0.26416526518E+03  0.26416526518E+03  0.00000000000E+00 0. -1.
          1   -1    0    0  501    0 -0.00000000000E+00 -0.00000000000E+00 -0.78033531912E+03  0.78033531912E+03  0.00000000000E+00 0. -1.
         25    2    1    2    0    0 -0.75596506625E+02  0.10875279507E+03 -0.14837933627E+03  0.23490516191E+03  0.12498802108E+03 0.  0.
          2    1    1    2  501    0  0.10065616981E+02  0.45217828400E+02 -0.55590121723E+03  0.55782804874E+03  0.00000000000E+00 0. -1.
          1    1    1    2  502    0  0.65530889643E+02 -0.15397062347E+03  0.18811049955E+03  0.25176737364E+03  0.00000000000E+00 0. -1.
         22    1    3    3    0    0 -0.84467824949E+02  0.21709394774E+02 -0.10722656820E+03  0.13821594771E+03  0.00000000000E+00 0. -1.
         22    1    3    3    0    0  0.88713183242E+01  0.87043400296E+02 -0.41152768069E+02  0.96689214205E+02  0.00000000000E+00 0. -1.
</event>
<event>
 7    1  0.4915160E-006  0.1519844E+03  0.7818608E-02  0.1257584E+00
          2   -1    0    0  502    0  0.00000000000E+00  0.00000000000E+00  0.48302836444E+03  0.48302836444E+03  0.00000000000E+00 0. -1.
          1   -1    0    0  501    0 -0.00000000000E+00 -0.00000000000E+00 -0.12697332037E+04  0.12697332037E+04  0.00000000000E+00 0. -1.
         25    2    1    2    0    0 -0.25389994318E+02 -0.14966891333E+03 -0.21481327038E+03  0.29123166397E+03  0.12500282214E+03 0.  0.
          2    1    1    2  501    0 -0.74686419729E+02  0.33821678100E+02 -0.10018147408E+04  0.10051640374E+04  0.00000000000E+00 0. -1.
          1    1    1    2  502    0  0.10007641405E+03  0.11584723523E+03  0.42992317194E+03  0.45636586675E+03  0.00000000000E+00 0. -1.
         22    1    3    3    0    0 -0.21414061585E+02 -0.16246224342E+02 -0.13075119481E+03  0.13348549278E+03  0.00000000000E+00 0.  1.
         22    1    3    3    0    0 -0.39759327327E+01 -0.13342268899E+03 -0.84062075573E+02  0.15774617120E+03  0.00000000000E+00 0.  1.
</event>
<event>
 7    1  0.4915160E-006  0.1394956E+03  0.7818608E-02  0.1352933E+00
          2   -1    0    0  502    0  0.00000000000E+00  0.00000000000E+00  0.93122508713E+02  0.93122508713E+02  0.00000000000E+00 0. -1.
          1   -1    0    0  501    0 -0.00000000000E+00 -0.00000000000E+00 -0.17238111725E+04  0.17238111725E+04  0.00000000000E+00 0. -1.
         25    2    1    2    0    0  0.13795650110E+03 -0.67209998961E+02 -0.21726627398E+03  0.29390067115E+03  0.12499516206E+03 0.  0.
          2    1    1    2  501    0 -0.13534794186E+03  0.29984540280E+02 -0.14581826747E+04  0.14647576082E+04  0.00000000000E+00 0. -1.
          1    1    1    2  502    0 -0.26085592354E+01  0.37225458682E+02  0.44760284901E+02  0.58275401841E+02  0.00000000000E+00 0. -1.
         22    1    3    3    0    0  0.57949706289E+01  0.17893875171E+02  0.69671084281E+01  0.20057742971E+02  0.00000000000E+00 0.  1.
         22    1    3    3    0    0  0.13216153047E+03 -0.85103874132E+02 -0.22423338240E+03  0.27384292818E+03  0.00000000000E+00 0.  1.
</event>
<event>
 7    1  0.4915160E-006  0.4214972E+03  0.7818608E-02  0.1227583E+00
          2   -1    0    0  502    0  0.00000000000E+00  0.00000000000E+00  0.13831441388E+04  0.13831441388E+04  0.00000000000E+00 0. -1.
          1   -1    0    0  501    0 -0.00000000000E+00 -0.00000000000E+00 -0.21098577784E+04  0.21098577784E+04  0.00000000000E+00 0. -1.
         25    2    1    2    0    0  0.32992290424E+03  0.31049374530E+03 -0.26564194986E+03  0.53985761454E+03  0.12500043936E+03 0.  0.
          2    1    1    2  501    0 -0.29307248667E+03 -0.29482795309E+03 -0.16814666089E+04  0.17320926538E+04  0.00000000000E+00 0. -1.
          1    1    1    2  502    0 -0.36850417565E+02 -0.15665792212E+02  0.12203949192E+04  0.12210516489E+04  0.00000000000E+00 0. -1.
         22    1    3    3    0    0  0.20954262418E+03  0.11138619247E+03 -0.13487176305E+03  0.27295675058E+03  0.00000000000E+00 0. -1.
         22    1    3    3    0    0  0.12038028005E+03  0.19910755283E+03 -0.13077018682E+03  0.26690086396E+03  0.00000000000E+00 0. -1.
</event>
<event>
 7    1  0.4915160E-006  0.6030976E+02  0.7818608E-02  0.1530162E+00
          2   -1    0    0  502    0  0.00000000000E+00  0.00000000000E+00  0.33503064677E+03  0.33503064677E+03  0.00000000000E+00 0. -1.
          1   -1    0    0  501    0 -0.00000000000E+00 -0.00000000000E+00 -0.47209789235E+02  0.47209789235E+02  0.00000000000E+00 0. -1.
         25    2    1    2    0    0 -0.43247230890E+02 -0.61635329756E+02  0.14730605379E+03  0.20734849180E+03  0.12500034686E+03 0.  0.
          2    1    1    2  501    0  0.22624410361E+02  0.51670151030E+02  0.33823983523E+02  0.65770284422E+02  0.00000000000E+00 0. -1.
          1    1    1    2  502    0  0.20622820530E+02  0.99651787259E+01  0.10669082022E+03  0.10912165977E+03  0.00000000000E+00 0. -1.
         22    1    3    3    0    0 -0.40618396062E+02 -0.49219559643E+02  0.44938910851E+01  0.63973543025E+02  0.00000000000E+00 0. -1.
         22    1    3    3    0    0 -0.26288348280E+01 -0.12415770113E+02  0.14281216271E+03  0.14337494878E+03  0.00000000000E+00 0. -1.
</event>
<event>
 7    1  0.4915160E-006  0.9117528E+02  0.7818608E-02  0.1470826E+00
          2   -1    0    0  502    0  0.00000000000E+00  0.00000000000E+00  0.46980001386E+03  0.46980001386E+03  0.00000000000E+00 0. -1.
          1   -1    0    0  501    0 -0.00000000000E+00 -0.00000000000E+00 -0.23032137311E+03  0.23032137311E+03  0.00000000000E+00 0. -1.
         25    2    1    2    0    0  0.19621127814E+02 -0.73659506198E+02  0.18590694946E+03  0.23663688922E+03  0.12499964788E+03 0.  0.
          2    1    1    2  501    0 -0.58399998343E+01  0.91790858613E+02 -0.19408870683E+03  0.21477917367E+03  0.00000000000E+00 0. -1.
          1    1    1    2  502    0 -0.13781127980E+02 -0.18131352415E+02  0.24766039813E+03  0.24870532409E+03  0.00000000000E+00 0. -1.
         22    1    3    3    0    0  0.68884711364E+02 -0.42299775214E+02  0.70346018302E+02  0.10715846553E+03  0.00000000000E+00 0. -1.
         22    1    3    3    0    0 -0.49263583550E+02 -0.31359730983E+02  0.11556093116E+03  0.12947842369E+03  0.00000000000E+00 0. -1.
</event>
<event>
 7    1  0.4915160E-006  0.5823971E+02  0.7818608E-02  0.1444986E+00
          2   -1    0    0  502    0  0.00000000000E+00  0.00000000000E+00  0.75058611774E+03  0.75058611774E+03  0.00000000000E+00 0. -1.
          1   -1    0    0  501    0 -0.00000000000E+00 -0.00000000000E+00 -0.40141949270E+03  0.40141949270E+03  0.00000000000E+00 0. -1.
         25    2    1    2    0    0  0.47664111623E+01  0.50216697196E+01  0.50835899458E+03  0.52354536791E+03  0.12499179590E+03 0.  0.
          2    1    1    2  501    0  0.53293059467E+02  0.23488573263E+02 -0.38714878087E+03  0.39150484262E+03  0.00000000000E+00 0. -1.
          1    1    1    2  502    0 -0.58059470629E+02 -0.28510242983E+02  0.22795641133E+03  0.23695539992E+03  0.00000000000E+00 0. -1.
         22    1    3    3    0    0 -0.28885203939E+02  0.23956774524E+02  0.46061563928E+03  0.46214180638E+03  0.00000000000E+00 0.  1.
         22    1    3    3    0    0  0.33651615102E+02 -0.18935104805E+02  0.47743355301E+02  0.61403561528E+02  0.00000000000E+00 0.  1.
</event>
<event>
 7    1  0.4915160E-006  0.8130490E+02  0.7818608E-02  0.1408787E+00
          2   -1    0    0  502    0  0.00000000000E+00  0.00000000000E+00  0.12002523354E+04  0.12002523354E+04  0.00000000000E+00 0. -1.
          1   -1    0    0  501    0 -0.00000000000E+00 -0.00000000000E+00 -0.56254628165E+02  0.56254628165E+02  0.00000000000E+00 0. -1.
         25    2    1    2    0    0  0.52833215351E+02 -0.73909120541E+02  0.27426681194E+03  0.31480409598E+03  0.12500171187E+03 0.  0.
          2    1    1    2  501    0 -0.71677153832E+02  0.37929142258E+02  0.10797432479E+02  0.81809649565E+02  0.00000000000E+00 0. -1.
          1    1    1    2  502    0  0.18843938480E+02  0.35979978282E+02  0.85893346282E+03  0.85989321802E+03  0.00000000000E+00 0. -1.
         22    1    3    3    0    0 -0.83409380794E+01 -0.61620803023E+02  0.43851243849E+02  0.76089593246E+02  0.00000000000E+00 0. -1.
         22    1    3    3    0    0  0.61174153431E+02 -0.12288317517E+02  0.23041556810E+03  0.23871450274E+03  0.00000000000E+00 0. -1.
</event>
<event>
 7    1  0.4915160E-006  0.2798375E+03  0.7818608E-02  0.1288012E+00
          2   -1    0    0  502    0  0.00000000000E+00  0.00000000000E+00  0.22907474387E+04  0.22907474387E+04  0.00000000000E+00 0. -1.
          1   -1    0    0  501    0 -0.00000000000E+00 -0.00000000000E+00 -0.75776138570E+02  0.75776138570E+02  0.00000000000E+00 0. -1.
         25    2    1    2    0    0 -0.11203016363E+03 -0.28325385666E+03  0.56312567122E+03  0.65231848020E+03  0.12500149256E+03 0.  0.
          2    1    1    2  501    0  0.81375731596E+00  0.33211304355E+02 -0.61422040675E+01  0.33784310097E+02  0.00000000000E+00 0. -1.
          1    1    1    2  502    0  0.11121640632E+03  0.25004255231E+03  0.16579878329E+04  0.16804207869E+04  0.00000000000E+00 0. -1.
         22    1    3    3    0    0 -0.15618545526E+02 -0.20352448292E+03  0.35297433361E+03  0.40774628668E+03  0.00000000000E+00 0. -1.
         22    1    3    3    0    0 -0.96411618106E+02 -0.79729373740E+02  0.21015133762E+03  0.24457219352E+03  0.00000000000E+00 0. -1.
</event>
<event>
 7    1  0.4915160E-006  0.9711672E+02  0.7818608E-02  0.1402360E+00
          2   -1    0    0  502    0  0.00000000000E+00  0.00000000000E+00  0.29139299198E+03  0.29139299198E+03  0.00000000000E+00 0. -1.
          1   -1    0    0  501    0 -0.00000000000E+00 -0.00000000000E+00 -0.96686657168E+03  0.96686657168E+03  0.00000000000E+00 0. -1.
         25    2    1    2    0    0  0.10246283715E+03 -0.65608259940E+02 -0.14374910510E+03  0.22603509008E+03  0.12499991986E+03 0.  0.
          2    1    1    2  501    0 -0.66804649146E+02  0.68350529660E+02 -0.77775639480E+03  0.78360683107E+03  0.00000000000E+00 0. -1.
          1    1    1    2  502    0 -0.35658188000E+02 -0.27422697201E+01  0.24603192020E+03  0.24861764252E+03  0.00000000000E+00 0. -1.
         22    1    3    3    0    0  0.63275422721E+02 -0.86537362065E+02 -0.42230291997E+02  0.11522105587E+03  0.00000000000E+00 0. -1.
         22    1    3    3    0    0  0.39187414425E+02  0.20929102125E+02 -0.10151881310E+03  0.11081403421E+03  0.00000000000E+00 0. -1.
</event>
<event>
 7    1  0.4915160E-006  0.1346980E+03  0.7818608E-02  0.1301661E+00
          2   -1    0    0  502    0  0.00000000000E+00  0.00000000000E+00  0.33962836969E+03  0.33962836969E+03  0.00000000000E+00 0. -1.
          1   -1    0    0  501    0 -0.00000000000E+00 -0.00000000000E+00 -0.25316425258E+03  0.25316425258E+03  0.00000000000E+00 0. -1.
         25    2    1    2    0    0  0.90796040269E+02  0.15340676460E+03  0.90400600704E+02  0.23574591986E+03  0.12500525497E+03 0.  0.
          2    1    1    2  501    0 -0.45876258394E+02 -0.39893454287E+02 -0.15284560677E+03  0.16449285179E+03  0.00000000000E+00 0. -1.
          1    1    1    2  502    0 -0.44919781876E+02 -0.11351331031E+03  0.14890912318E+03  0.19255385062E+03  0.00000000000E+00 0. -1.
         22    1    3    3    0    0 -0.21323420145E+02 -0.25195963251E+01 -0.38492562591E+01  0.21814063951E+02  0.00000000000E+00 0.  1.
         22    1    3    3    0    0  0.11211946041E+03  0.15592636092E+03  0.94249856963E+02  0.21393185591E+03  0.00000000000E+00 0.  1.
</event>
<event>
 7    1  0.4915160E-006  0.7763235E+02  0.7818608E-02  0.1436663E+00
          2   -1    0    0  502    0  0.00000000000E+00  0.00000000000E+00  0.79642081976E+03  0.79642081976E+03  0.00000000000E+00 0. -1.
          1   -1    0    0  501    0 -0.00000000000E+00 -0.00000000000E+00 -0.17513790221E+03  0.17513790221E+03  0.00000000000E+00 0. -1.
         25    2    1    2    0    0  0.52468987056E+02 -0.74431913082E+01  0.12251887748E+03  0.18287558316E+03  0.12499683147E+03 0.  0.
          2    1    1    2  501    0  0.25991272692E+02  0.22469742430E+02 -0.14040174321E+03  0.14454440521E+03  0.00000000000E+00 0. -1.
          1    1    1    2  502    0 -0.78460259748E+02 -0.15026551122E+02  0.63916578329E+03  0.64413873360E+03  0.00000000000E+00 0. -1.
         22    1    3    3    0    0  0.36457123159E+02  0.10188276120E+02 -0.16886946558E+02  0.41449870487E+02  0.00000000000E+00 0. -1.
         22    1    3    3    0    0  0.16011863897E+02 -0.17631467428E+02  0.13940582404E+03  0.14142571267E+03  0.00000000000E+00 0. -1.
</event>
<event>
 7    1  0.4915160E-006  0.8695244E+02  0.7818608E-02  0.1331453E+00
          2   -1    0    0  502    0  0.00000000000E+00  0.00000000000E+00  0.59617810895E+03  0.59617810895E+03  0.00000000000E+00 0. -1.
          1   -1    0    0  501    0 -0.00000000000E+00 -0.00000000000E+00 -0.29952209273E+04  0.29952209273E+04  0.00000000000E+00 0. -1.
         25    2    1    2    0    0 -0.32477496160E+02  0.81644091278E+02 -0.79206480646E+03  0.80666775925E+03  0.12500268315E+03 0.  0.
          2    1    1    2  501    0 -0.39584972046E+02 -0.80981411114E+02 -0.21927203995E+04  0.21945723295E+04  0.00000000000E+00 0. -1.
          1    1    1    2  502    0  0.72062468206E+02 -0.66268016436E+00  0.58574238770E+03  0.59015894742E+03  0.00000000000E+00 0. -1.
         22    1    3    3    0    0  0.30444155946E+02 -0.12235564927E+02 -0.95137783086E+02  0.10063674006E+03  0.00000000000E+00 0.  1.
         22    1    3    3    0    0 -0.62921652106E+02  0.93879656204E+02 -0.69692702337E+03  0.70603101919E+03  0.00000000000E+00 0.  1.
</event>
<event>
 7    1  0.6434087E-006  0.1176812E+03  0.7818608E-02  0.1258456E+00
          2   -1    0    0  502    0  0.00000000000E+00  0.00000000000E+00  0.65686586648E+03  0.65686586648E+03  0.00000000000E+00 0. -1.
          1   -1    0    0  501    0 -0.00000000000E+00 -0.00000000000E+00 -0.15023074171E+04  0.15023074171E+04  0.00000000000E+00 0. -1.
         25    2    1    2    0    0 -0.22157366095E+02 -0.58413084743E+02 -0.18898865330E+03  0.23504096564E+03  0.12499802843E+03 0.  0.
          2    1    1    2  501    0  0.12426098245E+03  0.34005193944E+02 -0.12826967909E+04  0.12891501861E+04  0.00000000000E+00 0. -1.
          1    1    1    2  502    0 -0.10210361636E+03  0.24407890798E+02  0.62624389353E+03  0.63498213187E+03  0.00000000000E+00 0. -1.
         22    1    3    3    0    0  0.36558239870E+01  0.17394137229E+00 -0.16745499919E+03  0.16749499114E+03  0.00000000000E+00 0.  1.
         22    1    3    3    0    0 -0.25813190082E+02 -0.58587026115E+02 -0.21533654109E+02  0.67545974495E+02  0.00000000000E+00 0.  1.
</event>
<event>
 7    1  0.4915160E-006  0.4243162E+02  0.7818608E-02  0.1558171E+00
          2   -1    0    0  502    0  0.00000000000E+00  0.00000000000E+00  0.61281048248E+03  0.61281048248E+03  0.00000000000E+00 0. -1.
          1   -1    0    0  501    0 -0.00000000000E+00 -0.00000000000E+00 -0.68758098503E+02  0.68758098503E+02  0.00000000000E+00 0. -1.
         25    2    1    2    0    0  0.55117365214E+02  0.28456192925E+02  0.19176619036E+03  0.23716473149E+03  0.12500063693E+03 0.  0.
          2    1    1    2  501    0 -0.27056016434E+02  0.23310742090E+01 -0.40857635888E+02  0.49059233000E+02  0.00000000000E+00 0. -1.
          1    1    1    2  502    0 -0.28061348780E+02 -0.30787267134E+02  0.39314382951E+03  0.39534461650E+03  0.00000000000E+00 0. -1.
         22    1    3    3    0    0  0.23168854659E+02  0.47793306963E+02  0.19262167220E+03  0.19981017146E+03  0.00000000000E+00 0.  1.
         22    1    3    3    0    0  0.31948510555E+02 -0.19337114039E+02 -0.85548183907E+00  0.37354560032E+02  0.00000000000E+00 0.  1.
</event>
<event>
 7    1  0.4915160E-006  0.6016981E+02  0.7818608E-02  0.1417414E+00
          2   -1    0    0  502    0  0.00000000000E+00  0.00000000000E+00  0.16134863167E+04  0.16134863167E+04  0.00000000000E+00 0. -1.
          1   -1    0    0  501    0 -0.00000000000E+00 -0.00000000000E+00 -0.12270378739E+03  0.12270378739E+03  0.00000000000E+00 0. -1.
         25    2    1    2    0    0  0.27609067502E+02 -0.79731888060E+02  0.91277344443E+02  0.17628422892E+03  0.12500056470E+03 0.  0.
          2    1    1    2  501    0  0.18196456600E+02  0.56577881426E+02 -0.68679567170E+02  0.90824284451E+02  0.00000000000E+00 0. -1.
          1    1    1    2  502    0 -0.45805524103E+02  0.23154006634E+02  0.14681847521E+04  0.14690815907E+04  0.00000000000E+00 0. -1.
         22    1    3    3    0    0  0.62839530811E+02 -0.15076149921E+02  0.79877715507E+01  0.65114525440E+02  0.00000000000E+00 0.  1.
         22    1    3    3    0    0 -0.35230463308E+02 -0.64655738139E+02  0.83289572892E+02  0.11116970348E+03  0.00000000000E+00 0.  1.
</event>
<event>
 7    1  0.4915160E-006  0.1032914E+03  0.7818608E-02  0.1277251E+00
          2   -1    0    0  502    0  0.00000000000E+00  0.00000000000E+00  0.21561325532E+03  0.21561325532E+03  0.00000000000E+00 0. -1.
          1   -1    0    0  501    0 -0.00000000000E+00 -0.00000000000E+00 -0.23648752130E+03  0.23648752130E+03  0.00000000000E+00 0. -1.
         25    2    1    2    0    0 -0.24415928106E+02  0.33865532246E+02 -0.19564592548E+02  0.13322104209E+03  0.12498824327E+03 0.  0.
          2    1    1    2  501    0  0.51782692811E+02  0.89373758359E+02 -0.11101150852E+03  0.15163334390E+03  0.00000000000E+00 0. -1.
          1    1    1    2  502    0 -0.27366764705E+02 -0.12323929060E+03  0.10970183508E+03  0.16724639063E+03  0.00000000000E+00 0. -1.
         22    1    3    3    0    0 -0.95749935798E+01 -0.37873677438E+02 -0.41258054931E+02  0.56818333673E+02  0.00000000000E+00 0. -1.
         22    1    3    3    0    0 -0.14840934526E+02  0.71739209683E+02  0.21693462383E+02  0.76402708419E+02  0.00000000000E+00 0. -1.
</event>
<event>
 7    1  0.4915160E-006  0.1546565E+03  0.7818608E-02  0.1408344E+00
          2   -1    0    0  502    0  0.00000000000E+00  0.00000000000E+00  0.10943074060E+04  0.10943074060E+04  0.00000000000E+00 0. -1.
          1   -1    0    0  501    0 -0.00000000000E+00 -0.00000000000E+00 -0.22188675796E+03  0.22188675796E+03  0.00000000000E+00 0. -1.
         25    2    1    2    0    0 -0.97946062848E+02  0.98065872010E+02 -0.84559906580E+02  0.20490452254E+03  0.12500055630E+03 0.  0.
          2    1    1    2  501    0 -0.13420167870E+01  0.21384334107E+02 -0.69703503961E+02  0.72922350611E+02  0.00000000000E+00 0. -1.
          1    1    1    2  502    0  0.99288079635E+02 -0.11945020612E+03  0.10266840585E+04  0.10383672908E+04  0.00000000000E+00 0. -1.
         22    1    3    3    0    0  0.15329915060E+02  0.32175930904E+02 -0.62595252844E+02  0.72030982944E+02  0.00000000000E+00 0.  1.
         22    1    3    3    0    0 -0.11327597791E+03  0.65889941106E+02 -0.21964653735E+02  0.13287353959E+03  0.00000000000E+00 0.  1.
</event>
<event>
 7    1  0.4915160E-006  0.5325912E+02  0.7818608E-02  0.1552863E+00
          2   -1    0    0  502    0  0.00000000000E+00  0.00000000000E+00  0.62434927366E+03  0.62434927366E+03  0.00000000000E+00 0. -1.
          1   -1    0    0  501    0 -0.00000000000E+00 -0.00000000000E+00 -0.57733866694E+02  0.57733866694E+02  0.00000000000E+00 0. -1.
         25    2    1    2    0    0  0.37373224838E+02  0.47289603332E+01  0.40120261739E+03  0.42190981763E+03  0.12500093206E+03 0.  0.
          2    1    1    2  501    0  0.21006620292E+02  0.77196502735E+01 -0.40233325160E+02  0.46039022034E+02  0.00000000000E+00 0. -1.
          1    1    1    2  502    0 -0.58379845130E+02 -0.12448610607E+02  0.20564611474E+03  0.21413430068E+03  0.00000000000E+00 0. -1.
         22    1    3    3    0    0 -0.24990116908E+02 -0.94058853433E+01  0.15359990911E+02  0.30804316953E+02  0.00000000000E+00 0.  1.
         22    1    3    3    0    0  0.62363341746E+02  0.14134845676E+02  0.38584262647E+03  0.39110550068E+03  0.00000000000E+00 0.  1.
</event>
<event>
 7    1  0.4915160E-006  0.1138284E+03  0.7818608E-02  0.1311254E+00
          2   -1    0    0  502    0  0.00000000000E+00  0.00000000000E+00  0.67936765807E+03  0.67936765807E+03  0.00000000000E+00 0. -1.
          1   -1    0    0  501    0 -0.00000000000E+00 -0.00000000000E+00 -0.79848628744E+03  0.79848628744E+03  0.00000000000E+00 0. -1.
         25    2    1    2    0    0  0.30901542215E+02  0.17279324132E+03 -0.62429826065E+02  0.22437136154E+03  0.12503045684E+03 0.  0.
          2    1    1    2  501    0 -0.24010567104E+02 -0.61383863063E+02 -0.64819443215E+03  0.65153703490E+03  0.00000000000E+00 0. -1.
          1    1    1    2  502    0 -0.68909751109E+01 -0.11140937826E+03  0.59150562884E+03  0.60194554907E+03  0.00000000000E+00 0. -1.
         22    1    3    3    0    0  0.46964973879E+02  0.17384012417E+03 -0.22691730559E+02  0.18149658999E+03  0.00000000000E+00 0.  1.
         22    1    3    3    0    0 -0.16063431664E+02 -0.10468828490E+01 -0.39738095506E+02  0.42874771544E+02  0.00000000000E+00 0.  1.
</event>
<event>
 7    1  0.4915160E-006  0.6208475E+02  0.7818608E-02  0.1466204E+00
          2   -1    0    0  502    0  0.00000000000E+00  0.00000000000E+00  0.17436805216E+03  0.17436805216E+03  0.00000000000E+00 0. -1.
          1   -1    0    0  501    0 -0.00000000000E+00 -0.00000000000E+00 -0.30373182183E+03  0.30373182183E+03  0.00000000000E+00 0. -1.
         25    2    1    2    0    0 -0.91400749878E+02  0.23218333404E+02 -0.77204134630E+01  0.15677507898E+03  0.12500253006E+03 0.  0.
          2    1    1    2  501    0  0.59475569926E+02 -0.99472701536E+01 -0.21419755433E+03  0.22252389509E+03  0.00000000000E+00 0. -1.
          1    1    1    2  502    0  0.31925179951E+02 -0.13271063251E+02  0.92554198127E+02  0.98800899924E+02  0.00000000000E+00 0. -1.
         22    1    3    3    0    0  0.25655894901E+02 -0.13665939707E+02  0.13790655030E+02  0.32173980440E+02  0.00000000000E+00 0. -1.
         22    1    3    3    0    0 -0.11705664478E+03  0.36884273111E+02 -0.21511068493E+02  0.12460109854E+03  0.00000000000E+00 0. -1.
</event>
<event>
 7    1  0.6154930E-006  0.8038000E+02  0.7818608E-02  0.1365639E+00
          2   -1    0    0  502    0  0.00000000000E+00  0.00000000000E+00  0.10859706100E+04  0.10859706100E+04  0.00000000000E+00 0. -1.
          1   -1    0    0  501    0 -0.00000000000E+00 -0.00000000000E+00 -0.18573326627E+04  0.18573326627E+04  0.00000000000E+00 0. -1.
         25    2    1    2    0    0  0.33800595015E+02  0.17667938941E+02 -0.50200666719E+02  0.13999839323E+03  0.12499922751E+03 0.  0.
          2    1    1    2  501    0  0.45184328968E+02 -0.36676913435E+02 -0.17601665995E+04  0.17611284103E+04  0.00000000000E+00 0. -1.
          1    1    1    2  502    0 -0.78984923983E+02  0.19008974494E+02  0.10390052135E+04  0.10421764692E+04  0.00000000000E+00 0. -1.
         22    1    3    3    0    0 -0.29153061395E+02  0.23553516645E+02 -0.65027594919E+02  0.75055028053E+02  0.00000000000E+00 0.  1.
         22    1    3    3    0    0  0.62953656410E+02 -0.58855777038E+01  0.14826928200E+02  0.64943365174E+02  0.00000000000E+00 0.  1.
</event>
<event>
 7    1  0.4915160E-006  0.1001110E+03  0.7818608E-02  0.1362796E+00
          2   -1    0    0  502    0  0.00000000000E+00  0.00000000000E+00  0.20794361669E+02  0.20794361669E+02  0.00000000000E+00 0. -1.
          1   -1    0    0  501    0 -0.00000000000E+00 -0.00000000000E+00 -0.14690276555E+04  0.14690276555E+04  0.00000000000E+00 0. -1.
         25    2    1    2    0    0  0.56999565423E+02  0.26836403750E+02 -0.81193326250E+03  0.82391149491E+03  0.12500154261E+03 0.  0.
          2    1    1    2  501    0  0.46179069999E+02  0.12529969695E+02 -0.42319235288E+03  0.42588880495E+03  0.00000000000E+00 0. -1.
          1    1    1    2  502    0 -0.10317863542E+03 -0.39366373445E+02 -0.21310767840E+03  0.24002171726E+03  0.00000000000E+00 0. -1.
         22    1    3    3    0    0  0.15311686624E+02 -0.32882147251E+02 -0.57247029679E+03  0.57361827382E+03  0.00000000000E+00 0. -1.
         22    1    3    3    0    0  0.41687878799E+02  0.59718551001E+02 -0.23946296571E+03  0.25029322108E+03  0.00000000000E+00 0. -1.
</event>
<event>
 7    1  0.4915160E-006  0.6167444E+02  0.7818608E-02  0.1491804E+00
          2   -1    0    0  502    0  0.00000000000E+00  0.00000000000E+00  0.25260003983E+03  0.25260003983E+03  0.00000000000E+00 0. -1.
          1   -1    0    0  501    0 -0.00000000000E+00 -0.00000000000E+00 -0.97003677884E+03  0.97003677884E+03  0.00000000000E+00 0. -1.
         25    2    1    2    0    0 -0.12069110573E+02 -0.79146038096E+02 -0.79828111918E+03  0.81196559074E+03  0.12500246608E+03 0.  0.
          2    1    1    2  501    0 -0.15937145736E+02  0.24274654895E+02 -0.15972288049E+03  0.16234115325E+03  0.00000000000E+00 0. -1.
          1    1    1    2  502    0  0.28006256309E+02  0.54871383201E+02  0.24056726067E+03  0.24833007468E+03  0.00000000000E+00 0. -1.
         22    1    3    3    0    0  0.54756597140E+02 -0.50443214904E+02 -0.45659303493E+03  0.46262295923E+03  0.00000000000E+00 0. -1.
         22    1    3    3    0    0 -0.66825707713E+02 -0.28702823192E+02 -0.34168808426E+03  0.34934263151E+03  0.00000000000E+00 0. -1.
</event>
<event>
 7    1  0.4915160E-006  0.1002883E+03  0.7818608E-02  0.1350028E+00
          2   -1    0    0  502    0  0.00000000000E+00  0.00000000000E+00  0.69988219257E+03  0.69988219257E+03  0.00000000000E+00 0. -1.
          1   -1    0    0  501    0 -0.00000000000E+00 -0.00000000000E+00 -0.67383042206E+03  0.67383042206E+03  0.00000000000E+00 0. -1.
         25    2    1    2    0    0 -0.11232722125E+03 -0.78182073322E+02  0.15012595405E+03  0.23852293489E+03  0.12500218866E+03 0.  0.
          2    1    1    2  501    0  0.95787449096E+02  0.27613093708E+02 -0.62426635615E+03  0.63217576810E+03  0.00000000000E+00 0. -1.
          1    1    1    2  502    0  0.16539772155E+02  0.50568979614E+02  0.50019217262E+03  0.50301391164E+03  0.00000000000E+00 0. -1.
         22    1    3    3    0    0  0.23257125350E+01  0.91214685536E+01  0.75788717349E+02  0.76371066542E+02  0.00000000000E+00 0. -1.
         22    1    3    3    0    0 -0.11465293379E+03 -0.87303541876E+02  0.74337236698E+02  0.16215186835E+03  0.00000000000E+00 0. -1.
</event>
<event>
 7    1  0.4915160E-006  0.6604828E+02  0.7818608E-02  0.1428426E+00
          2   -1    0    0  502    0  0.00000000000E+00  0.00000000000E+00  0.27460531508E+03  0.27460531508E+03  0.00000000000E+00 0. -1.
          1   -1    0    0  501    0 -0.00000000000E+00 -0.00000000000E+00 -0.31389625859E+03  0.31389625859E+03  0.00000000000E+00 0. -1.
         25    2    1    2    0    0 -0.59107008305E+02  0.26289393906E+02  0.29823706298E+01  0.14077817407E+03  0.12499931639E+03 0.  0.
          2    1    1    2  501    0  0.31410785114E+02 -0.59149917475E+02 -0.23804676734E+03  0.24728852298E+03  0.00000000000E+00 0. -1.
          1    1    1    2  502    0  0.27696223192E+02  0.32860523568E+02  0.19577345320E+03  0.20043487662E+03  0.00000000000E+00 0. -1.
         22    1    3    3    0    0  0.23008034108E+02  0.47635041050E+02  0.15242889597E+02  0.55052815120E+02  0.00000000000E+00 0.  1.
         22    1    3    3    0    0 -0.82115042413E+02 -0.21345647144E+02 -0.12260518967E+02  0.85725358954E+02  0.00000000000E+00 0.  1.
</event>
<event>
 7    1  0.4915160E-006  0.7306302E+02  0.7818608E-02  0.1448163E+00
          2   -1    0    0  502    0  0.00000000000E+00  0.00000000000E+00  0.54677790149E+02  0.54677790149E+02  0.00000000000E+00 0. -1.
          1   -1    0    0  501    0 -0.00000000000E+00 -0.00000000000E+00 -0.47230725777E+03  0.47230725777E+03  0.00000000000E+00 0. -1.
         25    2    1    2    0    0 -0.98977209426E+02 -0.26606300315E+02 -0.13998811761E+03  0.21383903044E+03  0.12500429858E+03 0.  0.
          2    1    1    2  501    0  0.68349009393E+02  0.13010980218E+02 -0.26994005695E+03  0.27876245629E+03  0.00000000000E+00 0. -1.
          1    1    1    2  502    0  0.30628200033E+02  0.13595320096E+02 -0.77012930664E+01  0.34383561199E+02  0.00000000000E+00 0. -1.
         22    1    3    3    0    0 -0.98527663690E+02 -0.67991324513E+02 -0.11151192021E+03  0.16360143358E+03  0.00000000000E+00 0. -1.
         22    1    3    3    0    0 -0.44954573632E+00  0.41385024198E+02 -0.28476197405E+02  0.50237596856E+02  0.00000000000E+00 0. -1.
</event>
<event>
 7    1  0.4915160E-006  0.2055357E+03  0.7818608E-02  0.1221634E+00
          2   -1    0    0  502    0  0.00000000000E+00  0.00000000000E+00  0.21999319915E+04  0.21999319915E+04  0.00000000000E+00 0. -1.
          1   -1    0    0  501    0 -0.00000000000E+00 -0.00000000000E+00 -0.15358604178E+03  0.15358604178E+03  0.00000000000E+00 0. -1.
         25    2    1    2    0    0 -0.16014940560E+03 -0.18930352026E+03  0.46068013149E+03  0.53789840119E+03  0.12499940623E+03 0.  0.
          2    1    1    2  501    0  0.17162457995E+03  0.10269414681E+03 -0.25913007730E+02  0.20167441137E+03  0.00000000000E+00 0. -1.
          1    1    1    2  502    0 -0.11475174351E+02  0.86609373448E+02  0.16115788260E+04  0.16139452207E+04  0.00000000000E+00 0. -1.
         22    1    3    3    0    0 -0.70419405980E+02 -0.12831366188E+03  0.36495117781E+03  0.39320815194E+03  0.00000000000E+00 0.  1.
         22    1    3    3    0    0 -0.89729999622E+02 -0.60989858374E+02  0.95728953683E+02  0.14469024926E+03  0.00000000000E+00 0.  1.
</event>
<event>
 7    1  0.4915160E-006  0.1491338E+03  0.7818608E-02  0.1321323E+00
          2   -1    0    0  502    0  0.00000000000E+00  0.00000000000E+00  0.35253550960E+03  0.35253550960E+03  0.00000000000E+00 0. -1.
          1   -1    0    0  501    0 -0.00000000000E+00 -0.00000000000E+00 -0.73830084891E+03  0.73830084891E+03  0.00000000000E+00 0. -1.
         25    2    1    2    0    0 -0.95851324642E+02 -0.11452387633E+03  0.15184295855E+03  0.24695060722E+03  0.12500049464E+03 0.  0.
          2    1    1    2  501    0  0.56521565069E+02  0.13829796271E+03 -0.67898463021E+03  0.69522740299E+03  0.00000000000E+00 0. -1.
          1    1    1    2  502    0  0.39329759573E+02 -0.23774086378E+02  0.14137633235E+03  0.14865834830E+03  0.00000000000E+00 0. -1.
         22    1    3    3    0    0 -0.10202638671E+03 -0.12801639597E+03  0.16092557844E+03  0.22955309412E+03  0.00000000000E+00 0. -1.
         22    1    3    3    0    0  0.61750620660E+01  0.13492519643E+02 -0.90826198980E+01  0.17397513100E+02  0.00000000000E+00 0. -1.
</event>
<event>
 7    1  0.4915160E-006  0.8193290E+02  0.7818608E-02  0.1463524E+00
          2   -1    0    0  502    0  0.00000000000E+00  0.00000000000E+00  0.50521420730E+03  0.50521420730E+03  0.00000000000E+00 0. -1.
          1   -1    0    0  501    0 -0.00000000000E+00 -0.00000000000E+00 -0.22503388442E+03  0.22503388442E+03  0.00000000000E+00 0. -1.
         25    2    1    2    0    0 -0.16165631562E+01  0.82826514430E+02  0.43256939597E+03  0.45782451731E+03  0.12499664616E+03 0.  0.
          2    1    1    2  501    0  0.27719445040E+02 -0.77165956114E+02 -0.20093204204E+03  0.21701759822E+03  0.00000000000E+00 0. -1.
          1    1    1    2  502    0 -0.26102881883E+02 -0.56605583161E+01  0.48542968957E+02  0.55405976196E+02  0.00000000000E+00 0. -1.
         22    1    3    3    0    0 -0.25117346337E+01  0.64871295481E+02  0.43488010788E+03  0.43969910396E+03  0.00000000000E+00 0. -1.
         22    1    3    3    0    0  0.89517147754E+00  0.17955218949E+02 -0.23107119179E+01  0.18125413348E+02  0.00000000000E+00 0. -1.
</event>
<event>
 7    1  0.4915160E-006  0.1467558E+03  0.7818608E-02  0.1409243E+00
          2   -1    0    0  502    0  0.00000000000E+00  0.00000000000E+00  0.14682593208E+04  0.14682593208E+04  0.00000000000E+00 0. -1.
          1   -1    0    0  501    0 -0.00000000000E+00 -0.00000000000E+00 -0.86728658740E+03  0.86728658740E+03  0.00000000000E+00 0. -1.
         25    2    1    2    0    0  0.12717261116E+03 -0.12108919199E+02 -0.36242561561E+02  0.18236712335E+03  0.12499898182E+03 0.  0.
          2    1    1    2  501    0  0.18073648673E+02 -0.13269609666E+02 -0.75391900280E+03  0.75425234643E+03  0.00000000000E+00 0. -1.
          1    1    1    2  502    0 -0.14524625983E+03  0.25378528864E+02  0.13911342978E+04  0.13989264385E+04  0.00000000000E+00 0. -1.
         22    1    3    3    0    0  0.64847951281E+02 -0.61731148956E+01  0.45460153712E+02  0.79435443653E+02  0.00000000000E+00 0. -1.
         22    1    3    3    0    0  0.62324659881E+02 -0.59358043029E+01 -0.81702715273E+02  0.10293167970E+03  0.00000000000E+00 0. -1.
</event>
<event>
 7    1  0.4915160E-006  0.1129122E+03  0.7818608E-02  0.1410986E+00
          2   -1    0    0  502    0  0.00000000000E+00  0.00000000000E+00  0.21338878294E+04  0.21338878294E+04  0.00000000000E+00 0. -1.
          1   -1    0    0  501    0 -0.00000000000E+00 -0.00000000000E+00 -0.70604558528E+03  0.70604558528E+03  0.00000000000E+00 0. -1.
         25    2    1    2    0    0  0.56053710550E+02 -0.12830440085E+03  0.23272110982E+03  0.29898033020E+03  0.12500434050E+03 0.  0.
          2    1    1    2  501    0 -0.81013262430E+01  0.27583750772E+02 -0.67094248622E+03  0.67155812452E+03  0.00000000000E+00 0. -1.
          1    1    1    2  502    0 -0.47952384307E+02  0.10072065008E+03  0.18660636205E+04  0.18693949600E+04  0.00000000000E+00 0. -1.
         22    1    3    3    0    0 -0.73498576454E+01 -0.73168607610E+02  0.19201689173E+03  0.20561651747E+03  0.00000000000E+00 0. -1.
         22    1    3    3    0    0  0.63403568195E+02 -0.55135793242E+02  0.40704218085E+02  0.93363812724E+02  0.00000000000E+00 0. -1.
</event>
<event>
 7    1  0.4915160E-006  0.3107121E+03  0.7818608E-02  0.1176401E+00
          2   -1    0    0  502    0  0.00000000000E+00  0.00000000000E+00  0.48189812882E+03  0.48189812882E+03  0.00000000000E+00 0. -1.
          1   -1    0    0  501    0 -0.00000000000E+00 -0.00000000000E+00 -0.14873283284E+04  0.14873283284E+04  0.00000000000E+00 0. -1.
         25    2    1    2    0    0  0.10625711960E+03 -0.29859205701E+03 -0.36563059579E+03  0.49975809731E+03  0.12499852507E+03 0.  0.
          2    1    1    2  501    0 -0.12664267389E+02  0.31197511242E+03 -0.10256920580E+04  0.10721627919E+04  0.00000000000E+00 0. -1.
          1    1    1    2  502    0 -0.93592852211E+02 -0.13383055404E+02  0.38589245423E+03  0.39730556803E+03  0.00000000000E+00 0. -1.
         22    1    3    3    0    0  0.29506434398E+02 -0.23310360751E+02 -0.11028407954E+03  0.11651858559E+03  0.00000000000E+00 0. -1.
         22    1    3    3    0    0  0.76750685202E+02 -0.27528169626E+03 -0.25534651626E+03  0.38323951172E+03  0.00000000000E+00 0. -1.
</event>
<event>
 7    1  0.4915160E-006  0.1107685E+03  0.7818608E-02  0.1348244E+00
          2   -1    0    0  502    0  0.00000000000E+00  0.00000000000E+00  0.10284274367E+04  0.10284274367E+04  0.00000000000E+00 0. -1.
          1   -1    0    0  501    0 -0.00000000000E+00 -0.00000000000E+00 -0.11016357914E+04  0.11016357914E+04  0.00000000000E+00 0. -1.
         25    2    1    2    0    0  0.51519232617E+02  0.64133187915E+02  0.19984322228E+03  0.24965970300E+03  0.12500142676E+03 0.  0.
          2    1    1    2  501    0 -0.28775437557E+02 -0.10743466254E+03 -0.10731065303E+04  0.10788548827E+04  0.00000000000E+00 0. -1.
          1    1    1    2  502    0 -0.22743795059E+02  0.43301474625E+02  0.80005495332E+03  0.80154864247E+03  0.00000000000E+00 0. -1.
         22    1    3    3    0    0  0.23233459415E+02  0.44122515593E+02  0.20814146453E+03  0.21403144460E+03  0.00000000000E+00 0.  1.
         22    1    3    3    0    0  0.28285773201E+02  0.20010672322E+02 -0.82982422554E+01  0.35628258404E+02  0.00000000000E+00 0.  1.
</event>
<event>
 7    1  0.4915160E-006  0.7797070E+02  0.7818608E-02  0.1394659E+00
          2   -1    0    0  502    0  0.00000000000E+00  0.00000000000E+00  0.11168796135E+04  0.11168796135E+04  0.00000000000E+00 0. -1.
          1   -1    0    0  501    0 -0.00000000000E+00 -0.00000000000E+00 -0.11553948026E+03  0.11553948026E+03  0.00000000000E+00 0. -1.
         25    2    1    2    0    0 -0.12031011964E+03 -0.16561108073E+02  0.19495486234E+03  0.26148762907E+03  0.12497834460E+03 0.  0.
          2    1    1    2  501    0  0.47200909475E+02 -0.37822401385E+01 -0.73688898222E+02  0.87591580171E+02  0.00000000000E+00 0. -1.
          1    1    1    2  502    0  0.73109210161E+02  0.20343348212E+02  0.88007416916E+03  0.88333988456E+03  0.00000000000E+00 0. -1.
         22    1    3    3    0    0 -0.67439985043E+02  0.74606090593E+01  0.11193073281E+02  0.68768431418E+02  0.00000000000E+00 0. -1.
         22    1    3    3    0    0 -0.52870134593E+02 -0.24021717133E+02  0.18376178906E+03  0.19271919765E+03  0.00000000000E+00 0. -1.
</event>
<event>
 7    1  0.4915160E-006  0.6330588E+02  0.7818608E-02  0.1515203E+00
          2   -1    0    0  502    0  0.00000000000E+00  0.00000000000E+00  0.37151094397E+04  0.37151094397E+04  0.00000000000E+00 0. -1.
          1   -1    0    0  501    0 -0.00000000000E+00 -0.00000000000E+00 -0.75269635681E+01  0.75269635681E+01  0.00000000000E+00 0. -1.
         25    2    1    2    0    0  0.32539515799E+02  0.42930296008E+02  0.24413360754E+04  0.24451275185E+04  0.12499967355E+03 0.  0.
          2    1    1    2  501    0 -0.54789143260E+02 -0.33651235388E+02  0.18251936214E+03  0.19351375512E+03  0.00000000000E+00 0. -1.
          1    1    1    2  502    0  0.22249627461E+02 -0.92790606200E+01  0.10837270385E+04  0.10839951296E+04  0.00000000000E+00 0. -1.
         22    1    3    3    0    0  0.12011979868E+02 -0.36493627301E+02  0.33522596711E+03  0.33742039286E+03  0.00000000000E+00 0.  1.
         22    1    3    3    0    0  0.20527535931E+02  0.79423923309E+02  0.21061101083E+04  0.21077071257E+04  0.00000000000E+00 0.  1.
</event>
<event>
 7    1  0.4915160E-006  0.2202492E+03  0.7818608E-02  0.1283922E+00
          2   -1    0    0  502    0  0.00000000000E+00  0.00000000000E+00  0.40028412056E+03  0.40028412056E+03  0.00000000000E+00 0. -1.
          1   -1    0    0  501    0 -0.00000000000E+00 -0.00000000000E+00 -0.10339703693E+04  0.10339703693E+04  0.00000000000E+00 0. -1.
         25    2    1    2    0    0  0.27997976038E+02 -0.20621921242E+03  0.22737898702E+03  0.33262226099E+03  0.12500445806E+03 0.  0.
          2    1    1    2  501    0 -0.57287101838E+01 -0.43492818991E+02 -0.84953214682E+03  0.85066404173E+03  0.00000000000E+00 0. -1.
          1    1    1    2  502    0 -0.22269265854E+02  0.24971203141E+03 -0.11533088968E+02  0.25096818717E+03  0.00000000000E+00 0. -1.
         22    1    3    3    0    0  0.50490173537E+01 -0.21719929382E+03  0.20105018746E+03  0.29601047903E+03  0.00000000000E+00 0. -1.
         22    1    3    3    0    0  0.22948958684E+02  0.10980081408E+02  0.26328799553E+02  0.36611781960E+02  0.00000000000E+00 0. -1.
</event>
<event>
 7    1  0.4915160E-006  0.3112581E+02  0.7818608E-02  0.1638149E+00
          2   -1    0    0  502    0  0.00000000000E+00  0.00000000000E+00  0.19434048921E+04  0.19434048921E+04  0.00000000000E+00 0. -1.
          1   -1    0    0  501    0 -0.00000000000E+00 -0.00000000000E+00 -0.12849209856E+03  0.12849209856E+03  0.00000000000E+00 0. -1.
         25    2    1    2    0    0  0.15909087112E+02 -0.71404770778E+01  0.16803515844E+04  0.16850857889E+04  0.12501433199E+03 0.  0.
          2    1    1    2  501    0  0.18932259489E+02 -0.12789201607E+02 -0.12352613368E+03  0.12562125549E+03  0.00000000000E+00 0. -1.
          1    1    1    2  502    0 -0.34841346602E+02  0.19929678685E+02  0.25808734280E+03  0.26118994628E+03  0.00000000000E+00 0. -1.
         22    1    3    3    0    0 -0.18413310242E+02 -0.37426982941E+02  0.14284599068E+04  0.14290687648E+04  0.00000000000E+00 0.  1.
         22    1    3    3    0    0  0.34322397355E+02  0.30286505863E+02  0.25189167762E+03  0.25601702415E+03  0.00000000000E+00 0.  1.
</event>
<event>
 7    1  0.4915160E-006  0.8803847E+02  0.7818608E-02  0.1344464E+00
          2   -1    0    0  502    0  0.00000000000E+00  0.00000000000E+00  0.26267541457E+04  0.26267541457E+04  0.00000000000E+00 0. -1.
          1   -1    0    0  501    0 -0.00000000000E+00 -0.00000000000E+00 -0.31557817242E+03  0.31557817242E+03  0.00000000000E+00 0. -1.
         25    2    1    2    0    0  0.88845145842E+01  0.44838526027E+02 -0.97746892764E+02  0.16512944109E+03  0.12499539693E+03 0.  0.
          2    1    1    2  501    0 -0.41979413119E+01 -0.10823277460E+03 -0.16778599754E+03  0.19971003274E+03  0.00000000000E+00 0. -1.
          1    1    1    2  502    0 -0.46865732723E+01  0.63394248570E+02  0.25767088636E+04  0.25774928443E+04  0.00000000000E+00 0. -1.
         22    1    3    3    0    0 -0.27684055213E+02  0.35316988795E+02  0.14127526776E+02  0.47045548391E+02  0.00000000000E+00 0. -1.
         22    1    3    3    0    0  0.36568569797E+02  0.95215372323E+01 -0.11187441954E+03  0.11808389270E+03  0.00000000000E+00 0. -1.
</event>
<event>
 7    1  0.4915160E-006  0.1865578E+03  0.7818608E-02  0.1233529E+00
          2   -1    0    0  502    0  0.00000000000E+00  0.00000000000E+00  0.20625380272E+03  0.20625380272E+03  0.00000000000E+00 0. -1.
          1   -1    0    0  501    0 -0.00000000000E+00 -0.00000000000E+00 -0.77517649232E+03  0.77517649232E+03  0.00000000000E+00 0. -1.
         25    2    1    2    0    0  0.13062583888E+03  0.99475041428E+01 -0.89988466073E+02  0.20220059205E+03  0.12500037111E+03 0.  0.
          2    1    1    2  501    0 -0.20097624519E+03  0.37913554557E+02 -0.59849921858E+03  0.63247940946E+03  0.00000000000E+00 0. -1.
          1    1    1    2  502    0  0.70350406307E+02 -0.47861058700E+02  0.11956499506E+03  0.14675029353E+03  0.00000000000E+00 0. -1.
         22    1    3    3    0    0  0.71348860033E+02  0.52269547012E+02 -0.94237492974E+02  0.12924190673E+03  0.00000000000E+00 0.  1.
         22    1    3    3    0    0  0.59276978848E+02 -0.42322042869E+02  0.42490269011E+01  0.72958685320E+02  0.00000000000E+00 0.  1.
</event>
<event>
 7    1  0.4915160E-006  0.5059627E+02  0.7818608E-02  0.1462239E+00
          2   -1    0    0  502    0  0.00000000000E+00  0.00000000000E+00  0.12743013500E+04  0.12743013500E+04  0.00000000000E+00 0. -1.
          1   -1    0    0  501    0 -0.00000000000E+00 -0.00000000000E+00 -0.15036443960E+03  0.15036443960E+03  0.00000000000E+00 0. -1.
         25    2    1    2    0    0 -0.88947748277E+01  0.21100253547E+02  0.24877152496E+03  0.27935235670E+03  0.12500451930E+03 0.  0.
          2    1    1    2  501    0 -0.42322593884E+02 -0.10707278811E+02 -0.13085054030E+03  0.13794097168E+03  0.00000000000E+00 0. -1.
          1    1    1    2  502    0  0.51217368712E+02 -0.10392974736E+02  0.10060159257E+04  0.10073724612E+04  0.00000000000E+00 0. -1.
         22    1    3    3    0    0  0.72303176139E+01 -0.44023815563E+02  0.17060501576E+03  0.17634184198E+03  0.00000000000E+00 0.  1.
         22    1    3    3    0    0 -0.16125092442E+02  0.65124069109E+02  0.78166509200E+02  0.10301051473E+03  0.00000000000E+00 0.  1.
</event>
<event>
 7    1  0.4915160E-006  0.1456255E+03  0.7818608E-02  0.1301482E+00
          2   -1    0    0  502    0  0.00000000000E+00  0.00000000000E+00  0.74835887575E+03  0.74835887575E+03  0.00000000000E+00 0. -1.
          1   -1    0    0  501    0 -0.00000000000E+00 -0.00000000000E+00 -0.11866101611E+04  0.11866101611E+04  0.00000000000E+00 0. -1.
         25    2    1    2    0    0 -0.24766740644E+02  0.17292393185E+03 -0.18459512068E+03  0.28322263469E+03  0.12499449819E+03 0.  0.
          2    1    1    2  501    0 -0.21973161290E+02 -0.14149042143E+03 -0.94617129838E+03  0.95694434794E+03  0.00000000000E+00 0. -1.
          1    1    1    2  502    0  0.46739901934E+02 -0.31433510421E+02  0.69251513375E+03  0.69480205417E+03  0.00000000000E+00 0. -1.
         22    1    3    3    0    0  0.29130454313E+02  0.32248049393E+02 -0.10323549067E+03  0.11200931476E+03  0.00000000000E+00 0. -1.
         22    1    3    3    0    0 -0.53897194957E+02  0.14067588245E+03 -0.81359630003E+02  0.17121331993E+03  0.00000000000E+00 0. -1.
</event>
<event>
 7    1  0.4915160E-006  0.8084978E+02  0.7818608E-02  0.1411687E+00
          2   -1    0    0  502    0  0.00000000000E+00  0.00000000000E+00  0.10596228266E+04  0.10596228266E+04  0.00000000000E+00 0. -1.
          1   -1    0    0  501    0 -0.00000000000E+00 -0.00000000000E+00 -0.18333135282E+03  0.18333135282E+03  0.00000000000E+00 0. -1.
         25    2    1    2    0    0  0.15956069269E+02  0.49085681046E+02  0.16488904915E+03  0.21326868401E+03  0.12502452888E+03 0.  0.
          2    1    1    2  501    0 -0.20360121768E+02  0.34350184309E+02 -0.15459406346E+03  0.15966776186E+03  0.00000000000E+00 0. -1.
          1    1    1    2  502    0  0.44040524991E+01 -0.83435865355E+02  0.86599648811E+03  0.87001773357E+03  0.00000000000E+00 0. -1.
         22    1    3    3    0    0 -0.30403529251E+02  0.46037059285E+02  0.16214269623E+02  0.57503808203E+02  0.00000000000E+00 0. -1.
         22    1    3    3    0    0  0.46359598519E+02  0.30486217615E+01  0.14867477953E+03  0.15576487581E+03  0.00000000000E+00 0. -1.
</event>
<event>
 7    1  0.4915160E-006  0.2188229E+03  0.7818608E-02  0.1260167E+00
          2   -1    0    0  502    0  0.00000000000E+00  0.00000000000E+00  0.14322578998E+04  0.14322578998E+04  0.00000000000E+00 0. -1.
          1   -1    0    0  501    0 -0.00000000000E+00 -0.00000000000E+00 -0.21843965916E+04  0.21843965916E+04  0.00000000000E+00 0. -1.
         25    2    1    2    0    0  0.23636895528E+03  0.67472770460E+02 -0.10203519159E+03  0.29403774770E+03  0.12499663587E+03 0.  0.
          2    1    1    2  501    0 -0.19071454734E+02 -0.52136470348E+02 -0.19770898549E+04  0.19778691125E+04  0.00000000000E+00 0. -1.
          1    1    1    2  502    0 -0.21729750054E+03 -0.15336300112E+02  0.13269863547E+04  0.13447476311E+04  0.00000000000E+00 0. -1.
         22    1    3    3    0    0  0.72441085584E-01  0.10061582282E+02 -0.42513756145E+02  0.43688215199E+02  0.00000000000E+00 0. -1.
         22    1    3    3    0    0  0.23629651419E+03  0.57411188178E+02 -0.59521435440E+02  0.25034953250E+03  0.00000000000E+00 0. -1.
</event>
<event>
 7    1  0.4915160E-006  0.7670042E+02  0.7818608E-02  0.1427984E+00
          2   -1    0    0  502    0  0.00000000000E+00  0.00000000000E+00  0.14070374903E+04  0.14070374903E+04  0.00000000000E+00 0. -1.
          1   -1    0    0  501    0 -0.00000000000E+00 -0.00000000000E+00 -0.55611361095E+03  0.55611361095E+03  0.00000000000E+00 0. -1.
         25    2    1    2    0    0 -0.91701015412E+02  0.30978454209E+02 -0.66153227414E+02  0.17138092107E+03  0.12500571890E+03 0.  0.
          2    1    1    2  501    0  0.58689030486E+02 -0.47977792324E+02 -0.43380477133E+03  0.44037807676E+03  0.00000000000E+00 0. -1.
          1    1    1    2  502    0  0.33011984926E+02  0.16999338115E+02  0.13508818781E+04  0.13513921035E+04  0.00000000000E+00 0. -1.
         22    1    3    3    0    0 -0.40503615771E+02  0.59554158413E+02  0.12684099045E+02  0.73130889803E+02  0.00000000000E+00 0.  1.
         22    1    3    3    0    0 -0.51197399641E+02 -0.28575704204E+02 -0.78837326459E+02  0.98250031267E+02  0.00000000000E+00 0.  1.
</event>
<event>
 7    1  0.4915160E-006  0.8814172E+02  0.7818608E-02  0.1374732E+00
          2   -1    0    0  502    0  0.00000000000E+00  0.00000000000E+00  0.10146182648E+04  0.10146182648E+04  0.00000000000E+00 0. -1.
          1   -1    0    0  501    0 -0.00000000000E+00 -0.00000000000E+00 -0.26676044503E+02  0.26676044503E+02  0.00000000000E+00 0. -1.
         25    2    1    2    0    0  0.51142634018E+02 -0.59026509021E+02  0.37289805346E+03  0.40096574718E+03  0.12498349633E+03 0.  0.
          2    1    1    2  501    0 -0.18591725073E+02  0.95952002717E+02  0.20244090811E+03  0.22479937799E+03  0.00000000000E+00 0. -1.
          1    1    1    2  502    0 -0.32550908945E+02 -0.36925493695E+02  0.41260325871E+03  0.41552918412E+03  0.00000000000E+00 0. -1.
         22    1    3    3    0    0  0.88156966155E+02 -0.20193118305E+02  0.19115831133E+03  0.21147319617E+03  0.00000000000E+00 0.  1.
         22    1    3    3    0    0 -0.37014332137E+02 -0.38833390717E+02  0.18173974213E+03  0.18949255100E+03  0.00000000000E+00 0.  1.
</event>
<event>
 7    1  0.4915160E-006  0.1190844E+03  0.7818608E-02  0.1312490E+00
          2   -1    0    0  502    0  0.00000000000E+00  0.00000000000E+00  0.21029683128E+03  0.21029683128E+03  0.00000000000E+00 0. -1.
          1   -1    0    0  501    0 -0.00000000000E+00 -0.00000000000E+00 -0.56137742619E+03  0.56137742619E+03  0.00000000000E+00 0. -1.
         25    2    1    2    0    0  0.16581782850E+03  0.29690442552E+02 -0.13552543802E+02  0.21020748660E+03  0.12500576528E+03 0.  0.
          2    1    1    2  501    0 -0.58565742609E+02 -0.21253584208E+02 -0.42082118480E+03  0.42540819294E+03  0.00000000000E+00 0. -1.
          1    1    1    2  502    0 -0.10725208589E+03 -0.84368583445E+01  0.83293133691E+02  0.13605857792E+03  0.00000000000E+00 0. -1.
         22    1    3    3    0    0  0.13692797242E+03 -0.11273663280E+02 -0.52136392172E+02  0.14695090508E+03  0.00000000000E+00 0. -1.
         22    1    3    3    0    0  0.28889856081E+02  0.40964105832E+02  0.38583848370E+02  0.63256581524E+02  0.00000000000E+00 0. -1.
</event>
<event>
 7    1  0.4915160E-006  0.4546747E+02  0.7818608E-02  0.1559425E+00
          2   -1    0    0  502    0  0.00000000000E+00  0.00000000000E+00  0.12893803730E+04  0.12893803730E+04  0.00000000000E+00 0. -1.
          1   -1    0    0  501    0 -0.00000000000E+00 -0.00000000000E+00 -0.35181013202E+03  0.35181013202E+03  0.00000000000E+00 0. -1.
         25    2    1    2    0    0  0.67916703960E+02  0.14023707810E+02  0.47228677369E+03  0.49345096357E+03  0.12501885374E+03 0.  0.
          2    1    1    2  501    0 -0.45291574933E+02 -0.30589723948E+01 -0.33952110125E+03  0.34254235105E+03  0.00000000000E+00 0. -1.
          1    1    1    2  502    0 -0.22625129027E+02 -0.10964735415E+02  0.80480456851E+03  0.80519719037E+03  0.00000000000E+00 0. -1.
         22    1    3    3    0    0 -0.93105449433E+01 -0.43163479600E+01  0.33282303708E+03  0.33298121736E+03  0.00000000000E+00 0. -1.
         22    1    3    3    0    0  0.77227248903E+02  0.18340055770E+02  0.13946373661E+03  0.16046974621E+03  0.00000000000E+00 0. -1.
</event>
<event>
 7    1  0.4915160E-006  0.2726274E+02  0.7818608E-02  0.1634586E+00
          2   -1    0    0  502    0  0.00000000000E+00  0.00000000000E+00  0.29416495288E+03  0.29416495288E+03  0.00000000000E+00 0. -1.
          1   -1    0    0  501    0 -0.00000000000E+00 -0.00000000000E+00 -0.84616359749E+03  0.84616359749E+03  0.00000000000E+00 0. -1.
         25    2    1    2    0    0 -0.22887313345E+02 -0.10419039397E+02  0.46490751607E+02  0.13570474078E+03  0.12498800419E+03 0.  0.
          2    1    1    2  501    0  0.21982816152E+02 -0.16189568599E+02 -0.80045021759E+03  0.80091566172E+03  0.00000000000E+00 0. -1.
          1    1    1    2  502    0  0.90449719279E+00  0.26608607995E+02  0.20196082138E+03  0.20370814787E+03  0.00000000000E+00 0. -1.
         22    1    3    3    0    0  0.31508332831E+02  0.13702747341E+01  0.68844829925E+02  0.75724918608E+02  0.00000000000E+00 0. -1.
         22    1    3    3    0    0 -0.54395646177E+02 -0.11789314131E+02 -0.22354078319E+02  0.59979822175E+02  0.00000000000E+00 0. -1.
</event>
<event>
 7    1  0.4915160E-006  0.1843879E+03  0.7818608E-02  0.1334510E+00
          2   -1    0    0  502    0  0.00000000000E+00  0.00000000000E+00  0.89244403250E+03  0.89244403250E+03  0.00000000000E+00 0. -1.
          1   -1    0    0  501    0 -0.00000000000E+00 -0.00000000000E+00 -0.10300456963E+04  0.10300456963E+04  0.00000000000E+00 0. -1.
         25    2    1    2    0    0  0.57630046086E+02  0.17653939189E+03 -0.92177792971E+02  0.24209371604E+03  0.12500097090E+03 0.  0.
          2    1    1    2  501    0 -0.32496622412E+02  0.62199628426E+01 -0.85217709857E+03  0.85281916356E+03  0.00000000000E+00 0. -1.
          1    1    1    2  502    0 -0.25133423674E+02 -0.18275935473E+03  0.80675322778E+03  0.82757684916E+03  0.00000000000E+00 0. -1.
         22    1    3    3    0    0  0.88283236454E+02  0.16898007747E+03 -0.68327783070E+02  0.20252625104E+03  0.00000000000E+00 0. -1.
         22    1    3    3    0    0 -0.30653190368E+02  0.75593144262E+01 -0.23850009901E+02  0.39567465001E+02  0.00000000000E+00 0. -1.
</event>
<event>
 7    1  0.4915160E-006  0.8850635E+02  0.7818608E-02  0.1338665E+00
          2   -1    0    0  502    0  0.00000000000E+00  0.00000000000E+00  0.24084431857E+03  0.24084431857E+03  0.00000000000E+00 0. -1.
          1   -1    0    0  501    0 -0.00000000000E+00 -0.00000000000E+00 -0.35843403755E+04  0.35843403755E+04  0.00000000000E+00 0. -1.
         25    2    1    2    0    0 -0.67235722318E+02  0.54388272275E+02  0.18082323348E+02  0.15307111635E+03  0.12500027890E+03 0.  0.
          2    1    1    2  501    0  0.88255667671E+02  0.86819825760E+01 -0.35091437639E+04  0.35102641489E+04  0.00000000000E+00 0. -1.
          1    1    1    2  502    0 -0.21019945353E+02 -0.63070254851E+02  0.14756538362E+03  0.16184942877E+03  0.00000000000E+00 0. -1.
         22    1    3    3    0    0  0.10209089327E+02 -0.29178503133E+01 -0.39453143361E+02  0.40856944042E+02  0.00000000000E+00 0.  1.
         22    1    3    3    0    0 -0.77444811646E+02  0.57306122589E+02  0.57535466710E+02  0.11221417231E+03  0.00000000000E+00 0.  1.
</event>
<event>
 7    1  0.4915160E-006  0.1477949E+03  0.7818608E-02  0.1227925E+00
          2   -1    0    0  502    0  0.00000000000E+00  0.00000000000E+00  0.32843262330E+03  0.32843262330E+03  0.00000000000E+00 0. -1.
          1   -1    0    0  501    0 -0.00000000000E+00 -0.00000000000E+00 -0.50532091001E+03  0.50532091001E+03  0.00000000000E+00 0. -1.
         25    2    1    2    0    0  0.13355412194E+03  0.90258938282E+02  0.10538529638E+03  0.22959747912E+03  0.12500224916E+03 0.  0.
          2    1    1    2  501    0  0.20644363282E+02 -0.11190508201E+03 -0.39555550051E+03  0.41159821561E+03  0.00000000000E+00 0. -1.
          1    1    1    2  502    0 -0.15419848522E+03  0.21646143731E+02  0.11328191741E+03  0.19255783857E+03  0.00000000000E+00 0. -1.
         22    1    3    3    0    0  0.10765206538E+03  0.58845304274E+02  0.67291357391E+01  0.12286992425E+03  0.00000000000E+00 0. -1.
         22    1    3    3    0    0  0.25902056554E+02  0.31413634008E+02  0.98656160646E+02  0.10672755487E+03  0.00000000000E+00 0. -1.
</event>
<event>
 7    1  0.4915160E-006  0.7008905E+02  0.7818608E-02  0.1374057E+00
          2   -1    0    0  502    0  0.00000000000E+00  0.00000000000E+00  0.68062115420E+03  0.68062115420E+03  0.00000000000E+00 0. -1.
          1   -1    0    0  501    0 -0.00000000000E+00 -0.00000000000E+00 -0.12296356152E+04  0.12296356152E+04  0.00000000000E+00 0. -1.
         25    2    1    2    0    0  0.95445880535E+01  0.10943723647E+03  0.19591819223E+03  0.25704421954E+03  0.12498073797E+03 0.  0.
          2    1    1    2  501    0  0.30265738328E+02 -0.54394706661E+02 -0.11957182082E+04  0.11973373929E+04  0.00000000000E+00 0. -1.
          1    1    1    2  502    0 -0.39810326381E+02 -0.55042529808E+02  0.45078555496E+03  0.45587515696E+03  0.00000000000E+00 0. -1.
         22    1    3    3    0    0  0.38405674960E+02  0.26613612233E+02  0.50614005350E+01  0.46998914887E+02  0.00000000000E+00 0. -1.
         22    1    3    3    0    0 -0.28861086906E+02  0.82823624235E+02  0.19085679170E+03  0.21004530465E+03  0.00000000000E+00 0. -1.
</event>
<event>
 7    1  0.4915160E-006  0.6143266E+02  0.7818608E-02  0.1460093E+00
          2   -1    0    0  502    0  0.00000000000E+00  0.00000000000E+00  0.55675886688E+02  0.55675886688E+02  0.00000000000E+00 0. -1.
          1   -1    0    0  501    0 -0.00000000000E+00 -0.00000000000E+00 -0.22224425875E+04  0.22224425875E+04  0.00000000000E+00 0. -1.
         25    2    1    2    0    0  0.57998549212E+02  0.37794940622E+02 -0.96827242395E+02  0.17260793331E+03  0.12500277806E+03 0.  0.
          2    1    1    2  501    0 -0.31979533634E+02  0.17634565707E+02 -0.20343677938E+04  0.20346955519E+04  0.00000000000E+00 0. -1.
          1    1    1    2  502    0 -0.26019015578E+02 -0.55429506329E+02 -0.35571664656E+02  0.70814989021E+02  0.00000000000E+00 0. -1.
         22    1    3    3    0    0  0.44665217456E+02  0.78044779593E+02 -0.94043425422E+02  0.13011585275E+03  0.00000000000E+00 0. -1.
         22    1    3    3    0    0  0.13333331756E+02 -0.40249838971E+02 -0.27838169731E+01  0.42492080554E+02  0.00000000000E+00 0. -1.
</event>
<event>
 7    1  0.4915160E-006  0.1161654E+03  0.7818608E-02  0.1355470E+00
          2   -1    0    0  502    0  0.00000000000E+00  0.00000000000E+00  0.88837194751E+03  0.88837194751E+03  0.00000000000E+00 0. -1.
          1   -1    0    0  501    0 -0.00000000000E+00 -0.00000000000E+00 -0.42711958547E+03  0.42711958547E+03  0.00000000000E+00 0. -1.
         25    2    1    2    0    0 -0.11807556872E+03 -0.47025175261E+02  0.69369018916E+02  0.19128995510E+03  0.12500631623E+03 0.  0.
          2    1    1    2  501    0  0.11585870618E+03  0.32233402563E+01 -0.35632886198E+03  0.37470506749E+03  0.00000000000E+00 0. -1.
          1    1    1    2  502    0  0.22168625433E+01  0.43801835005E+02  0.74821220510E+03  0.74949651040E+03  0.00000000000E+00 0. -1.
         22    1    3    3    0    0 -0.37849556251E+02  0.19101189941E+02  0.76093078377E+02  0.87106836370E+02  0.00000000000E+00 0.  1.
         22    1    3    3    0    0 -0.80226012470E+02 -0.66126365202E+02 -0.67240594607E+01  0.10418311873E+03  0.00000000000E+00 0.  1.
</event>
<event>
 7    1  0.4915160E-006  0.5943465E+02  0.7818608E-02  0.1440565E+00
          2   -1    0    0  502    0  0.00000000000E+00  0.00000000000E+00  0.19182838431E+04  0.19182838431E+04  0.00000000000E+00 0. -1.
          1   -1    0    0  501    0 -0.00000000000E+00 -0.00000000000E+00 -0.95594488365E+02  0.95594488365E+02  0.00000000000E+00 0. -1.
         25    2    1    2    0    0 -0.13037007906E+02  0.13610682340E+02  0.21834247586E+03  0.25230040950E+03  0.12500738227E+03 0.  0.
          2    1    1    2  501    0 -0.11294041241E+02  0.42096326471E+02 -0.71981004267E+02  0.84148208805E+02  0.00000000000E+00 0. -1.
          1    1    1    2  502    0  0.24331049147E+02 -0.55707008811E+02  0.16763278832E+04  0.16774297132E+04  0.00000000000E+00 0. -1.
         22    1    3    3    0    0  0.29975534358E+02  0.57561766785E+02  0.11461442399E+03  0.13171315744E+03  0.00000000000E+00 0. -1.
         22    1    3    3    0    0 -0.43012542264E+02 -0.43951084445E+02  0.10372805187E+03  0.12058725207E+03  0.00000000000E+00 0. -1.
</event>
<event>
 7    1  0.4915160E-006  0.1025918E+03  0.7818608E-02  0.1339339E+00
          2   -1    0    0  502    0  0.00000000000E+00  0.00000000000E+00  0.31753663514E+03  0.31753663514E+03  0.00000000000E+00 0. -1.
          1   -1    0    0  501    0 -0.00000000000E+00 -0.00000000000E+00 -0.86474939931E+03  0.86474939931E+03  0.00000000000E+00 0. -1.
         25    2    1    2    0    0  0.50324062464E+02  0.53169037078E+02 -0.56418660315E+03  0.58248693424E+03  0.12500019044E+03 0.  0.
          2    1    1    2  501    0  0.49739100466E+02 -0.27877274390E+02 -0.27982073908E+03  0.28557094838E+03  0.00000000000E+00 0. -1.
          1    1    1    2  502    0 -0.10006316293E+03 -0.25291762689E+02  0.29679457806E+03  0.31422815183E+03  0.00000000000E+00 0. -1.
         22    1    3    3    0    0  0.49792445026E+02  0.62213578814E+02 -0.16537142693E+03  0.18356885852E+03  0.00000000000E+00 0. -1.
         22    1    3    3    0    0  0.53161743708E+00 -0.90445417360E+01 -0.39881517622E+03  0.39891807572E+03  0.00000000000E+00 0. -1.
</event>
<event>
 7    1  0.4915160E-006  0.6510157E+02  0.7818608E-02  0.1442304E+00
          2   -1    0    0  502    0  0.00000000000E+00  0.00000000000E+00  0.98898034507E+03  0.98898034507E+03  0.00000000000E+00 0. -1.
          1   -1    0    0  501    0 -0.00000000000E+00 -0.00000000000E+00 -0.13569373355E+04  0.13569373355E+04  0.00000000000E+00 0. -1.
         25    2    1    2    0    0  0.32422430151E+02  0.97925059799E+02  0.20394080843E+03  0.26049564396E+03  0.12500238344E+03 0.  0.
          2    1    1    2  501    0 -0.13352047276E+02 -0.63586874648E+02 -0.13273550805E+04  0.13289443470E+04  0.00000000000E+00 0. -1.
          1    1    1    2  502    0 -0.19070382874E+02 -0.34338185151E+02  0.75545728163E+03  0.75647768958E+03  0.00000000000E+00 0. -1.
         22    1    3    3    0    0  0.13964974163E+02  0.59579851124E+02  0.10080498176E+02  0.62019316400E+02  0.00000000000E+00 0. -1.
         22    1    3    3    0    0  0.18457455987E+02  0.38345208675E+02  0.19386031026E+03  0.19847632756E+03  0.00000000000E+00 0. -1.
</event>
<event>
 7    1  0.4915160E-006  0.8730947E+02  0.7818608E-02  0.1333920E+00
          2   -1    0    0  502    0  0.00000000000E+00  0.00000000000E+00  0.44373624832E+03  0.44373624832E+03  0.00000000000E+00 0. -1.
          1   -1    0    0  501    0 -0.00000000000E+00 -0.00000000000E+00 -0.27214317636E+03  0.27214317636E+03  0.00000000000E+00 0. -1.
         25    2    1    2    0    0 -0.74931118502E+02 -0.12708808811E+03 -0.46963744302E+02  0.19898924939E+03  0.12500029374E+03 0.  0.
          2    1    1    2  501    0  0.30067944820E+02  0.73047273750E+02 -0.13500628284E+03  0.15641829149E+03  0.00000000000E+00 0. -1.
          1    1    1    2  502    0  0.44863173682E+02  0.54040814358E+02  0.35356309909E+03  0.36047188380E+03  0.00000000000E+00 0. -1.
         22    1    3    3    0    0 -0.21834583917E+02 -0.13194021360E+03 -0.55864183654E+02  0.14493369531E+03  0.00000000000E+00 0. -1.
         22    1    3    3    0    0 -0.53096534584E+02  0.48521254929E+01  0.89004393520E+01  0.54055554084E+02  0.00000000000E+00 0. -1.
</event>
<event>
 7    1  0.4915160E-006  0.9780264E+02  0.7818608E-02  0.1390907E+00
          2   -1    0    0  502    0  0.00000000000E+00  0.00000000000E+00  0.30694098753E+04  0.30694098753E+04  0.00000000000E+00 0. -1.
          1   -1    0    0  501    0 -0.00000000000E+00 -0.00000000000E+00 -0.89646027478E+02  0.89646027478E+02  0.00000000000E+00 0. -1.
         25    2    1    2    0    0 -0.11003277567E+03  0.75961590872E+02  0.36423249339E+03  0.40763675956E+03  0.12500017399E+03 0.  0.
          2    1    1    2  501    0  0.36377682856E+02 -0.13782678973E+02 -0.61436271669E+02  0.72716666083E+02  0.00000000000E+00 0. -1.
          1    1    1    2  502    0  0.73655092815E+02 -0.62178911899E+02  0.26769676261E+04  0.26787024771E+04  0.00000000000E+00 0. -1.
         22    1    3    3    0    0 -0.11056908183E+03  0.23159254255E+02  0.15472342738E+03  0.19157560360E+03  0.00000000000E+00 0. -1.
         22    1    3    3    0    0  0.53630616287E+00  0.52802336617E+02  0.20950906600E+03  0.21606115596E+03  0.00000000000E+00 0. -1.
</event>
<event>
 7    1  0.4915160E-006  0.1669497E+03  0.7818608E-02  0.1292297E+00
          2   -1    0    0  502    0  0.00000000000E+00  0.00000000000E+00  0.29608159431E+04  0.29608159431E+04  0.00000000000E+00 0. -1.
          1   -1    0    0  501    0 -0.00000000000E+00 -0.00000000000E+00 -0.57735853307E+02  0.57735853307E+02  0.00000000000E+00 0. -1.
         25    2    1    2    0    0 -0.12379862827E+03  0.10357172843E+03  0.33418423484E+03  0.39159462479E+03  0.12495616853E+03 0.  0.
          2    1    1    2  501    0  0.35772290351E+02  0.39775084364E+02  0.94577339170E+00  0.53503351114E+02  0.00000000000E+00 0. -1.
          1    1    1    2  502    0  0.88026337916E+02 -0.14334681279E+03  0.25679500815E+04  0.25734538205E+04  0.00000000000E+00 0. -1.
         22    1    3    3    0    0 -0.10301024918E+03  0.13291207572E+03  0.27679364565E+03  0.32386950085E+03  0.00000000000E+00 0. -1.
         22    1    3    3    0    0 -0.20788379086E+02 -0.29340347294E+02  0.57390589192E+02  0.67725123936E+02  0.00000000000E+00 0. -1.
</event>
<event>
 7    1  0.4915160E-006  0.2515519E+03  0.7818608E-02  0.1348165E+00
          2   -1    0    0  502    0  0.00000000000E+00  0.00000000000E+00  0.53100034912E+03  0.53100034912E+03  0.00000000000E+00 0. -1.
          1   -1    0    0  501    0 -0.00000000000E+00 -0.00000000000E+00 -0.39973961530E+03  0.39973961530E+03  0.00000000000E+00 0. -1.
         25    2    1    2    0    0 -0.25004967257E+03  0.91862786209E+02  0.11462050510E+03  0.31579784878E+03  0.12500724325E+03 0.  0.
          2    1    1    2  501    0  0.22884321260E+03 -0.95707219235E+02 -0.24721617455E+03  0.35020697412E+03  0.00000000000E+00 0. -1.
          1    1    1    2  502    0  0.21206459972E+02  0.38444330255E+01  0.26385640327E+03  0.26473514152E+03  0.00000000000E+00 0. -1.
         22    1    3    3    0    0 -0.16005654750E+03  0.10426708819E+03  0.11863645367E+03  0.22486514229E+03  0.00000000000E+00 0.  1.
         22    1    3    3    0    0 -0.89993125070E+02 -0.12404301978E+02 -0.40159485752E+01  0.90932706494E+02  0.00000000000E+00 0.  1.
</event>
<event>
 7    1  0.4915160E-006  0.3174308E+02  0.7818608E-02  0.1593982E+00
          2   -1    0    0  502    0  0.00000000000E+00  0.00000000000E+00  0.20544559710E+03  0.20544559710E+03  0.00000000000E+00 0. -1.
          1   -1    0    0  501    0 -0.00000000000E+00 -0.00000000000E+00 -0.22321901949E+03  0.22321901949E+03  0.00000000000E+00 0. -1.
         25    2    1    2    0    0 -0.21731389265E+02  0.55760003893E+02 -0.37250725372E+02  0.14350941259E+03  0.12500361454E+03 0.  0.
          2    1    1    2  501    0  0.10668387878E+02 -0.28882282452E+02 -0.12963258329E+03  0.13323891095E+03  0.00000000000E+00 0. -1.
          1    1    1    2  502    0  0.11063001387E+02 -0.26877721440E+02  0.14910988628E+03  0.15191629306E+03  0.00000000000E+00 0. -1.
         22    1    3    3    0    0 -0.60828717366E+02  0.55939128821E+02  0.87919860252E+01  0.83106064809E+02  0.00000000000E+00 0.  1.
         22    1    3    3    0    0  0.39097328101E+02 -0.17912492861E+00 -0.46042711398E+02  0.60403347781E+02  0.00000000000E+00 0.  1.
</event>
<event>
 7    1  0.4915160E-006  0.9550962E+02  0.7818608E-02  0.1416286E+00
          2   -1    0    0  502    0  0.00000000000E+00  0.00000000000E+00  0.27466146548E+04  0.27466146548E+04  0.00000000000E+00 0. -1.
          1   -1    0    0  501    0 -0.00000000000E+00 -0.00000000000E+00 -0.55387941314E+02  0.55387941314E+02  0.00000000000E+00 0. -1.
         25    2    1    2    0    0 -0.44765328467E+02 -0.59443990192E+02  0.59347066366E+02  0.15711033685E+03  0.12499624417E+03 0.  0.
          2    1    1    2  501    0 -0.32515203160E+02  0.25763182048E+01  0.41723969892E+02  0.52960036968E+02  0.00000000000E+00 0. -1.
          1    1    1    2  502    0  0.77280531627E+02  0.56867671987E+02  0.25901556772E+04  0.25919322222E+04  0.00000000000E+00 0. -1.
         22    1    3    3    0    0 -0.21054925190E+02 -0.34926471887E+02  0.97649388893E+02  0.10582330303E+03  0.00000000000E+00 0. -1.
         22    1    3    3    0    0 -0.23710403277E+02 -0.24517518305E+02 -0.38302322527E+02  0.51287033823E+02  0.00000000000E+00 0. -1.
</event>
<event>
 7    1  0.7004046E-006  0.8849619E+02  0.7818608E-02  0.1357921E+00
          2   -1    0    0  502    0  0.00000000000E+00  0.00000000000E+00  0.18898760608E+04  0.18898760608E+04  0.00000000000E+00 0. -1.
          1   -1    0    0  501    0 -0.00000000000E+00 -0.00000000000E+00 -0.47981141624E+03  0.47981141624E+03  0.00000000000E+00 0. -1.
         25    2    1    2    0    0  0.38457568211E+02  0.24767579007E+02 -0.21681339863E+03  0.25441189709E+03  0.12499978412E+03 0.  0.
          2    1    1    2  501    0  0.50259672413E+02 -0.25571558121E+02 -0.23987561874E+03  0.24641479607E+03  0.00000000000E+00 0. -1.
          1    1    1    2  502    0 -0.88717240623E+02  0.80397911416E+00  0.18667536620E+04  0.18688607839E+04  0.00000000000E+00 0. -1.
         22    1    3    3    0    0 -0.42829811983E+02 -0.25720471567E+01 -0.43829429836E+02  0.61335366151E+02  0.00000000000E+00 0.  1.
         22    1    3    3    0    0  0.81287380194E+02  0.27339626163E+02 -0.17298396880E+03  0.19307653094E+03  0.00000000000E+00 0.  1.
</event>
<event>
 7    1  0.4915160E-006  0.1069526E+03  0.7818608E-02  0.1394785E+00
          2   -1    0    0  502    0  0.00000000000E+00  0.00000000000E+00  0.98160791308E+03  0.98160791308E+03  0.00000000000E+00 0. -1.
          1   -1    0    0  501    0 -0.00000000000E+00 -0.00000000000E+00 -0.53497886318E+03  0.53497886318E+03  0.00000000000E+00 0. -1.
         25    2    1    2    0    0  0.76411345567E+02 -0.16362786490E+02 -0.15264376124E+03  0.21220673014E+03  0.12500057584E+03 0.  0.
          2    1    1    2  501    0  0.31037666442E+02  0.15032045435E+02 -0.34866736431E+03  0.35036870589E+03  0.00000000000E+00 0. -1.
          1    1    1    2  502    0 -0.10744901201E+03  0.13307410552E+01  0.94794017545E+03  0.95401134023E+03  0.00000000000E+00 0. -1.
         22    1    3    3    0    0  0.48784083315E+02  0.16199294200E+01  0.68971668677E+01  0.49295860547E+02  0.00000000000E+00 0.  1.
         22    1    3    3    0    0  0.27627262251E+02 -0.17982715910E+02 -0.15954092811E+03  0.16291086959E+03  0.00000000000E+00 0.  1.
</event>
<event>
 7    1  0.4915160E-006  0.7936010E+02  0.7818608E-02  0.1481865E+00
          2   -1    0    0  502    0  0.00000000000E+00  0.00000000000E+00  0.21309727635E+04  0.21309727635E+04  0.00000000000E+00 0. -1.
          1   -1    0    0  501    0 -0.00000000000E+00 -0.00000000000E+00 -0.86746454189E+02  0.86746454189E+02  0.00000000000E+00 0. -1.
         25    2    1    2    0    0 -0.11094170380E+02  0.85190833446E+02  0.81255257619E+03  0.82658715151E+03  0.12499628498E+03 0.  0.
          2    1    1    2  501    0 -0.20390234288E+02 -0.13019933177E+02 -0.76682693851E+02  0.80408431464E+02  0.00000000000E+00 0. -1.
          1    1    1    2  502    0  0.31484404668E+02 -0.72170900269E+02  0.13083564270E+04  0.13107236347E+04  0.00000000000E+00 0. -1.
         22    1    3    3    0    0 -0.41000102888E+02 -0.17463641525E+02  0.22077615438E+03  0.22522898915E+03  0.00000000000E+00 0. -1.
         22    1    3    3    0    0  0.29905932509E+02  0.10265447497E+03  0.59177642181E+03  0.60135816236E+03  0.00000000000E+00 0. -1.
</event>
<event>
 7    1  0.4915160E-006  0.5786309E+02  0.7818608E-02  0.1441088E+00
          2   -1    0    0  502    0  0.00000000000E+00  0.00000000000E+00  0.63258232334E+03  0.63258232334E+03  0.00000000000E+00 0. -1.
          1   -1    0    0  501    0 -0.00000000000E+00 -0.00000000000E+00 -0.13711362030E+03  0.13711362030E+03  0.00000000000E+00 0. -1.
         25    2    1    2    0    0 -0.21123940026E+02 -0.96455123358E+01  0.21926077606E+02  0.12902174631E+03  0.12500640540E+03 0.  0.
          2    1    1    2  501    0 -0.23973786452E+01 -0.44529985391E+02 -0.75918978559E+02  0.88047477697E+02  0.00000000000E+00 0. -1.
          1    1    1    2  502    0  0.23521318671E+02  0.54175497727E+02  0.54946160399E+03  0.55262671963E+03  0.00000000000E+00 0. -1.
         22    1    3    3    0    0 -0.67522862369E+02 -0.29560715214E+02 -0.64807311466E+00  0.73712908132E+02  0.00000000000E+00 0.  1.
         22    1    3    3    0    0  0.46398922343E+02  0.19915202878E+02  0.22574150721E+02  0.55308838182E+02  0.00000000000E+00 0.  1.
</event>
<event>
 7    1  0.4915160E-006  0.7404651E+02  0.7818608E-02  0.1486957E+00
          2   -1    0    0  502    0  0.00000000000E+00  0.00000000000E+00  0.52239241818E+03  0.52239241818E+03  0.00000000000E+00 0. -1.
          1   -1    0    0  501    0 -0.00000000000E+00 -0.00000000000E+00 -0.78027377710E+03  0.78027377710E+03  0.00000000000E+00 0. -1.
         25    2    1    2    0    0 -0.93946382678E+02  0.19098467771E+02 -0.12241207725E+03  0.19949929481E+03  0.12499831072E+03 0.  0.
          2    1    1    2  501    0  0.20410557814E+02 -0.14467909319E+02 -0.61625771625E+03  0.61676533958E+03  0.00000000000E+00 0. -1.
          1    1    1    2  502    0  0.73535824864E+02 -0.46305584518E+01  0.48078843458E+03  0.48640156089E+03  0.00000000000E+00 0. -1.
         22    1    3    3    0    0 -0.11721447844E+03  0.20073390823E+02 -0.60652911347E+02  0.13349513336E+03  0.00000000000E+00 0.  1.
         22    1    3    3    0    0  0.23268095765E+02 -0.97492305194E+00 -0.61759165903E+02  0.66004161448E+02  0.00000000000E+00 0.  1.
</event>
<event>
 7    1  0.4915160E-006  0.3775465E+02  0.7818608E-02  0.1526529E+00
          2   -1    0    0  502    0  0.00000000000E+00  0.00000000000E+00  0.98404317105E+02  0.98404317105E+02  0.00000000000E+00 0. -1.
          1   -1    0    0  501    0 -0.00000000000E+00 -0.00000000000E+00 -0.43806492334E+03  0.43806492334E+03  0.00000000000E+00 0. -1.
         25    2    1    2    0    0  0.23919721880E+02  0.32212643234E+02 -0.18638658374E+03  0.22798101558E+03  0.12500230953E+03 0.  0.
          2    1    1    2  501    0 -0.37315975250E+02  0.34713672469E+01 -0.22455259031E+03  0.22765851228E+03  0.00000000000E+00 0. -1.
          1    1    1    2  502    0  0.13396253369E+02 -0.35684010480E+02  0.71278567808E+02  0.80829712588E+02  0.00000000000E+00 0. -1.
         22    1    3    3    0    0  0.10773041182E+02  0.25977951311E+02 -0.20354801904E+03  0.20548164985E+03  0.00000000000E+00 0. -1.
         22    1    3    3    0    0  0.13146680698E+02  0.62346919225E+01  0.17161435300E+02  0.22499365731E+02  0.00000000000E+00 0. -1.
</event>
<event>
 7    1  0.4915160E-006  0.1873849E+03  0.7818608E-02  0.1194908E+00
          2   -1    0    0  502    0  0.00000000000E+00  0.00000000000E+00  0.32480977506E+04  0.32480977506E+04  0.00000000000E+00 0. -1.
          1   -1    0    0  501    0 -0.00000000000E+00 -0.00000000000E+00 -0.19392611109E+03  0.19392611109E+03  0.00000000000E+00 0. -1.
         25    2    1    2    0    0 -0.11347801399E+03  0.20511051740E+03  0.38262933178E+03  0.46580916572E+03  0.12500155727E+03 0.  0.
          2    1    1    2  501    0  0.16336580014E+03 -0.87683328771E+02 -0.93899508020E+02  0.20783134606E+03  0.00000000000E+00 0. -1.
          1    1    1    2  502    0 -0.49887786142E+02 -0.11742718863E+03  0.27654418157E+04  0.27683833499E+04  0.00000000000E+00 0. -1.
         22    1    3    3    0    0 -0.17316213160E+02  0.10279235667E+02  0.13450110656E+03  0.13600022643E+03  0.00000000000E+00 0. -1.
         22    1    3    3    0    0 -0.96161800835E+02  0.19483128173E+03  0.24812822522E+03  0.32980893929E+03  0.00000000000E+00 0. -1.
</event>
<event>
 7    1  0.4915160E-006  0.3963199E+02  0.7818608E-02  0.1598697E+00
          2   -1    0    0  502    0  0.00000000000E+00  0.00000000000E+00  0.22040043600E+03  0.22040043600E+03  0.00000000000E+00 0. -1.
          1   -1    0    0  501    0 -0.00000000000E+00 -0.00000000000E+00 -0.14337784306E+04  0.14337784306E+04  0.00000000000E+00 0. -1.
         25    2    1    2    0    0  0.17132909378E+02  0.16035542684E+02  0.26697295060E+02  0.12995185179E+03  0.12499625197E+03 0.  0.
          2    1    1    2  501    0  0.22050883813E+02 -0.50681176618E+01 -0.13791431289E+04  0.13793287126E+04  0.00000000000E+00 0. -1.
          1    1    1    2  502    0 -0.39183793192E+02 -0.10967425023E+02  0.13906783929E+03  0.14489830221E+03  0.00000000000E+00 0. -1.
         22    1    3    3    0    0 -0.17519869415E+02 -0.22592278596E+02 -0.37657852237E+02  0.47280764710E+02  0.00000000000E+00 0. -1.
         22    1    3    3    0    0  0.34652778793E+02  0.38627821280E+02  0.64355147297E+02  0.82671087078E+02  0.00000000000E+00 0. -1.
</event>
<event>
 7    1  0.4915160E-006  0.3546261E+02  0.7818608E-02  0.1563475E+00
          2   -1    0    0  502    0  0.00000000000E+00  0.00000000000E+00  0.44921142327E+03  0.44921142327E+03  0.00000000000E+00 0. -1.
          1   -1    0    0  501    0 -0.00000000000E+00 -0.00000000000E+00 -0.37901365281E+02  0.37901365281E+02  0.00000000000E+00 0. -1.
         25    2    1    2    0    0 -0.31280737544E+02  0.10738425033E+02  0.16449936079E+03  0.20923810217E+03  0.12500698135E+03 0.  0.
          2    1    1    2  501    0  0.20328837606E+02  0.23957035445E+02  0.32227572372E+01  0.31584606218E+02  0.00000000000E+00 0. -1.
          1    1    1    2  502    0  0.10951899937E+02 -0.34695460478E+02  0.24358793996E+03  0.24629008016E+03  0.00000000000E+00 0. -1.
         22    1    3    3    0    0  0.38519366127E+02 -0.27447216332E+02  0.42497517297E+02  0.63585613370E+02  0.00000000000E+00 0. -1.
         22    1    3    3    0    0 -0.69800103671E+02  0.38185641365E+02  0.12200184349E+03  0.14565248880E+03  0.00000000000E+00 0. -1.
</event>
<event>
 7    1  0.4915160E-006  0.8870285E+02  0.7818608E-02  0.1371101E+00
          2   -1    0    0  502    0  0.00000000000E+00  0.00000000000E+00  0.20137512878E+04  0.20137512878E+04  0.00000000000E+00 0. -1.
          1   -1    0    0  501    0 -0.00000000000E+00 -0.00000000000E+00 -0.74355080357E+02  0.74355080357E+02  0.00000000000E+00 0. -1.
         25    2    1    2    0    0  0.11233437055E+03 -0.40252693241E+02  0.76789538928E+03  0.78710197689E+03  0.12500761187E+03 0.  0.
          2    1    1    2  501    0 -0.27339827900E+02  0.42339183471E+02 -0.53242701563E+02  0.73313422484E+02  0.00000000000E+00 0. -1.
          1    1    1    2  502    0 -0.84994542651E+02 -0.20864902302E+01  0.12247435197E+04  0.12276909688E+04  0.00000000000E+00 0. -1.
         22    1    3    3    0    0  0.11352957452E+03  0.17563151000E+02  0.52387782291E+03  0.53632583557E+03  0.00000000000E+00 0. -1.
         22    1    3    3    0    0 -0.11952039687E+01 -0.57815844240E+02  0.24401756637E+03  0.25077614132E+03  0.00000000000E+00 0. -1.
</event>
<event>
 7    1  0.4915160E-006  0.7388803E+02  0.7818608E-02  0.1517822E+00
          2   -1    0    0  502    0  0.00000000000E+00  0.00000000000E+00  0.11189132732E+04  0.11189132732E+04  0.00000000000E+00 0. -1.
          1   -1    0    0  501    0 -0.00000000000E+00 -0.00000000000E+00 -0.10108792115E+04  0.10108792115E+04  0.00000000000E+00 0. -1.
         25    2    1    2    0    0 -0.70015619271E+02 -0.31076520168E+02  0.23873410126E+03  0.28015532564E+03  0.12500039332E+03 0.  0.
          2    1    1    2  501    0 -0.30338320480E+01  0.20066148765E+02 -0.98847680478E+03  0.98868511066E+03  0.00000000000E+00 0. -1.
          1    1    1    2  502    0  0.73049451319E+02  0.11010371403E+02  0.85777676520E+03  0.86095204834E+03  0.00000000000E+00 0. -1.
         22    1    3    3    0    0 -0.25903404743E+02 -0.31097075885E+02  0.32804714796E+01  0.40605122817E+02  0.00000000000E+00 0.  1.
         22    1    3    3    0    0 -0.44112214529E+02  0.20555717041E-01  0.23545362978E+03  0.23955020282E+03  0.00000000000E+00 0.  1.
</event>
<event>
 7    1  0.4915160E-006  0.9439204E+02  0.7818608E-02  0.1330449E+00
          2   -1    0    0  502    0  0.00000000000E+00  0.00000000000E+00  0.26763729386E+03  0.26763729386E+03  0.00000000000E+00 0. -1.
          1   -1    0    0  501    0 -0.00000000000E+00 -0.00000000000E+00 -0.24355166466E+04  0.24355166466E+04  0.00000000000E+00 0. -1.
         25    2    1    2    0    0 -0.60746180933E+02 -0.93597746255E+02 -0.44889316475E+03  0.47914804242E+03  0.12500854608E+03 0.  0.
          2    1    1    2  501    0 -0.62223575797E+01  0.94438386921E+02 -0.19658965930E+04  0.19681734530E+04  0.00000000000E+00 0. -1.
          1    1    1    2  502    0  0.66968538512E+02 -0.84064066562E+00  0.24691040503E+03  0.25583244504E+03  0.00000000000E+00 0. -1.
         22    1    3    3    0    0 -0.97248879010E+02 -0.51554516253E+02 -0.32978903300E+03  0.34767228665E+03  0.00000000000E+00 0. -1.
         22    1    3    3    0    0  0.36502698077E+02 -0.42043230002E+02 -0.11910413175E+03  0.13147575577E+03  0.00000000000E+00 0. -1.
</event>
<event>
 7    1  0.4915160E-006  0.4768083E+02  0.7818608E-02  0.1542467E+00
          2   -1    0    0  502    0  0.00000000000E+00  0.00000000000E+00  0.93563956272E+03  0.93563956272E+03  0.00000000000E+00 0. -1.
          1   -1    0    0  501    0 -0.00000000000E+00 -0.00000000000E+00 -0.40516834254E+02  0.40516834254E+02  0.00000000000E+00 0. -1.
         25    2    1    2    0    0  0.16849102589E+02 -0.51320187169E+02  0.23295586841E+03  0.26983456324E+03  0.12499840408E+03 0.  0.
          2    1    1    2  501    0 -0.35338205180E+02  0.32015679992E+02  0.42622325832E+01  0.47874410046E+02  0.00000000000E+00 0. -1.
          1    1    1    2  502    0  0.18489102591E+02  0.19304507177E+02  0.65790462748E+03  0.65844742370E+03  0.00000000000E+00 0. -1.
         22    1    3    3    0    0 -0.21715245281E+02  0.31198277869E+02  0.33914281472E+02  0.50941759955E+02  0.00000000000E+00 0. -1.
         22    1    3    3    0    0  0.38564347869E+02 -0.82518465038E+02  0.19904158694E+03  0.21889280328E+03  0.00000000000E+00 0. -1.
</event>
<event>
 7    1  0.4915160E-006  0.1480502E+03  0.7818608E-02  0.1204297E+00
          2   -1    0    0  502    0  0.00000000000E+00  0.00000000000E+00  0.29845527439E+04  0.29845527439E+04  0.00000000000E+00 0. -1.
          1   -1    0    0  501    0 -0.00000000000E+00 -0.00000000000E+00 -0.79451499488E+02  0.79451499488E+02  0.00000000000E+00 0. -1.
         25    2    1    2    0    0 -0.15078476330E+02 -0.79112701541E+01  0.13559051017E+03  0.18520469511E+03  0.12500417592E+03 0.  0.
          2    1    1    2  501    0 -0.77519188820E+02 -0.12350549816E+03  0.49423809212E+02  0.15396605350E+03  0.00000000000E+00 0. -1.
          1    1    1    2  502    0  0.92597665150E+02  0.13141676832E+03  0.27200869250E+04  0.27248334948E+04  0.00000000000E+00 0. -1.
         22    1    3    3    0    0  0.26311551253E+02 -0.52598457244E+02  0.95920385651E+02  0.11251495819E+03  0.00000000000E+00 0. -1.
         22    1    3    3    0    0 -0.41390027583E+02  0.44687187090E+02  0.39670124523E+02  0.72689736916E+02  0.00000000000E+00 0. -1.
</event>
<event>
 7    1  0.4915160E-006  0.1189981E+03  0.7818608E-02  0.1380430E+00
          2   -1    0    0  502    0  0.00000000000E+00  0.00000000000E+00  0.51275329216E+03  0.51275329216E+03  0.00000000000E+00 0. -1.
          1   -1    0    0  501    0 -0.00000000000E+00 -0.00000000000E+00 -0.10910772781E+04  0.10910772781E+04  0.00000000000E+00 0. -1.
         25    2    1    2    0    0  0.66311506785E+02 -0.87846611678E+02 -0.46145229812E+03  0.49058759188E+03  0.12499487493E+03 0.  0.
          2    1    1    2  501    0 -0.45273708248E+02  0.11556644879E+03 -0.60817388514E+03  0.62070990592E+03  0.00000000000E+00 0. -1.
          1    1    1    2  502    0 -0.21037798538E+02 -0.27719837109E+02  0.49130219733E+03  0.49253307243E+03  0.00000000000E+00 0. -1.
         22    1    3    3    0    0  0.64405426541E+01 -0.10345201050E+03 -0.26196689142E+03  0.28172761892E+03  0.00000000000E+00 0. -1.
         22    1    3    3    0    0  0.59870964131E+02  0.15605398822E+02 -0.19948540670E+03  0.20885997296E+03  0.00000000000E+00 0. -1.
</event>
<event>
 7    1  0.4915160E-006  0.7148853E+02  0.7818608E-02  0.1457260E+00
          2   -1    0    0  502    0  0.00000000000E+00  0.00000000000E+00  0.23667911863E+03  0.23667911863E+03  0.00000000000E+00 0. -1.
          1   -1    0    0  501    0 -0.00000000000E+00 -0.00000000000E+00 -0.92425263238E+03  0.92425263238E+03  0.00000000000E+00 0. -1.
         25    2    1    2    0    0 -0.76483065627E+02  0.65426039506E+01 -0.54642733773E+03  0.56577387617E+03  0.12499911416E+03 0.  0.
          2    1    1    2  501    0  0.91796099434E+01 -0.30692812160E+02 -0.36179571909E+03  0.36321131082E+03  0.00000000000E+00 0. -1.
          1    1    1    2  502    0  0.67303455683E+02  0.24150208210E+02  0.22064954307E+03  0.23194656402E+03  0.00000000000E+00 0. -1.
         22    1    3    3    0    0  0.14775305507E+02 -0.49771407735E+01 -0.46873191433E+01  0.16280434388E+02  0.00000000000E+00 0. -1.
         22    1    3    3    0    0 -0.91258371134E+02  0.11519744724E+02 -0.54174001859E+03  0.54949344178E+03  0.00000000000E+00 0. -1.
</event>
<event>
 7    1  0.4915160E-006  0.8621170E+02  0.7818608E-02  0.1494653E+00
          2   -1    0    0  502    0  0.00000000000E+00  0.00000000000E+00  0.67350418020E+03  0.67350418020E+03  0.00000000000E+00 0. -1.
          1   -1    0    0  501    0 -0.00000000000E+00 -0.00000000000E+00 -0.20784506502E+03  0.20784506502E+03  0.00000000000E+00 0. -1.
         25    2    1    2    0    0  0.69666468148E+02 -0.55799078786E+02  0.37787224508E+03  0.40789669098E+03  0.12500129170E+03 0.  0.
          2    1    1    2  501    0 -0.16801695317E+02 -0.11512290122E+02 -0.18573699691E+03  0.18685037279E+03  0.00000000000E+00 0. -1.
          1    1    1    2  502    0 -0.52864772831E+02  0.67311368908E+02  0.27352386701E+03  0.28660218145E+03  0.00000000000E+00 0. -1.
         22    1    3    3    0    0  0.82719571557E+02 -0.49458776206E+02  0.14223116201E+03  0.17180920089E+03  0.00000000000E+00 0.  1.
         22    1    3    3    0    0 -0.13053103410E+02 -0.63403025801E+01  0.23564108307E+03  0.23608749009E+03  0.00000000000E+00 0.  1.
</event>
<event>
 7    1  0.4915160E-006  0.8837071E+02  0.7818608E-02  0.1369305E+00
          2   -1    0    0  502    0  0.00000000000E+00  0.00000000000E+00  0.19638692050E+04  0.19638692050E+04  0.00000000000E+00 0. -1.
          1   -1    0    0  501    0 -0.00000000000E+00 -0.00000000000E+00 -0.54833668852E+02  0.54833668852E+02  0.00000000000E+00 0. -1.
         25    2    1    2    0    0  0.11563945429E+02 -0.42107169880E+02  0.13651829978E+03  0.19018303033E+03  0.12500240103E+03 0.  0.
          2    1    1    2  501    0  0.40105219110E+02 -0.32061990393E+02 -0.23046618395E+01  0.51397580624E+02  0.00000000000E+00 0. -1.
          1    1    1    2  502    0 -0.51669164539E+02  0.74169160273E+02  0.17748218982E+04  0.17771222629E+04  0.00000000000E+00 0. -1.
         22    1    3    3    0    0  0.28344470456E+02  0.19268434087E+02 -0.53600369474E+01  0.34690222739E+02  0.00000000000E+00 0. -1.
         22    1    3    3    0    0 -0.16780525028E+02 -0.61375603967E+02  0.14187833672E+03  0.15549280760E+03  0.00000000000E+00 0. -1.
</event>
<event>
 7    1  0.4915160E-006  0.9501530E+02  0.7818608E-02  0.1464290E+00
          2   -1    0    0  502    0  0.00000000000E+00  0.00000000000E+00  0.87987085927E+03  0.87987085927E+03  0.00000000000E+00 0. -1.
          1   -1    0    0  501    0 -0.00000000000E+00 -0.00000000000E+00 -0.15928713026E+04  0.15928713026E+04  0.00000000000E+00 0. -1.
         25    2    1    2    0    0  0.27615703005E+02  0.66880369933E+02  0.11421253331E+03  0.18413050452E+03  0.12499571590E+03 0.  0.
          2    1    1    2  501    0 -0.35185445226E+02 -0.88498408164E+02 -0.15562768203E+04  0.15591880981E+04  0.00000000000E+00 0. -1.
          1    1    1    2  502    0  0.75697422215E+01  0.21618038231E+02  0.72906384370E+03  0.72942355923E+03  0.00000000000E+00 0. -1.
         22    1    3    3    0    0  0.53807974935E+02 -0.11770189079E+02  0.19900718053E+02  0.58565126967E+02  0.00000000000E+00 0. -1.
         22    1    3    3    0    0 -0.26192271931E+02  0.78650559012E+02  0.94311815259E+02  0.12556537755E+03  0.00000000000E+00 0. -1.
</event>
<event>
 7    1  0.4915160E-006  0.3577379E+02  0.7818608E-02  0.1545082E+00
          2   -1    0    0  502    0  0.00000000000E+00  0.00000000000E+00  0.14897489292E+04  0.14897489292E+04  0.00000000000E+00 0. -1.
          1   -1    0    0  501    0 -0.00000000000E+00 -0.00000000000E+00 -0.23767109762E+02  0.23767109762E+02  0.00000000000E+00 0. -1.
         25    2    1    2    0    0 -0.29770204307E+02  0.40169300207E+02  0.56028290960E+03  0.57623085373E+03  0.12500088100E+03 0.  0.
          2    1    1    2  501    0  0.35316940268E+02 -0.55823136503E+01  0.52307808127E+01  0.36135987097E+02  0.00000000000E+00 0. -1.
          1    1    1    2  502    0 -0.55467359614E+01 -0.34586986557E+02  0.90046812898E+03  0.90114919809E+03  0.00000000000E+00 0. -1.
         22    1    3    3    0    0 -0.14714152117E+02  0.76867076099E+02  0.21733995098E+03  0.23100153236E+03  0.00000000000E+00 0.  1.
         22    1    3    3    0    0 -0.15056052190E+02 -0.36697775892E+02  0.34294295862E+03  0.34522932136E+03  0.00000000000E+00 0.  1.
</event>
<event>
 7    1  0.4915160E-006  0.1000763E+03  0.7818608E-02  0.1373580E+00
          2   -1    0    0  502    0  0.00000000000E+00  0.00000000000E+00  0.10865779539E+03  0.10865779539E+03  0.00000000000E+00 0. -1.
          1   -1    0    0  501    0 -0.00000000000E+00 -0.00000000000E+00 -0.70377555460E+03  0.70377555460E+03  0.00000000000E+00 0. -1.
         25    2    1    2    0    0 -0.92711733166E+02 -0.99507966565E+02 -0.24522532177E+03  0.30701489824E+03  0.12500155372E+03 0.  0.
          2    1    1    2  501    0  0.71368904885E+02  0.61297636001E+02 -0.41579556390E+03  0.42630607751E+03  0.00000000000E+00 0. -1.
          1    1    1    2  502    0  0.21342828280E+02  0.38210330564E+02  0.65903126460E+02  0.79112374241E+02  0.00000000000E+00 0. -1.
         22    1    3    3    0    0 -0.72084889743E+01 -0.50681493770E+02 -0.18418564404E+03  0.19116727647E+03  0.00000000000E+00 0. -1.
         22    1    3    3    0    0 -0.85503244191E+02 -0.48826472795E+02 -0.61039677725E+02  0.11584762177E+03  0.00000000000E+00 0. -1.
</event>
<event>
 7    1  0.4915160E-006  0.1053531E+03  0.7818608E-02  0.1346546E+00
          2   -1    0    0  502    0  0.00000000000E+00  0.00000000000E+00  0.15108112165E+03  0.15108112165E+03  0.00000000000E+00 0. -1.
          1   -1    0    0  501    0 -0.00000000000E+00 -0.00000000000E+00 -0.88513712177E+03  0.88513712177E+03  0.00000000000E+00 0. -1.
         25    2    1    2    0    0 -0.14135442400E+03 -0.38655545724E+02 -0.72576540264E+02  0.20583602602E+03  0.12500316401E+03 0.  0.
          2    1    1    2  501    0  0.10328174292E+03  0.29755434722E+01 -0.73389143802E+03  0.74112928364E+03  0.00000000000E+00 0. -1.
          1    1    1    2  502    0  0.38072681078E+02  0.35680002252E+02  0.72411978160E+02  0.89252933768E+02  0.00000000000E+00 0. -1.
         22    1    3    3    0    0 -0.65111368434E+01  0.17363686805E+02  0.24327653132E+02  0.30589658863E+02  0.00000000000E+00 0.  1.
         22    1    3    3    0    0 -0.13484328715E+03 -0.56019232529E+02 -0.96904193396E+02  0.17524636715E+03  0.00000000000E+00 0.  1.
</event>
<event>
 7    1  0.4915160E-006  0.6309906E+02  0.7818608E-02  0.1407947E+00
          2   -1    0    0  502    0  0.00000000000E+00  0.00000000000E+00  0.18790798969E+04  0.18790798969E+04  0.00000000000E+00 0. -1.
          1   -1    0    0  501    0 -0.00000000000E+00 -0.00000000000E+00 -0.14018237827E+03  0.14018237827E+03  0.00000000000E+00 0. -1.
         25    2    1    2    0    0  0.63846317548E+02  0.65341653496E+02  0.25732413406E+03  0.30031137094E+03  0.12500130239E+03 0.  0.
          2    1    1    2  501    0 -0.52553307905E+02 -0.36477968693E+01 -0.11219597503E+03  0.12394794636E+03  0.00000000000E+00 0. -1.
          1    1    1    2  502    0 -0.11293009644E+02 -0.61693856627E+02  0.15937693596E+04  0.15950029579E+04  0.00000000000E+00 0. -1.
         22    1    3    3    0    0  0.73200377827E+02  0.44472201393E+02  0.26312741426E+03  0.27671665679E+03  0.00000000000E+00 0. -1.
         22    1    3    3    0    0 -0.93540602790E+01  0.20869452104E+02 -0.58032801977E+01  0.23594714151E+02  0.00000000000E+00 0. -1.
</event>
<event>
 7    1  0.4915160E-006  0.1022927E+03  0.7818608E-02  0.1430746E+00
          2   -1    0    0  502    0  0.00000000000E+00  0.00000000000E+00  0.87079740801E+03  0.87079740801E+03  0.00000000000E+00 0. -1.
          1   -1    0    0  501    0 -0.00000000000E+00 -0.00000000000E+00 -0.97777344587E+03  0.97777344587E+03  0.00000000000E+00 0. -1.
         25    2    1    2    0    0 -0.96226902454E+02  0.11814307456E+02 -0.26769863018E+03  0.31094527881E+03  0.12500086081E+03 0.  0.
          2    1    1    2  501    0  0.10273928483E+03  0.14660906215E+02 -0.68431932373E+03  0.69214394431E+03  0.00000000000E+00 0. -1.
          1    1    1    2  502    0 -0.65123823707E+01 -0.26475213671E+02  0.84504191605E+03  0.84548163076E+03  0.00000000000E+00 0. -1.
         22    1    3    3    0    0 -0.10562931103E+02 -0.34669700877E+02 -0.16668012694E+03  0.17057499345E+03  0.00000000000E+00 0. -1.
         22    1    3    3    0    0 -0.85663971351E+02  0.46484008333E+02 -0.10101850323E+03  0.14037028537E+03  0.00000000000E+00 0. -1.
</event>
<event>
 7    1  0.4915160E-006  0.7346073E+02  0.7818608E-02  0.1458680E+00
          2   -1    0    0  502    0  0.00000000000E+00  0.00000000000E+00  0.83460680267E+03  0.83460680267E+03  0.00000000000E+00 0. -1.
          1   -1    0    0  501    0 -0.00000000000E+00 -0.00000000000E+00 -0.47281734145E+02  0.47281734145E+02  0.00000000000E+00 0. -1.
         25    2    1    2    0    0 -0.19574178443E+02  0.52801840471E+02  0.47023090669E+03  0.48980997664E+03  0.12500209913E+03 0.  0.
          2    1    1    2  501    0  0.50280448651E+02 -0.55829858544E+02  0.16736716521E+01  0.75152496954E+02  0.00000000000E+00 0. -1.
          1    1    1    2  502    0 -0.30706270208E+02  0.30280180728E+01  0.31542049019E+03  0.31692606323E+03  0.00000000000E+00 0. -1.
         22    1    3    3    0    0 -0.68782065885E+02  0.18041448184E+02  0.18302905346E+03  0.19635707487E+03  0.00000000000E+00 0.  1.
         22    1    3    3    0    0  0.49207887442E+02  0.34760392288E+02  0.28720185323E+03  0.29345290177E+03  0.00000000000E+00 0.  1.
</event>
<event>
 7    1  0.4915160E-006  0.6654209E+02  0.7818608E-02  0.1378984E+00
          2   -1    0    0  502    0  0.00000000000E+00  0.00000000000E+00  0.23328458118E+03  0.23328458118E+03  0.00000000000E+00 0. -1.
          1   -1    0    0  501    0 -0.00000000000E+00 -0.00000000000E+00 -0.14132074369E+04  0.14132074369E+04  0.00000000000E+00 0. -1.
         25    2    1    2    0    0  0.97459532350E+02 -0.76101217949E+02 -0.88648620877E+02  0.19690927766E+03  0.12499971930E+03 0.  0.
          2    1    1    2  501    0 -0.38893002888E+02  0.52966720856E+02 -0.12640152445E+04  0.12657221961E+04  0.00000000000E+00 0. -1.
          1    1    1    2  502    0 -0.58566529462E+02  0.23134497094E+02  0.17274100971E+03  0.18386054434E+03  0.00000000000E+00 0. -1.
         22    1    3    3    0    0 -0.21955618811E+01 -0.10671963468E+02  0.28045209644E+02  0.30087291008E+02  0.00000000000E+00 0.  1.
         22    1    3    3    0    0  0.99655094231E+02 -0.65429254481E+02 -0.11669383052E+03  0.16682198665E+03  0.00000000000E+00 0.  1.
</event>
<event>
 7    1  0.4915160E-006  0.9976745E+02  0.7818608E-02  0.1390627E+00
          2   -1    0    0  502    0  0.00000000000E+00  0.00000000000E+00  0.33332642294E+03  0.33332642294E+03  0.00000000000E+00 0. -1.
          1   -1    0    0  501    0 -0.00000000000E+00 -0.00000000000E+00 -0.13367249913E+03  0.13367249913E+03  0.00000000000E+00 0. -1.
         25    2    1    2    0    0  0.52761809967E+02 -0.56180962513E+02  0.13591188887E+03  0.20009214759E+03  0.12499886740E+03 0.  0.
          2    1    1    2  501    0  0.17346112876E+02 -0.34057755345E+02 -0.76791580897E+02  0.85777416770E+02  0.00000000000E+00 0. -1.
          1    1    1    2  502    0 -0.70107922843E+02  0.90238717858E+02  0.14053361583E+03  0.18112935771E+03  0.00000000000E+00 0. -1.
         22    1    3    3    0    0  0.92212814549E+02 -0.55023835030E+02  0.99428656577E+02  0.14634508306E+03  0.00000000000E+00 0. -1.
         22    1    3    3    0    0 -0.39451004581E+02 -0.11571274827E+01  0.36483232291E+02  0.53747064524E+02  0.00000000000E+00 0. -1.
</event>
<event>
 7    1  0.4915160E-006  0.9240326E+02  0.7818608E-02  0.1350163E+00
          2   -1    0    0  502    0  0.00000000000E+00  0.00000000000E+00  0.31776550521E+03  0.31776550521E+03  0.00000000000E+00 0. -1.
          1   -1    0    0  501    0 -0.00000000000E+00 -0.00000000000E+00 -0.22151247174E+04  0.22151247174E+04  0.00000000000E+00 0. -1.
         25    2    1    2    0    0  0.19293044424E+01  0.61861265805E+02  0.10699736715E+03  0.17581359333E+03  0.12502577575E+03 0.  0.
          2    1    1    2  501    0 -0.41419800209E+02  0.40140585258E+02 -0.21633357159E+04  0.21641044998E+04  0.00000000000E+00 0. -1.
          1    1    1    2  502    0  0.39490495767E+02 -0.10200185106E+03  0.15897913657E+03  0.19297212944E+03  0.00000000000E+00 0. -1.
         22    1    3    3    0    0  0.34872228917E+02 -0.23174704718E+02  0.10758669794E+02  0.43230640339E+02  0.00000000000E+00 0. -1.
         22    1    3    3    0    0 -0.32942924474E+02  0.85035970523E+02  0.96238697357E+02  0.13258295299E+03  0.00000000000E+00 0. -1.
</event>
<event>
 7    1  0.4915160E-006  0.1162347E+03  0.7818608E-02  0.1337876E+00
          2   -1    0    0  502    0  0.00000000000E+00  0.00000000000E+00  0.17943889099E+04  0.17943889099E+04  0.00000000000E+00 0. -1.
          1   -1    0    0  501    0 -0.00000000000E+00 -0.00000000000E+00 -0.38304386211E+03  0.38304386211E+03  0.00000000000E+00 0. -1.
         25    2    1    2    0    0 -0.11834926886E+03  0.20681062824E+01  0.15591210480E+02  0.17285582536E+03  0.12500089605E+03 0.  0.
          2    1    1    2  501    0  0.12005459087E+02 -0.49535278684E+02 -0.30026718536E+03  0.30456240327E+03  0.00000000000E+00 0. -1.
          1    1    1    2  502    0  0.10634380977E+03  0.47467172401E+02  0.16960210226E+04  0.17000145433E+04  0.00000000000E+00 0. -1.
         22    1    3    3    0    0 -0.12178845849E+03  0.13165087243E+02 -0.29742631054E+02  0.12605701982E+03  0.00000000000E+00 0.  1.
         22    1    3    3    0    0  0.34391896334E+01 -0.11096980961E+02  0.45333841534E+02  0.46798805540E+02  0.00000000000E+00 0.  1.
</event>
<event>
 7    1  0.4915160E-006  0.1703767E+03  0.7818608E-02  0.1265518E+00
          2   -1    0    0  502    0  0.00000000000E+00  0.00000000000E+00  0.11626877353E+04  0.11626877353E+04  0.00000000000E+00 0. -1.
          1   -1    0    0  501    0 -0.00000000000E+00 -0.00000000000E+00 -0.58593669095E+03  0.58593669095E+03  0.00000000000E+00 0. -1.
         25    2    1    2    0    0 -0.12848032007E+03  0.86371319229E+02 -0.16676490709E+02  0.19967650849E+03  0.12500162107E+03 0.  0.
          2    1    1    2  501    0 -0.40601237592E+02 -0.54129286936E+02 -0.46839863080E+03  0.47326072891E+03  0.00000000000E+00 0. -1.
          1    1    1    2  502    0  0.16908155766E+03 -0.32242032293E+02  0.10618261658E+04  0.10756871888E+04  0.00000000000E+00 0. -1.
         22    1    3    3    0    0 -0.21042172371E+02 -0.24904833042E+02 -0.30156397767E+02  0.44412071030E+02  0.00000000000E+00 0.  1.
         22    1    3    3    0    0 -0.10743814769E+03  0.11127615227E+03  0.13479907058E+02  0.15526443746E+03  0.00000000000E+00 0.  1.
</event>
<event>
 7    1  0.4915160E-006  0.1594067E+03  0.7818608E-02  0.1376808E+00
          2   -1    0    0  502    0  0.00000000000E+00  0.00000000000E+00  0.23898508178E+03  0.23898508178E+03  0.00000000000E+00 0. -1.
          1   -1    0    0  501    0 -0.00000000000E+00 -0.00000000000E+00 -0.86068636346E+03  0.86068636346E+03  0.00000000000E+00 0. -1.
         25    2    1    2    0    0  0.50286738933E+02  0.17129524513E+03 -0.38531655564E+02  0.22131671522E+03  0.12500233133E+03 0.  0.
          2    1    1    2  501    0 -0.29063961557E+02 -0.15499799559E+03 -0.72095209943E+03  0.73799798250E+03  0.00000000000E+00 0. -1.
          1    1    1    2  502    0 -0.21222777376E+02 -0.16297249538E+02  0.13778247331E+03  0.14035674752E+03  0.00000000000E+00 0. -1.
         22    1    3    3    0    0  0.19028736109E+02  0.18144782436E+03 -0.19867718948E+02  0.18352147563E+03  0.00000000000E+00 0.  1.
         22    1    3    3    0    0  0.31258002824E+02 -0.10152579227E+02 -0.18663936616E+02  0.37795239588E+02  0.00000000000E+00 0.  1.
</event>
<event>
 7    1  0.4915160E-006  0.2831642E+03  0.7818608E-02  0.1187580E+00
          2   -1    0    0  502    0  0.00000000000E+00  0.00000000000E+00  0.15466532821E+04  0.15466532821E+04  0.00000000000E+00 0. -1.
          1   -1    0    0  501    0 -0.00000000000E+00 -0.00000000000E+00 -0.12348782906E+04  0.12348782906E+04  0.00000000000E+00 0. -1.
         25    2    1    2    0    0  0.19427824145E+02 -0.26373945829E+03  0.96759853396E+03  0.10108448884E+04  0.12499809340E+03 0.  0.
          2    1    1    2  501    0 -0.65825615072E+02 -0.63602410694E+02 -0.11622751030E+04  0.11658737897E+04  0.00000000000E+00 0. -1.
          1    1    1    2  502    0  0.46397790927E+02  0.32734186898E+03  0.50645156067E+03  0.60481289462E+03  0.00000000000E+00 0. -1.
         22    1    3    3    0    0 -0.21909599591E+01 -0.16402545112E+03  0.37189213525E+03  0.40646390883E+03  0.00000000000E+00 0. -1.
         22    1    3    3    0    0  0.21618784104E+02 -0.99714007172E+02  0.59570639870E+03  0.60438097961E+03  0.00000000000E+00 0. -1.
</event>
<event>
 7    1  0.4915160E-006  0.4792569E+02  0.7818608E-02  0.1493421E+00
          2   -1    0    0  502    0  0.00000000000E+00  0.00000000000E+00  0.10932525991E+04  0.10932525991E+04  0.00000000000E+00 0. -1.
          1   -1    0    0  501    0 -0.00000000000E+00 -0.00000000000E+00 -0.86619562763E+02  0.86619562763E+02  0.00000000000E+00 0. -1.
         25    2    1    2    0    0 -0.15756811196E+02 -0.73802826276E+02  0.15760478252E+03  0.21484685223E+03  0.12499907269E+03 0.  0.
          2    1    1    2  501    0 -0.11653785474E+02  0.35066274342E+02 -0.51423937768E+02  0.63323579239E+02  0.00000000000E+00 0. -1.
          1    1    1    2  502    0  0.27410596670E+02  0.38736551934E+02  0.90045219161E+03  0.90170173042E+03  0.00000000000E+00 0. -1.
         22    1    3    3    0    0 -0.13697102064E+02 -0.96341038530E+02  0.59265493029E+02  0.11393684643E+03  0.00000000000E+00 0. -1.
         22    1    3    3    0    0 -0.20597091315E+01  0.22538212254E+02  0.98339289487E+02  0.10091000580E+03  0.00000000000E+00 0. -1.
</event>
<event>
 7    1  0.4915160E-006  0.7780729E+02  0.7818608E-02  0.1411399E+00
          2   -1    0    0  502    0  0.00000000000E+00  0.00000000000E+00  0.33057829516E+03  0.33057829516E+03  0.00000000000E+00 0. -1.
          1   -1    0    0  501    0 -0.00000000000E+00 -0.00000000000E+00 -0.79166049463E+03  0.79166049463E+03  0.00000000000E+00 0. -1.
         25    2    1    2    0    0 -0.99029920211E+02  0.56236542531E+02  0.31157641175E+02  0.17194225655E+03  0.12499546860E+03 0.  0.
          2    1    1    2  501    0  0.57762978583E+02 -0.51099402977E+02 -0.71729628609E+03  0.72143029651E+03  0.00000000000E+00 0. -1.
          1    1    1    2  502    0  0.41266941627E+02 -0.51371395542E+01  0.22505644545E+03  0.22886623672E+03  0.00000000000E+00 0. -1.
         22    1    3    3    0    0 -0.19838051874E+02  0.83042013009E+02  0.12621950865E+02  0.86306650210E+02  0.00000000000E+00 0.  1.
         22    1    3    3    0    0 -0.79191868336E+02 -0.26805470479E+02  0.18535690309E+02  0.85635606341E+02  0.00000000000E+00 0.  1.
</event>
<event>
 7    1  0.4915160E-006  0.7160387E+02  0.7818608E-02  0.1403064E+00
          2   -1    0    0  502    0  0.00000000000E+00  0.00000000000E+00  0.30850516262E+03  0.30850516262E+03  0.00000000000E+00 0. -1.
          1   -1    0    0  501    0 -0.00000000000E+00 -0.00000000000E+00 -0.39787615079E+04  0.39787615079E+04  0.00000000000E+00 0. -1.
         25    2    1    2    0    0 -0.94083019642E+01 -0.11370145631E+03  0.12873273375E+02  0.16972776654E+03  0.12500102501E+03 0.  0.
          2    1    1    2  501    0 -0.11962091931E+02  0.70455903579E+02 -0.38973244371E+04  0.38979795913E+04  0.00000000000E+00 0. -1.
          1    1    1    2  502    0  0.21370393895E+02  0.43245552727E+02  0.21419481842E+03  0.21955931273E+03  0.00000000000E+00 0. -1.
         22    1    3    3    0    0 -0.49613991754E+02 -0.11024571784E+03 -0.13306831958E+02  0.12162540137E+03  0.00000000000E+00 0. -1.
         22    1    3    3    0    0  0.40205689790E+02 -0.34557384621E+01  0.26180105333E+02  0.48102365171E+02  0.00000000000E+00 0. -1.
</event>
<event>
 7    1  0.4915160E-006  0.1117027E+03  0.7818608E-02  0.1259817E+00
          2   -1    0    0  502    0  0.00000000000E+00  0.00000000000E+00  0.19331326377E+04  0.19331326377E+04  0.00000000000E+00 0. -1.
          1   -1    0    0  501    0 -0.00000000000E+00 -0.00000000000E+00 -0.31456448459E+03  0.31456448459E+03  0.00000000000E+00 0. -1.
         25    2    1    2    0    0 -0.65186297367E+02  0.22849914692E+02  0.72639973821E+02  0.16023131079E+03  0.12500454069E+03 0.  0.
          2    1    1    2  501    0 -0.11948864033E+02 -0.10847155418E+03 -0.25785940597E+03  0.28000058333E+03  0.00000000000E+00 0. -1.
          1    1    1    2  502    0  0.77135161400E+02  0.85621639484E+02  0.18037875853E+04  0.18074652282E+04  0.00000000000E+00 0. -1.
         22    1    3    3    0    0 -0.76022418690E+02  0.24984299551E+02  0.10154594855E+03  0.12928728876E+03  0.00000000000E+00 0.  1.
         22    1    3    3    0    0  0.10836121322E+02 -0.21343848593E+01 -0.28905974731E+02  0.30944022027E+02  0.00000000000E+00 0.  1.
</event>
<event>
 7    1  0.4915160E-006  0.3196237E+02  0.7818608E-02  0.1643073E+00
          2   -1    0    0  502    0  0.00000000000E+00  0.00000000000E+00  0.12451919546E+04  0.12451919546E+04  0.00000000000E+00 0. -1.
          1   -1    0    0  501    0 -0.00000000000E+00 -0.00000000000E+00 -0.50717091338E+03  0.50717091338E+03  0.00000000000E+00 0. -1.
         25    2    1    2    0    0 -0.12155654585E+02  0.40497255075E+02 -0.32994582632E+01  0.13200021427E+03  0.12500153013E+03 0.  0.
          2    1    1    2  501    0  0.23215811205E+02 -0.21906507198E+02 -0.43884229433E+03  0.44000162299E+03  0.00000000000E+00 0. -1.
          1    1    1    2  502    0 -0.11060156619E+02 -0.18590747877E+02  0.11801627938E+04  0.11803610307E+04  0.00000000000E+00 0. -1.
         22    1    3    3    0    0  0.58359474337E+01 -0.16742878103E+02  0.49185128939E+02  0.52283450138E+02  0.00000000000E+00 0.  1.
         22    1    3    3    0    0 -0.17991602019E+02  0.57240133178E+02 -0.52484587202E+02  0.79716764129E+02  0.00000000000E+00 0.  1.
</event>
<event>
 7    1  0.4915160E-006  0.5642505E+02  0.7818608E-02  0.1545654E+00
          2   -1    0    0  502    0  0.00000000000E+00  0.00000000000E+00  0.13216490937E+04  0.13216490937E+04  0.00000000000E+00 0. -1.
          1   -1    0    0  501    0 -0.00000000000E+00 -0.00000000000E+00 -0.21588673459E+03  0.21588673459E+03  0.00000000000E+00 0. -1.
         25    2    1    2    0    0 -0.71495199352E+02 -0.25042905467E+02 -0.37799052928E+02  0.15097000585E+03  0.12499785446E+03 0.  0.
          2    1    1    2  501    0  0.16054416555E+02  0.15226331023E+02 -0.11986265946E+03  0.12188782786E+03  0.00000000000E+00 0. -1.
          1    1    1    2  502    0  0.55440782797E+02  0.98165744445E+01  0.12634240715E+04  0.12646779946E+04  0.00000000000E+00 0. -1.
         22    1    3    3    0    0 -0.83064628965E+01  0.37056266494E+02 -0.48645286103E+02  0.61713273065E+02  0.00000000000E+00 0. -1.
         22    1    3    3    0    0 -0.63188736456E+02 -0.62099171961E+02  0.10846233175E+02  0.89256732784E+02  0.00000000000E+00 0. -1.
</event>
<event>
 7    1  0.4915160E-006  0.6074709E+02  0.7818608E-02  0.1502078E+00
          2   -1    0    0  502    0  0.00000000000E+00  0.00000000000E+00  0.25768285942E+03  0.25768285942E+03  0.00000000000E+00 0. -1.
          1   -1    0    0  501    0 -0.00000000000E+00 -0.00000000000E+00 -0.44255701193E+03  0.44255701193E+03  0.00000000000E+00 0. -1.
         25    2    1    2    0    0 -0.22434925841E+02  0.27353875990E+02  0.89730511979E+01  0.13021958401E+03  0.12500025593E+03 0.  0.
          2    1    1    2  501    0  0.46606207698E+02 -0.40393894050E+02 -0.37842119690E+03  0.38341414624E+03  0.00000000000E+00 0. -1.
          1    1    1    2  502    0 -0.24171281857E+02  0.13040018060E+02  0.18457399319E+03  0.18660614111E+03  0.00000000000E+00 0. -1.
         22    1    3    3    0    0 -0.71608902807E+02 -0.23481609962E+01  0.12209801676E+02  0.72680314242E+02  0.00000000000E+00 0.  1.
         22    1    3    3    0    0  0.49173976966E+02  0.29702036986E+02 -0.32367504778E+01  0.57539269768E+02  0.00000000000E+00 0.  1.
</event>
<event>
 7    1  0.4915160E-006  0.5171766E+02  0.7818608E-02  0.1565909E+00
          2   -1    0    0  502    0  0.00000000000E+00  0.00000000000E+00  0.74220272713E+03  0.74220272713E+03  0.00000000000E+00 0. -1.
          1   -1    0    0  501    0 -0.00000000000E+00 -0.00000000000E+00 -0.44566695915E+03  0.44566695915E+03  0.00000000000E+00 0. -1.
         25    2    1    2    0    0  0.85550069478E+01  0.47301003511E+02  0.29058800719E+02  0.13703735424E+03  0.12499699789E+03 0.  0.
          2    1    1    2  501    0  0.20734380992E+02 -0.44981439689E+01 -0.39036893696E+03  0.39094507900E+03  0.00000000000E+00 0. -1.
          1    1    1    2  502    0 -0.29289387940E+02 -0.42802859542E+02  0.65784590422E+03  0.65988725304E+03  0.00000000000E+00 0. -1.
         22    1    3    3    0    0 -0.43060840676E+02  0.57606236925E+02  0.41385383419E+02  0.82978699033E+02  0.00000000000E+00 0. -1.
         22    1    3    3    0    0  0.51615847623E+02 -0.10305233414E+02 -0.12326582700E+02  0.54058655206E+02  0.00000000000E+00 0. -1.
</event>
<event>
 7    1  0.4915160E-006  0.3999607E+02  0.7818608E-02  0.1577790E+00
          2   -1    0    0  502    0  0.00000000000E+00  0.00000000000E+00  0.29524052538E+03  0.29524052538E+03  0.00000000000E+00 0. -1.
          1   -1    0    0  501    0 -0.00000000000E+00 -0.00000000000E+00 -0.17917325170E+04  0.17917325170E+04  0.00000000000E+00 0. -1.
         25    2    1    2    0    0  0.23285502477E+02 -0.29432035473E+02 -0.51198442492E+03  0.52835485619E+03  0.12498937302E+03 0.  0.
          2    1    1    2  501    0 -0.29004203340E+00  0.40392871464E+02 -0.12706761392E+04  0.12713180244E+04  0.00000000000E+00 0. -1.
          1    1    1    2  502    0 -0.22995460444E+02 -0.10960835992E+02  0.28616857250E+03  0.28730016187E+03  0.00000000000E+00 0. -1.
         22    1    3    3    0    0  0.27741997290E+02 -0.64285086300E+02 -0.46188831149E+03  0.46716485637E+03  0.00000000000E+00 0.  1.
         22    1    3    3    0    0 -0.44564948129E+01  0.34853050827E+02 -0.50096113423E+02  0.61189999821E+02  0.00000000000E+00 0.  1.
</event>
<event>
 7    1  0.4915160E-006  0.1578595E+03  0.7818608E-02  0.1258781E+00
          2   -1    0    0  502    0  0.00000000000E+00  0.00000000000E+00  0.17413087613E+04  0.17413087613E+04  0.00000000000E+00 0. -1.
          1   -1    0    0  501    0 -0.00000000000E+00 -0.00000000000E+00 -0.13838603174E+04  0.13838603174E+04  0.00000000000E+00 0. -1.
         25    2    1    2    0    0 -0.12928679929E+03  0.12448803785E+03  0.99880527462E+03  0.10224721777E+04  0.12500011774E+03 0.  0.
          2    1    1    2  501    0 -0.13171828908E+02 -0.76890239931E+02 -0.13631809660E+04  0.13654112758E+04  0.00000000000E+00 0. -1.
          1    1    1    2  502    0  0.14245862820E+03 -0.47597797916E+02  0.72182413524E+03  0.73728562534E+03  0.00000000000E+00 0. -1.
         22    1    3    3    0    0 -0.11253001390E+03  0.24104234071E+02  0.59598065360E+03  0.60699008031E+03  0.00000000000E+00 0. -1.
         22    1    3    3    0    0 -0.16756785397E+02  0.10038380378E+03  0.40282462102E+03  0.41548209734E+03  0.00000000000E+00 0. -1.
</event>
<event>
 7    1  0.4915160E-006  0.5739938E+02  0.7818608E-02  0.1467278E+00
          2   -1    0    0  502    0  0.00000000000E+00  0.00000000000E+00  0.21224341795E+03  0.21224341795E+03  0.00000000000E+00 0. -1.
          1   -1    0    0  501    0 -0.00000000000E+00 -0.00000000000E+00 -0.35451023627E+03  0.35451023627E+03  0.00000000000E+00 0. -1.
         25    2    1    2    0    0 -0.23105657891E+02 -0.44059945532E+02 -0.85473435880E+02  0.15939497994E+03  0.12500360460E+03 0.  0.
          2    1    1    2  501    0  0.54219202741E+02  0.23837448992E+02 -0.22625654370E+03  0.23388024604E+03  0.00000000000E+00 0. -1.
          1    1    1    2  502    0 -0.31113544850E+02  0.20222496539E+02  0.16946316126E+03  0.17347842824E+03  0.00000000000E+00 0. -1.
         22    1    3    3    0    0 -0.59061256509E+02 -0.67670042071E+02 -0.69279072599E+02  0.11343304860E+03  0.00000000000E+00 0. -1.
         22    1    3    3    0    0  0.35955598618E+02  0.23610096539E+02 -0.16194363281E+02  0.45961931342E+02  0.00000000000E+00 0. -1.
</event>
<event>
 7    1  0.4915160E-006  0.4696848E+02  0.7818608E-02  0.1508096E+00
          2   -1    0    0  502    0  0.00000000000E+00  0.00000000000E+00  0.43728584175E+03  0.43728584175E+03  0.00000000000E+00 0. -1.
          1   -1    0    0  501    0 -0.00000000000E+00 -0.00000000000E+00 -0.39864113926E+03  0.39864113926E+03  0.00000000000E+00 0. -1.
         25    2    1    2    0    0 -0.17953089701E+02  0.60747755790E+02 -0.17528922481E+03  0.22441873439E+03  0.12499941098E+03 0.  0.
          2    1    1    2  501    0 -0.17063449678E+02 -0.29514540793E+02 -0.19597714672E+03  0.19892036464E+03  0.00000000000E+00 0. -1.
          1    1    1    2  502    0  0.35016539379E+02 -0.31233214997E+02  0.40991107402E+03  0.41258788197E+03  0.00000000000E+00 0. -1.
         22    1    3    3    0    0 -0.44859602143E+02  0.69790589810E+02 -0.52021977775E+02  0.97925464012E+02  0.00000000000E+00 0.  1.
         22    1    3    3    0    0  0.26906512441E+02 -0.90428340197E+01 -0.12326724703E+03  0.12649327038E+03  0.00000000000E+00 0.  1.
</event>
<event>
 7    1  0.4915160E-006  0.6627171E+02  0.7818608E-02  0.1463990E+00
          2   -1    0    0  502    0  0.00000000000E+00  0.00000000000E+00  0.24839906943E+02  0.24839906943E+02  0.00000000000E+00 0. -1.
          1   -1    0    0  501    0 -0.00000000000E+00 -0.00000000000E+00 -0.99945920692E+03  0.99945920692E+03  0.00000000000E+00 0. -1.
         25    2    1    2    0    0 -0.64238660657E+02  0.36046735957E+02 -0.39299085596E+03  0.41891991079E+03  0.12500442427E+03 0.  0.
          2    1    1    2  501    0  0.27181734827E+02  0.18554404540E+02 -0.49688474010E+03  0.49797345067E+03  0.00000000000E+00 0. -1.
          1    1    1    2  502    0  0.37056925830E+02 -0.54601140497E+02 -0.84743703921E+02  0.10740575241E+03  0.00000000000E+00 0. -1.
         22    1    3    3    0    0  0.27419474564E+02 -0.21259959591E+02 -0.13069929662E+03  0.13522617943E+03  0.00000000000E+00 0.  1.
         22    1    3    3    0    0 -0.91658135221E+02  0.57306695548E+02 -0.26229155934E+03  0.28369373135E+03  0.00000000000E+00 0.  1.
</event>
<event>
 7    1  0.4915160E-006  0.1089957E+03  0.7818608E-02  0.1439640E+00
          2   -1    0    0  502    0  0.00000000000E+00  0.00000000000E+00  0.32849357606E+04  0.32849357606E+04  0.00000000000E+00 0. -1.
          1   -1    0    0  501    0 -0.00000000000E+00 -0.00000000000E+00 -0.42692454613E+03  0.42692454613E+03  0.00000000000E+00 0. -1.
         25    2    1    2    0    0 -0.11615913282E+02  0.87698099874E+02  0.23284221739E+03  0.27868836546E+03  0.12500328268E+03 0.  0.
          2    1    1    2  501    0  0.89848534597E+01  0.22180755911E+02 -0.40264908148E+03  0.40335963648E+03  0.00000000000E+00 0. -1.
          1    1    1    2  502    0  0.26310598223E+01 -0.10987885579E+03  0.30278180786E+04  0.30298123048E+04  0.00000000000E+00 0. -1.
         22    1    3    3    0    0 -0.67281651048E+01  0.87594172503E+02  0.61412839271E+02  0.10718929093E+03  0.00000000000E+00 0.  1.
         22    1    3    3    0    0 -0.48877481772E+01  0.10392737081E+00  0.17142937812E+03  0.17149907453E+03  0.00000000000E+00 0.  1.
</event>
<event>
 7    1  0.4915160E-006  0.1825094E+03  0.7818608E-02  0.1321845E+00
          2   -1    0    0  502    0  0.00000000000E+00  0.00000000000E+00  0.18767929514E+04  0.18767929514E+04  0.00000000000E+00 0. -1.
          1   -1    0    0  501    0 -0.00000000000E+00 -0.00000000000E+00 -0.25469389894E+04  0.25469389894E+04  0.00000000000E+00 0. -1.
         25    2    1    2    0    0 -0.11744653073E+03 -0.88462937564E+02  0.79330430958E+03  0.81644146972E+03  0.12500226793E+03 0.  0.
          2    1    1    2  501    0  0.15314222811E+03  0.99552047140E+02 -0.25317533585E+04  0.25383337488E+04  0.00000000000E+00 0. -1.
          1    1    1    2  502    0 -0.35695697384E+02 -0.11089109576E+02  0.10683030108E+04  0.10689567223E+04  0.00000000000E+00 0. -1.
         22    1    3    3    0    0 -0.90680496570E+02 -0.20695342806E+01  0.25636457455E+03  0.27193754892E+03  0.00000000000E+00 0.  1.
         22    1    3    3    0    0 -0.26766034160E+02 -0.86393403284E+02  0.53693973503E+03  0.54450392080E+03  0.00000000000E+00 0.  1.
</event>
<event>
 7    1  0.4915160E-006  0.7320421E+02  0.7818608E-02  0.1483214E+00
          2   -1    0    0  502    0  0.00000000000E+00  0.00000000000E+00  0.10334316545E+03  0.10334316545E+03  0.00000000000E+00 0. -1.
          1   -1    0    0  501    0 -0.00000000000E+00 -0.00000000000E+00 -0.20134125789E+03  0.20134125789E+03  0.00000000000E+00 0. -1.
         25    2    1    2    0    0  0.52252265517E+02 -0.21908798188E+02 -0.76344169359E+02  0.15704977899E+03  0.12500362473E+03 0.  0.
          2    1    1    2  501    0 -0.72075910228E+02  0.38699963897E+02 -0.59904304478E+02  0.10139600454E+03  0.00000000000E+00 0. -1.
          1    1    1    2  502    0  0.19823644711E+02 -0.16791165709E+02  0.38250381388E+02  0.46238639814E+02  0.00000000000E+00 0. -1.
         22    1    3    3    0    0 -0.34226610196E+02 -0.34827662148E+02 -0.18540033489E+02  0.52231788577E+02  0.00000000000E+00 0. -1.
         22    1    3    3    0    0  0.86478875713E+02  0.12918863960E+02 -0.57804135871E+02  0.10481799041E+03  0.00000000000E+00 0. -1.
</event>
<event>
 7    1  0.4915160E-006  0.9292727E+02  0.7818608E-02  0.1479971E+00
          2   -1    0    0  502    0  0.00000000000E+00  0.00000000000E+00  0.57221439732E+03  0.57221439732E+03  0.00000000000E+00 0. -1.
          1   -1    0    0  501    0 -0.00000000000E+00 -0.00000000000E+00 -0.79946841214E+03  0.79946841214E+03  0.00000000000E+00 0. -1.
         25    2    1    2    0    0 -0.28543222797E+02 -0.99172161556E+02  0.10853981293E+03  0.19507695495E+03  0.12499717663E+03 0.  0.
          2    1    1    2  501    0  0.19466084338E+02  0.77130680878E+01 -0.75102897009E+03  0.75132079286E+03  0.00000000000E+00 0. -1.
          1    1    1    2  502    0  0.90771384588E+01  0.91459093468E+02  0.41523514235E+03  0.42528506165E+03  0.00000000000E+00 0. -1.
         22    1    3    3    0    0  0.81799018049E+00 -0.56406917717E+02 -0.17265956400E+02  0.58995955155E+02  0.00000000000E+00 0. -1.
         22    1    3    3    0    0 -0.29361212977E+02 -0.42765243839E+02  0.12580576933E+03  0.13608099980E+03  0.00000000000E+00 0. -1.
</event>
<event>
 7    1  0.4915160E-006  0.2269743E+03  0.7818608E-02  0.1281974E+00
          2   -1    0    0  502    0  0.00000000000E+00  0.00000000000E+00  0.27990067715E+03  0.27990067715E+03  0.00000000000E+00 0. -1.
          1   -1    0    0  501    0 -0.00000000000E+00 -0.00000000000E+00 -0.57566263158E+03  0.57566263158E+03  0.00000000000E+00 0. -1.
         25    2    1    2    0    0 -0.21596563183E+03  0.13810868417E+03 -0.30445050867E+03  0.41716951785E+03  0.12500052647E+03 0.  0.
          2    1    1    2  501    0  0.43294266450E+02  0.24078340654E+01 -0.15571972689E+03  0.16164412923E+03  0.00000000000E+00 0. -1.
          1    1    1    2  502    0  0.17267136538E+03 -0.14051651824E+03  0.16440828113E+03  0.27674966165E+03  0.00000000000E+00 0. -1.
         22    1    3    3    0    0 -0.18663986405E+03  0.12758848873E+03 -0.31181842188E+03  0.38515450086E+03  0.00000000000E+00 0.  1.
         22    1    3    3    0    0 -0.29325767781E+02  0.10520195439E+02  0.73679132046E+01  0.32015016992E+02  0.00000000000E+00 0.  1.
</event>
<event>
 7    1  0.4915160E-006  0.6592838E+02  0.7818608E-02  0.1394444E+00
          2   -1    0    0  502    0  0.00000000000E+00  0.00000000000E+00  0.15745235376E+04  0.15745235376E+04  0.00000000000E+00 0. -1.
          1   -1    0    0  501    0 -0.00000000000E+00 -0.00000000000E+00 -0.63364906497E+03  0.63364906497E+03  0.00000000000E+00 0. -1.
         25    2    1    2    0    0 -0.32988983886E+02 -0.35562927345E+02  0.14209522295E+03  0.19536986011E+03  0.12500133997E+03 0.  0.
          2    1    1    2  501    0 -0.33403437949E+02  0.45068572081E+02 -0.60491324509E+03  0.60750884763E+03  0.00000000000E+00 0. -1.
          1    1    1    2  502    0  0.66392421835E+02 -0.95056447357E+01  0.14036924948E+04  0.14052938949E+04  0.00000000000E+00 0. -1.
         22    1    3    3    0    0 -0.47031603431E+02 -0.16666858557E+02 -0.14385123057E+01  0.49918185194E+02  0.00000000000E+00 0. -1.
         22    1    3    3    0    0  0.14042619545E+02 -0.18896068788E+02  0.14353373525E+03  0.14545167491E+03  0.00000000000E+00 0. -1.
</event>
<event>
 7    1  0.4915160E-006  0.1072462E+03  0.7818608E-02  0.1280829E+00
          2   -1    0    0  502    0  0.00000000000E+00  0.00000000000E+00  0.20436458718E+03  0.20436458718E+03  0.00000000000E+00 0. -1.
          1   -1    0    0  501    0 -0.00000000000E+00 -0.00000000000E+00 -0.21795007077E+04  0.21795007077E+04  0.00000000000E+00 0. -1.
         25    2    1    2    0    0  0.83228293791E+02 -0.14030668748E+03 -0.81262509185E+02  0.22100109532E+03  0.12499989318E+03 0.  0.
          2    1    1    2  501    0  0.31911708474E+01  0.10656756541E+03 -0.20107888460E+04  0.20136133225E+04  0.00000000000E+00 0. -1.
          1    1    1    2  502    0 -0.86419464638E+02  0.33739122066E+02  0.11691523460E+03  0.14925087707E+03  0.00000000000E+00 0. -1.
         22    1    3    3    0    0  0.43629610443E+02 -0.66968713741E+01 -0.67928415504E+02  0.81010250132E+02  0.00000000000E+00 0.  1.
         22    1    3    3    0    0  0.39598683348E+02 -0.13360981611E+03 -0.13334093681E+02  0.13999084519E+03  0.00000000000E+00 0.  1.
</event>
<event>
 7    1  0.4915160E-006  0.1351643E+03  0.7818608E-02  0.1252146E+00
          2   -1    0    0  502    0  0.00000000000E+00  0.00000000000E+00  0.32055368397E+03  0.32055368397E+03  0.00000000000E+00 0. -1.
          1   -1    0    0  501    0 -0.00000000000E+00 -0.00000000000E+00 -0.23255744887E+04  0.23255744887E+04  0.00000000000E+00 0. -1.
         25    2    1    2    0    0  0.50581645184E+02  0.62288769180E+02 -0.62066598756E+03  0.63818618149E+03  0.12496775798E+03 0.  0.
          2    1    1    2  501    0  0.85518592870E+02 -0.46399200538E+02 -0.16796176683E+04  0.16824333054E+04  0.00000000000E+00 0. -1.
          1    1    1    2  502    0 -0.13610023805E+03 -0.15889568642E+02  0.29526285117E+03  0.32550868571E+03  0.00000000000E+00 0. -1.
         22    1    3    3    0    0  0.51119567654E+01 -0.19661770864E+02 -0.14851054257E+02  0.25164879256E+02  0.00000000000E+00 0.  1.
         22    1    3    3    0    0  0.45469688419E+02  0.81950540044E+02 -0.60581493330E+03  0.61302130223E+03  0.00000000000E+00 0.  1.
</event>
<event>
 7    1  0.4915160E-006  0.1178761E+03  0.7818608E-02  0.1261687E+00
          2   -1    0    0  502    0  0.00000000000E+00  0.00000000000E+00  0.42503029143E+03  0.42503029143E+03  0.00000000000E+00 0. -1.
          1   -1    0    0  501    0 -0.00000000000E+00 -0.00000000000E+00 -0.20083886463E+03  0.20083886463E+03  0.00000000000E+00 0. -1.
         25    2    1    2    0    0 -0.66109532485E+02  0.88352848938E+02  0.70434178154E+02  0.18100460700E+03  0.12499999241E+03 0.  0.
          2    1    1    2  501    0 -0.62197689063E+02 -0.80249590748E+02 -0.11106864687E+03  0.15048187153E+03  0.00000000000E+00 0. -1.
          1    1    1    2  502    0  0.12830722155E+03 -0.81032581897E+01  0.26482589552E+03  0.29438267753E+03  0.00000000000E+00 0. -1.
         22    1    3    3    0    0 -0.99665062208E+02  0.38960983827E+02  0.46430844720E+02  0.11664864434E+03  0.00000000000E+00 0. -1.
         22    1    3    3    0    0  0.33555529723E+02  0.49391865111E+02  0.24003333435E+02  0.64355962661E+02  0.00000000000E+00 0. -1.
</event>
<event>
 7    1  0.4915160E-006  0.9161605E+02  0.7818608E-02  0.1336316E+00
          2   -1    0    0  502    0  0.00000000000E+00  0.00000000000E+00  0.61130304227E+03  0.61130304227E+03  0.00000000000E+00 0. -1.
          1   -1    0    0  501    0 -0.00000000000E+00 -0.00000000000E+00 -0.29673833254E+03  0.29673833254E+03  0.00000000000E+00 0. -1.
         25    2    1    2    0    0 -0.12738881213E+03  0.80262086956E+02  0.13260650574E+03  0.23638780817E+03  0.12499919370E+03 0.  0.
          2    1    1    2  501    0  0.48783692457E+02 -0.43782234685E+02 -0.23593418498E+03  0.24487072583E+03  0.00000000000E+00 0. -1.
          1    1    1    2  502    0  0.78605119673E+02 -0.36479852271E+02  0.41789238897E+03  0.42678284082E+03  0.00000000000E+00 0. -1.
         22    1    3    3    0    0 -0.78367803543E+02  0.71316585951E+02  0.12923281697E+02  0.10674539463E+03  0.00000000000E+00 0. -1.
         22    1    3    3    0    0 -0.49021008587E+02  0.89455010043E+01  0.11968322405E+03  0.12964241354E+03  0.00000000000E+00 0. -1.
</event>
<event>
 7    1  0.4915160E-006  0.1834447E+03  0.7818608E-02  0.1301640E+00
          2   -1    0    0  502    0  0.00000000000E+00  0.00000000000E+00  0.26109365451E+04  0.26109365451E+04  0.00000000000E+00 0. -1.
          1   -1    0    0  501    0 -0.00000000000E+00 -0.00000000000E+00 -0.70584690151E+03  0.70584690151E+03  0.00000000000E+00 0. -1.
         25    2    1    2    0    0  0.21673635995E+03 -0.67739071884E+02 -0.76588937323E+02  0.27028425454E+03  0.12499792537E+03 0.  0.
          2    1    1    2  501    0 -0.43560754932E+02  0.97992733579E+01 -0.52815109631E+03  0.53003504191E+03  0.00000000000E+00 0. -1.
          1    1    1    2  502    0 -0.17317560502E+03  0.57939798526E+02  0.25098296772E+04  0.25164641502E+04  0.00000000000E+00 0. -1.
         22    1    3    3    0    0 -0.17517912260E+01  0.19369546916E+02  0.69856919441E+01  0.20665140023E+02  0.00000000000E+00 0.  1.
         22    1    3    3    0    0  0.21848815117E+03 -0.87108618801E+02 -0.83574629267E+02  0.24961911451E+03  0.00000000000E+00 0.  1.
</event>
<event>
 7    1  0.4915160E-006  0.2433170E+03  0.7818608E-02  0.1261497E+00
          2   -1    0    0  502    0  0.00000000000E+00  0.00000000000E+00  0.68255027980E+03  0.68255027980E+03  0.00000000000E+00 0. -1.
          1   -1    0    0  501    0 -0.00000000000E+00 -0.00000000000E+00 -0.83668135879E+03  0.83668135879E+03  0.00000000000E+00 0. -1.
         25    2    1    2    0    0  0.14741841307E+03  0.23812765640E+03 -0.22916155121E+03  0.38285390299E+03  0.12500050093E+03 0.  0.
          2    1    1    2  501    0 -0.12699260424E+03 -0.19328128514E+03 -0.50438132699E+03  0.55487412963E+03  0.00000000000E+00 0. -1.
          1    1    1    2  502    0 -0.20425808831E+02 -0.44846371261E+02  0.57941179921E+03  0.58150360596E+03  0.00000000000E+00 0. -1.
         22    1    3    3    0    0  0.13673624619E+03  0.24566130837E+03 -0.18441401492E+03  0.33623623890E+03  0.00000000000E+00 0. -1.
         22    1    3    3    0    0  0.10682166883E+02 -0.75336519742E+01 -0.44747536290E+02  0.46617664092E+02  0.00000000000E+00 0. -1.
</event>
<event>
 7    1  0.4915160E-006  0.5075601E+02  0.7818608E-02  0.1556707E+00
          2   -1    0    0  502    0  0.00000000000E+00  0.00000000000E+00  0.69422684536E+03  0.69422684536E+03  0.00000000000E+00 0. -1.
          1   -1    0    0  501    0 -0.00000000000E+00 -0.00000000000E+00 -0.21351390530E+03  0.21351390530E+03  0.00000000000E+00 0. -1.
         25    2    1    2    0    0 -0.57901211839E+01 -0.40290054065E+02 -0.10097275454E+03  0.16576554761E+03  0.12500362257E+03 0.  0.
          2    1    1    2  501    0  0.21433764057E+02 -0.81044709747E+01 -0.77506972969E+02  0.80823384922E+02  0.00000000000E+00 0. -1.
          1    1    1    2  502    0 -0.15643642873E+02  0.48394525040E+02  0.65919266758E+03  0.66115181812E+03  0.00000000000E+00 0. -1.
         22    1    3    3    0    0 -0.49575454633E+02 -0.40196319382E+02 -0.10384028283E+03  0.12188631642E+03  0.00000000000E+00 0.  1.
         22    1    3    3    0    0  0.43785333449E+02 -0.93734682791E-01  0.28675282819E+01  0.43879231190E+02  0.00000000000E+00 0.  1.
</event>
<event>
 7    1  0.4915160E-006  0.7933184E+02  0.7818608E-02  0.1414780E+00
          2   -1    0    0  502    0  0.00000000000E+00  0.00000000000E+00  0.15706728488E+04  0.15706728488E+04  0.00000000000E+00 0. -1.
          1   -1    0    0  501    0 -0.00000000000E+00 -0.00000000000E+00 -0.26116936390E+03  0.26116936390E+03  0.00000000000E+00 0. -1.
         25    2    1    2    0    0 -0.98752920031E+02 -0.19332518450E+02  0.10138995969E+03  0.18981836083E+03  0.12500080279E+03 0.  0.
          2    1    1    2  501    0  0.77330556511E+02 -0.14126097977E+02 -0.20954694508E+03  0.22380680018E+03  0.00000000000E+00 0. -1.
          1    1    1    2  502    0  0.21422363520E+02  0.33458616427E+02  0.14176604703E+04  0.14182170517E+04  0.00000000000E+00 0. -1.
         22    1    3    3    0    0  0.28301617487E+02 -0.16543975434E+02  0.14359624737E+02  0.35789432772E+02  0.00000000000E+00 0.  1.
         22    1    3    3    0    0 -0.12705453752E+03 -0.27885430166E+01  0.87030334949E+02  0.15402892805E+03  0.00000000000E+00 0.  1.
</event>
<event>
 7    1  0.4915160E-006  0.2018701E+03  0.7818608E-02  0.1187570E+00
          2   -1    0    0  502    0  0.00000000000E+00  0.00000000000E+00  0.10236926745E+04  0.10236926745E+04  0.00000000000E+00 0. -1.
          1   -1    0    0  501    0 -0.00000000000E+00 -0.00000000000E+00 -0.13191208388E+04  0.13191208388E+04  0.00000000000E+00 0. -1.
         25    2    1    2    0    0  0.13416224493E+03 -0.86290775361E+02 -0.16757352376E+03  0.26297013236E+03  0.12500719486E+03 0.  0.
          2    1    1    2  501    0  0.70472812792E+02  0.10734095746E+03 -0.10891955886E+04  0.10967385872E+04  0.00000000000E+00 0. -1.
          1    1    1    2  502    0 -0.20463505772E+03 -0.21050182099E+02  0.96134094805E+03  0.98310479371E+03  0.00000000000E+00 0. -1.
         22    1    3    3    0    0  0.15486755266E+03 -0.78593979056E+02 -0.16690596142E+03  0.24087044727E+03  0.00000000000E+00 0.  1.
         22    1    3    3    0    0 -0.20705307727E+02 -0.76967963051E+01 -0.66756234238E+00  0.22099685086E+02  0.00000000000E+00 0.  1.
</event>
<event>
 7    1  0.4915160E-006  0.1558097E+03  0.7818608E-02  0.1361851E+00
          2   -1    0    0  502    0  0.00000000000E+00  0.00000000000E+00  0.19054938635E+03  0.19054938635E+03  0.00000000000E+00 0. -1.
          1   -1    0    0  501    0 -0.00000000000E+00 -0.00000000000E+00 -0.12612836156E+04  0.12612836156E+04  0.00000000000E+00 0. -1.
         25    2    1    2    0    0 -0.12709884217E+03 -0.72502602495E+01 -0.55695811746E+02  0.18690702188E+03  0.12500211769E+03 0.  0.
          2    1    1    2  501    0  0.15776757836E+03  0.11688361903E+02 -0.11324741481E+04  0.11434705605E+04  0.00000000000E+00 0. -1.
          1    1    1    2  502    0 -0.30668736190E+02 -0.44381016539E+01  0.11743573060E+03  0.12145541958E+03  0.00000000000E+00 0. -1.
         22    1    3    3    0    0  0.25466823559E+02  0.21246761915E+01 -0.85638687434E+01  0.26952053706E+02  0.00000000000E+00 0. -1.
         22    1    3    3    0    0 -0.15256566572E+03 -0.93749364410E+01 -0.47131943003E+02  0.15995496817E+03  0.00000000000E+00 0. -1.
</event>
<event>
 7    1  0.4915160E-006  0.3980629E+03  0.7818608E-02  0.1231018E+00
          2   -1    0    0  502    0  0.00000000000E+00  0.00000000000E+00  0.93626339284E+03  0.93626339284E+03  0.00000000000E+00 0. -1.
          1   -1    0    0  501    0 -0.00000000000E+00 -0.00000000000E+00 -0.87254576207E+03  0.87254576207E+03  0.00000000000E+00 0. -1.
         25    2    1    2    0    0  0.22977310519E+03 -0.28531877737E+03 -0.36359547708E+03  0.53106381020E+03  0.12499845984E+03 0.  0.
          2    1    1    2  501    0  0.38756953874E+02 -0.13129981286E+02 -0.37678156689E+03  0.37899715966E+03  0.00000000000E+00 0. -1.
          1    1    1    2  502    0 -0.26853005906E+03  0.29844875865E+03  0.80409467475E+03  0.89874818504E+03  0.00000000000E+00 0. -1.
         22    1    3    3    0    0  0.35504602703E+02 -0.36117721510E+00 -0.68548228537E+02  0.77198231182E+02  0.00000000000E+00 0.  1.
         22    1    3    3    0    0  0.19426850249E+03 -0.28495760015E+03 -0.29504724855E+03  0.45386557902E+03  0.00000000000E+00 0.  1.
</event>
<event>
 7    1  0.4915160E-006  0.9106135E+02  0.7818608E-02  0.1328052E+00
          2   -1    0    0  502    0  0.00000000000E+00  0.00000000000E+00  0.98312153506E+03  0.98312153506E+03  0.00000000000E+00 0. -1.
          1   -1    0    0  501    0 -0.00000000000E+00 -0.00000000000E+00 -0.98120542009E+02  0.98120542009E+02  0.00000000000E+00 0. -1.
         25    2    1    2    0    0  0.84262998145E+02 -0.71949297683E+01  0.18026212729E+03  0.23509837467E+03  0.12499916546E+03 0.  0.
          2    1    1    2  501    0 -0.72359800457E+02 -0.62703184083E+02 -0.35797375148E+02  0.10222075173E+03  0.00000000000E+00 0. -1.
          1    1    1    2  502    0 -0.11903197689E+02  0.69898113851E+02  0.74053624091E+03  0.74392295067E+03  0.00000000000E+00 0. -1.
         22    1    3    3    0    0  0.38997168273E+02  0.58838212359E+02  0.91538711164E+02  0.11559433381E+03  0.00000000000E+00 0.  1.
         22    1    3    3    0    0  0.45265829873E+02 -0.66033142128E+02  0.88723416123E+02  0.11950404086E+03  0.00000000000E+00 0.  1.
</event>
<event>
 7    1  0.4915160E-006  0.1070245E+03  0.7818608E-02  0.1314213E+00
          2   -1    0    0  502    0  0.00000000000E+00  0.00000000000E+00  0.11519709330E+04  0.11519709330E+04  0.00000000000E+00 0. -1.
          1   -1    0    0  501    0 -0.00000000000E+00 -0.00000000000E+00 -0.11088624758E+04  0.11088624758E+04  0.00000000000E+00 0. -1.
         25    2    1    2    0    0 -0.40113380920E+02  0.40509713379E+01  0.82514599253E+02  0.15511065801E+03  0.12500065376E+03 0.  0.
          2    1    1    2  501    0  0.10793067974E+03 -0.11752945224E+02 -0.10686838650E+04  0.10741845124E+04  0.00000000000E+00 0. -1.
          1    1    1    2  502    0 -0.67817298824E+02  0.77019738857E+01  0.10292777229E+04  0.10315382384E+04  0.00000000000E+00 0. -1.
         22    1    3    3    0    0  0.13673875565E+02 -0.43141246254E+02  0.68648993027E+02  0.82224243656E+02  0.00000000000E+00 0. -1.
         22    1    3    3    0    0 -0.53787256485E+02  0.47192217592E+02  0.13865606226E+02  0.72886414354E+02  0.00000000000E+00 0. -1.
</event>
<event>
 7    1  0.4915160E-006  0.4968829E+02  0.7818608E-02  0.1545947E+00
          2   -1    0    0  502    0  0.00000000000E+00  0.00000000000E+00  0.40656978664E+03  0.40656978664E+03  0.00000000000E+00 0. -1.
          1   -1    0    0  501    0 -0.00000000000E+00 -0.00000000000E+00 -0.26072851780E+03  0.26072851780E+03  0.00000000000E+00 0. -1.
         25    2    1    2    0    0 -0.20494284230E+02 -0.17076873350E+02  0.25047613628E+03  0.28120212779E+03  0.12499882616E+03 0.  0.
          2    1    1    2  501    0  0.28887108776E+02  0.40709941335E+02 -0.24167692522E+03  0.24677824167E+03  0.00000000000E+00 0. -1.
          1    1    1    2  502    0 -0.83928245467E+01 -0.23633067985E+02  0.13704205779E+03  0.13931793498E+03  0.00000000000E+00 0. -1.
         22    1    3    3    0    0 -0.28271264230E+02  0.47808236815E+02  0.70639309169E+02  0.89859912578E+02  0.00000000000E+00 0.  1.
         22    1    3    3    0    0  0.77769800004E+01 -0.64885110165E+02  0.17983682711E+03  0.19134221522E+03  0.00000000000E+00 0.  1.
</event>
<event>
 7    1  0.4915160E-006  0.6897503E+02  0.7818608E-02  0.1425385E+00
          2   -1    0    0  502    0  0.00000000000E+00  0.00000000000E+00  0.11874527546E+04  0.11874527546E+04  0.00000000000E+00 0. -1.
          1   -1    0    0  501    0 -0.00000000000E+00 -0.00000000000E+00 -0.57825556397E+02  0.57825556397E+02  0.00000000000E+00 0. -1.
         25    2    1    2    0    0 -0.86062010073E+02 -0.30122922121E+02  0.99363659578E+03  0.10056096470E+04  0.12499207051E+03 0.  0.
          2    1    1    2  501    0  0.48307294529E+02  0.48787173340E+02 -0.25147510158E+02  0.73117578286E+02  0.00000000000E+00 0. -1.
          1    1    1    2  502    0  0.37754715544E+02 -0.18664251219E+02  0.16113811260E+03  0.16655108571E+03  0.00000000000E+00 0. -1.
         22    1    3    3    0    0 -0.86461320098E+02  0.31427898581E+02  0.53338124334E+03  0.54125670751E+03  0.00000000000E+00 0.  1.
         22    1    3    3    0    0  0.39931002516E+00 -0.61550820702E+02  0.46025535244E+03  0.46435293951E+03  0.00000000000E+00 0.  1.
</event>
<event>
 7    1  0.4915160E-006  0.1028191E+03  0.7818608E-02  0.1368481E+00
          2   -1    0    0  502    0  0.00000000000E+00  0.00000000000E+00  0.22558492447E+04  0.22558492447E+04  0.00000000000E+00 0. -1.
          1   -1    0    0  501    0 -0.00000000000E+00 -0.00000000000E+00 -0.10834241119E+04  0.10834241119E+04  0.00000000000E+00 0. -1.
         25    2    1    2    0    0 -0.62278880924E+02 -0.13222688110E+03 -0.61411376901E+02  0.20188814459E+03  0.12499943447E+03 0.  0.
          2    1    1    2  501    0  0.24673003257E+02  0.36953455791E+02 -0.95005478942E+03  0.95109327507E+03  0.00000000000E+00 0. -1.
          1    1    1    2  502    0  0.37605877667E+02  0.95273425309E+02  0.21838912990E+04  0.21862919370E+04  0.00000000000E+00 0. -1.
         22    1    3    3    0    0  0.93687367303E+01 -0.58132560119E+02 -0.77750923272E+02  0.97531399270E+02  0.00000000000E+00 0. -1.
         22    1    3    3    0    0 -0.71647617654E+02 -0.74094320981E+02  0.16339546371E+02  0.10435674532E+03  0.00000000000E+00 0. -1.
</event>
<event>
 7    1  0.4915160E-006  0.7253792E+02  0.7818608E-02  0.1428034E+00
          2   -1    0    0  502    0  0.00000000000E+00  0.00000000000E+00  0.12858480623E+04  0.12858480623E+04  0.00000000000E+00 0. -1.
          1   -1    0    0  501    0 -0.00000000000E+00 -0.00000000000E+00 -0.39783239291E+03  0.39783239291E+03  0.00000000000E+00 0. -1.
         25    2    1    2    0    0  0.84575630956E+02  0.57937565262E+02  0.67931716932E+03  0.69828850052E+03  0.12500085843E+03 0.  0.
          2    1    1    2  501    0 -0.22968282610E+02 -0.31825056229E+02 -0.38547236421E+03  0.38746524977E+03  0.00000000000E+00 0. -1.
          1    1    1    2  502    0 -0.61607348346E+02 -0.26112509033E+02  0.59417086426E+03  0.59792670490E+03  0.00000000000E+00 0. -1.
         22    1    3    3    0    0  0.67165984544E+02 -0.17890931367E+02  0.46741810408E+03  0.47255797415E+03  0.00000000000E+00 0. -1.
         22    1    3    3    0    0  0.17409646412E+02  0.75828496630E+02  0.21189906523E+03  0.22573052637E+03  0.00000000000E+00 0. -1.
</event>
<event>
 7    1  0.4915160E-006  0.8262711E+02  0.7818608E-02  0.1452620E+00
          2   -1    0    0  502    0  0.00000000000E+00  0.00000000000E+00  0.42120722603E+03  0.42120722603E+03  0.00000000000E+00 0. -1.
          1   -1    0    0  501    0 -0.00000000000E+00 -0.00000000000E+00 -0.18730324708E+03  0.18730324708E+03  0.00000000000E+00 0. -1.
         25    2    1    2    0    0  0.50123364605E+02  0.26453797789E+02  0.31711531905E+02  0.14086580708E+03  0.12500159700E+03 0.  0.
          2    1    1    2  501    0  0.23633211108E+02  0.16238834489E+02 -0.12566358563E+03  0.12889361957E+03  0.00000000000E+00 0. -1.
          1    1    1    2  502    0 -0.73756575714E+02 -0.42692632277E+02  0.32785603268E+03  0.33875104645E+03  0.00000000000E+00 0. -1.
         22    1    3    3    0    0 -0.26119524940E+02  0.43812958390E+02 -0.10393708926E+02  0.52056066805E+02  0.00000000000E+00 0.  1.
         22    1    3    3    0    0  0.76242889546E+02 -0.17359160601E+02  0.42105240831E+02  0.88809740279E+02  0.00000000000E+00 0.  1.
</event>
<event>
 7    1  0.4915160E-006  0.1356842E+03  0.7818608E-02  0.1348806E+00
          2   -1    0    0  502    0  0.00000000000E+00  0.00000000000E+00  0.10204517747E+04  0.10204517747E+04  0.00000000000E+00 0. -1.
          1   -1    0    0  501    0 -0.00000000000E+00 -0.00000000000E+00 -0.18001490898E+03  0.18001490898E+03  0.00000000000E+00 0. -1.
         25    2    1    2    0    0  0.23626107204E+02 -0.13304647953E+03  0.28066775379E+03  0.33564755147E+03  0.12500132852E+03 0.  0.
          2    1    1    2  501    0 -0.61654529824E+02  0.12151660626E+03 -0.12139631941E+03  0.18249556984E+03  0.00000000000E+00 0. -1.
          1    1    1    2  502    0  0.38028422620E+02  0.11529873272E+02  0.68116543136E+03  0.68232356238E+03  0.00000000000E+00 0. -1.
         22    1    3    3    0    0 -0.15292591164E+02 -0.83513689165E+02  0.25296338204E+03  0.26683116811E+03  0.00000000000E+00 0. -1.
         22    1    3    3    0    0  0.38918698369E+02 -0.49532790365E+02  0.27704371750E+02  0.68816383356E+02  0.00000000000E+00 0. -1.
</event>
<event>
 7    1  0.7033926E-006  0.1447246E+03  0.7818608E-02  0.1256085E+00
          2   -1    0    0  502    0  0.00000000000E+00  0.00000000000E+00  0.11245747055E+04  0.11245747055E+04  0.00000000000E+00 0. -1.
          1   -1    0    0  501    0 -0.00000000000E+00 -0.00000000000E+00 -0.20055496315E+04  0.20055496315E+04  0.00000000000E+00 0. -1.
         25    2    1    2    0    0 -0.21542950512E+03  0.33271017430E+02 -0.75749869652E+03  0.79808900192E+03  0.12499978987E+03 0.  0.
          2    1    1    2  501    0  0.12805211996E+03 -0.32133154391E+02 -0.12224672925E+04  0.12295756041E+04  0.00000000000E+00 0. -1.
          1    1    1    2  502    0  0.87377385164E+02 -0.11378630386E+01  0.10989910629E+04  0.11024597311E+04  0.00000000000E+00 0. -1.
         22    1    3    3    0    0  0.16787558618E+02  0.85495184419E+00 -0.51528030614E+02  0.54200470533E+02  0.00000000000E+00 0.  1.
         22    1    3    3    0    0 -0.23221706374E+03  0.32416065586E+02 -0.70597066591E+03  0.74388853138E+03  0.00000000000E+00 0.  1.
</event>
<event>
 7    1  0.4915160E-006  0.4547515E+02  0.7818608E-02  0.1478520E+00
          2   -1    0    0  502    0  0.00000000000E+00  0.00000000000E+00  0.91340946290E+03  0.91340946290E+03  0.00000000000E+00 0. -1.
          1   -1    0    0  501    0 -0.00000000000E+00 -0.00000000000E+00 -0.36010283230E+03  0.36010283230E+03  0.00000000000E+00 0. -1.
         25    2    1    2    0    0  0.20940511452E+02 -0.14878652439E+02  0.39451667171E+03  0.41463760045E+03  0.12498422354E+03 0.  0.
          2    1    1    2  501    0 -0.34032318565E+02 -0.30162729298E+02 -0.34747670079E+03  0.35043979017E+03  0.00000000000E+00 0. -1.
          1    1    1    2  502    0  0.13091807113E+02  0.45041381737E+02  0.50626665968E+03  0.50843490457E+03  0.00000000000E+00 0. -1.
         22    1    3    3    0    0  0.42821941796E+02 -0.35850226805E+02  0.74090678894E+02  0.92781389083E+02  0.00000000000E+00 0. -1.
         22    1    3    3    0    0 -0.21881430344E+02  0.20971574366E+02  0.32042599281E+03  0.32185621137E+03  0.00000000000E+00 0. -1.
</event>
<event>
 7    1  0.4915160E-006  0.2524282E+03  0.7818608E-02  0.1241313E+00
          2   -1    0    0  502    0  0.00000000000E+00  0.00000000000E+00  0.23060112197E+04  0.23060112197E+04  0.00000000000E+00 0. -1.
          1   -1    0    0  501    0 -0.00000000000E+00 -0.00000000000E+00 -0.96063216191E+03  0.96063216191E+03  0.00000000000E+00 0. -1.
         25    2    1    2    0    0 -0.93067896995E+02  0.19560366282E+03  0.26633711025E+03  0.36535479801E+03  0.12500498300E+03 0.  0.
          2    1    1    2  501    0  0.15029172990E+03 -0.20557025835E+03 -0.89289424285E+03  0.92849709967E+03  0.00000000000E+00 0. -1.
          1    1    1    2  502    0 -0.57223832904E+02  0.99665955280E+01  0.19719361904E+04  0.19727914839E+04  0.00000000000E+00 0. -1.
         22    1    3    3    0    0  0.18186036942E+02  0.85604733888E+02  0.13600271789E+03  0.16172705920E+03  0.00000000000E+00 0.  1.
         22    1    3    3    0    0 -0.11125393394E+03  0.10999892893E+03  0.13033439235E+03  0.20362773881E+03  0.00000000000E+00 0.  1.
</event>
<event>
 7    1  0.4915160E-006  0.1489602E+03  0.7818608E-02  0.1274603E+00
          2   -1    0    0  502    0  0.00000000000E+00  0.00000000000E+00  0.13230336031E+04  0.13230336031E+04  0.00000000000E+00 0. -1.
          1   -1    0    0  501    0 -0.00000000000E+00 -0.00000000000E+00 -0.23637734284E+03  0.23637734284E+03  0.00000000000E+00 0. -1.
         25    2    1    2    0    0  0.14032411495E+03  0.11108057951E+02  0.55428342878E+03  0.58537977737E+03  0.12500047257E+03 0.  0.
          2    1    1    2  501    0  0.70415808667E+01 -0.70533722556E+02 -0.20646805044E+03  0.21829715008E+03  0.00000000000E+00 0. -1.
          1    1    1    2  502    0 -0.14736569582E+03  0.59425664605E+02  0.73884088195E+03  0.75573401853E+03  0.00000000000E+00 0. -1.
         22    1    3    3    0    0  0.92756937555E+02  0.34160543087E+02  0.49975332206E+03  0.50943515297E+03  0.00000000000E+00 0.  1.
         22    1    3    3    0    0  0.47567177398E+02 -0.23052485136E+02  0.54530106720E+02  0.75944624402E+02  0.00000000000E+00 0.  1.
</event>
