<event>
 7    1  0.4822463E-005  0.8303571E+02  0.7818608E-02  0.1322472E+00
          2   -1    0    0  502    0  0.00000000000E+00  0.00000000000E+00  0.12824708870E+04  0.12824708870E+04  0.00000000000E+00 0. -1.
          1   -1    0    0  501    0 -0.00000000000E+00 -0.00000000000E+00 -0.44099064766E+03  0.44099064766E+03  0.00000000000E+00 0. -1.
         25    2    1    2    0    0  0.71220406942E+02 -0.77636194856E+02 -0.32054219623E+03  0.35982078566E+03  0.12499589239E+03 0.  0.
          2    1    1    2  501    0 -0.81556529282E+02 -0.48140388980E+01 -0.82640490556E+02  0.11620711303E+03  0.00000000000E+00 0. -1.
          1    1    1    2  502    0  0.10336122339E+02  0.82450233754E+02  0.12446629262E+04  0.12474336360E+04  0.00000000000E+00 0. -1.
         22    1    3    3    0    0  0.85216588365E+02 -0.31998596292E+01 -0.20049837504E+03  0.21788002301E+03  0.00000000000E+00 0. -1.
         22    1    3    3    0    0 -0.13996181422E+02 -0.74436335227E+02 -0.12004382119E+03  0.14194076265E+03  0.00000000000E+00 0. -1.
</event>
<event>
 7    1  0.6291316E-005  0.1847491E+03  0.7818608E-02  0.1225892E+00
          2   -1    0    0  502    0  0.00000000000E+00  0.00000000000E+00  0.72717326665E+03  0.72717326665E+03  0.00000000000E+00 0. -1.
          1   -1    0    0  501    0 -0.00000000000E+00 -0.00000000000E+00 -0.13165439207E+04  0.13165439207E+04  0.00000000000E+00 0. -1.
         25    2    1    2    0    0  0.23827100239E+03 -0.68443353666E+02 -0.45633911722E+03  0.53415961794E+03  0.12499417702E+03 0.  0.
          2    1    1    2  501    0 -0.17153485859E+03  0.37122950748E+01 -0.80911755435E+03  0.82710894422E+03  0.00000000000E+00 0. -1.
          1    1    1    2  502    0 -0.66736143799E+02  0.64731058591E+02  0.67608601756E+03  0.68244862516E+03  0.00000000000E+00 0. -1.
         22    1    3    3    0    0  0.69157665989E+02 -0.11005379982E+02 -0.38874527536E+02  0.80094506958E+02  0.00000000000E+00 0.  1.
         22    1    3    3    0    0  0.16911333640E+03 -0.57437973684E+02 -0.41746458968E+03  0.45406511098E+03  0.00000000000E+00 0.  1.
</event>
<event>
 7    1  0.4822463E-005  0.9991252E+02  0.7818608E-02  0.1308202E+00
          2   -1    0    0  502    0  0.00000000000E+00  0.00000000000E+00  0.26465933361E+03  0.26465933361E+03  0.00000000000E+00 0. -1.
          1   -1    0    0  501    0 -0.00000000000E+00 -0.00000000000E+00 -0.74094088338E+03  0.74094088338E+03  0.00000000000E+00 0. -1.
         25    2    1    2    0    0 -0.10180268843E+03 -0.50012072668E+02  0.80422579419E+02  0.18696892365E+03  0.12499836937E+03 0.  0.
          2    1    1    2  501    0  0.96611778762E+02 -0.27016044277E+02 -0.67223513876E+03  0.67967917743E+03  0.00000000000E+00 0. -1.
          1    1    1    2  502    0  0.51909096667E+01  0.77028116945E+02  0.11553100957E+03  0.13895211591E+03  0.00000000000E+00 0. -1.
         22    1    3    3    0    0 -0.97616768983E+02 -0.33878881642E+02 -0.15286286708E+01  0.10333996765E+03  0.00000000000E+00 0.  1.
         22    1    3    3    0    0 -0.41859194451E+01 -0.16133191026E+02  0.81951208090E+02  0.83628956000E+02  0.00000000000E+00 0.  1.
</event>
<event>
 7    1  0.4822463E-005  0.3311607E+03  0.7818608E-02  0.1176822E+00
          2   -1    0    0  502    0  0.00000000000E+00  0.00000000000E+00  0.14272591890E+04  0.14272591890E+04  0.00000000000E+00 0. -1.
          1   -1    0    0  501    0 -0.00000000000E+00 -0.00000000000E+00 -0.56179946122E+03  0.56179946122E+03  0.00000000000E+00 0. -1.
         25    2    1    2    0    0  0.33966331019E+03  0.20458948617E+03  0.17140791873E+02  0.41610985094E+03  0.12500231662E+03 0.  0.
          2    1    1    2  501    0 -0.25576755643E+03 -0.17709557028E+03 -0.29351652790E+03  0.42770531454E+03  0.00000000000E+00 0. -1.
          1    1    1    2  502    0 -0.83895753767E+02 -0.27493915886E+02  0.11418354638E+04  0.11452434848E+04  0.00000000000E+00 0. -1.
         22    1    3    3    0    0  0.21350730758E+03  0.81577838996E+02 -0.37527742313E+02  0.23162177283E+03  0.00000000000E+00 0.  1.
         22    1    3    3    0    0  0.12615600262E+03  0.12301164717E+03  0.54668534186E+02  0.18448807812E+03  0.00000000000E+00 0.  1.
</event>
<event>
 7    1  0.4822463E-005  0.8203199E+03  0.7818608E-02  0.1099748E+00
          2   -1    0    0  502    0  0.00000000000E+00  0.00000000000E+00  0.17651556864E+04  0.17651556864E+04  0.00000000000E+00 0. -1.
          1   -1    0    0  501    0 -0.00000000000E+00 -0.00000000000E+00 -0.19246937293E+04  0.19246937293E+04  0.00000000000E+00 0. -1.
         25    2    1    2    0    0  0.78544410853E+03 -0.81085956380E+02  0.29080448915E+03  0.85069930078E+03  0.12499867797E+03 0.  0.
          2    1    1    2  501    0  0.35972002659E+02 -0.83207313137E+02 -0.14963298415E+04  0.14990731925E+04  0.00000000000E+00 0. -1.
          1    1    1    2  502    0 -0.82141611119E+03  0.16429326952E+03  0.10459873095E+04  0.13400769223E+04  0.00000000000E+00 0. -1.
         22    1    3    3    0    0  0.55376001382E+03 -0.81903318163E-01  0.19156248494E+03  0.58595763093E+03  0.00000000000E+00 0. -1.
         22    1    3    3    0    0  0.23168409471E+03 -0.81004053062E+02  0.99242004212E+02  0.26474166985E+03  0.00000000000E+00 0. -1.
</event>
<event>
 7    1  0.4822463E-005  0.1154296E+03  0.7818608E-02  0.1333995E+00
          2   -1    0    0  502    0  0.00000000000E+00  0.00000000000E+00  0.34808069873E+03  0.34808069873E+03  0.00000000000E+00 0. -1.
          1   -1    0    0  501    0 -0.00000000000E+00 -0.00000000000E+00 -0.82979427251E+03  0.82979427251E+03  0.00000000000E+00 0. -1.
         25    2    1    2    0    0  0.11470849453E+03  0.13762732022E+02 -0.64975768645E+02  0.18219388582E+03  0.12500124003E+03 0.  0.
          2    1    1    2  501    0 -0.17350767875E+02  0.50175582806E+02 -0.69343680805E+03  0.69546620696E+03  0.00000000000E+00 0. -1.
          1    1    1    2  502    0 -0.97357726652E+02 -0.63938314828E+02  0.27669900291E+03  0.30021487847E+03  0.00000000000E+00 0. -1.
         22    1    3    3    0    0  0.99168119812E+02  0.45014882798E+01 -0.10116462359E+03  0.14173517718E+03  0.00000000000E+00 0. -1.
         22    1    3    3    0    0  0.15540374715E+02  0.92612437421E+01  0.36188854948E+02  0.40458708634E+02  0.00000000000E+00 0. -1.
</event>
<event>
 7    1  0.4822463E-005  0.2201597E+03  0.7818608E-02  0.1142036E+00
          2   -1    0    0  502    0  0.00000000000E+00  0.00000000000E+00  0.76187728063E+03  0.76187728063E+03  0.00000000000E+00 0. -1.
          1   -1    0    0  501    0 -0.00000000000E+00 -0.00000000000E+00 -0.44749957147E+03  0.44749957147E+03  0.00000000000E+00 0. -1.
         25    2    1    2    0    0  0.92649600598E+02 -0.27817509568E+03  0.34711941489E+02  0.32061446403E+03  0.12499353311E+03 0.  0.
          2    1    1    2  501    0 -0.18301842433E+03  0.78594205843E+02 -0.24761165435E+03  0.31778030809E+03  0.00000000000E+00 0. -1.
          1    1    1    2  502    0  0.90368823737E+02  0.19958088983E+03  0.52727742202E+03  0.57098207998E+03  0.00000000000E+00 0. -1.
         22    1    3    3    0    0  0.63773454270E+02 -0.63753122222E+02  0.51082358675E+02  0.10363841677E+03  0.00000000000E+00 0.  1.
         22    1    3    3    0    0  0.28876146328E+02 -0.21442197346E+03 -0.16370417186E+02  0.21697604726E+03  0.00000000000E+00 0.  1.
</event>
<event>
 7    1  0.4822463E-005  0.8063414E+03  0.7818608E-02  0.1050038E+00
          2   -1    0    0  502    0  0.00000000000E+00  0.00000000000E+00  0.10489473244E+04  0.10489473244E+04  0.00000000000E+00 0. -1.
          1   -1    0    0  501    0 -0.00000000000E+00 -0.00000000000E+00 -0.13636450655E+04  0.13636450655E+04  0.00000000000E+00 0. -1.
         25    2    1    2    0    0 -0.38911563430E+03  0.63394588177E+03  0.23868842992E+03  0.79113566358E+03  0.12500045491E+03 0.  0.
          2    1    1    2  501    0  0.56812516164E+03 -0.60471161371E+03 -0.90378586065E+03  0.12268949494E+04  0.00000000000E+00 0. -1.
          1    1    1    2  502    0 -0.17900952733E+03 -0.29234268059E+02  0.35039968960E+03  0.39456177689E+03  0.00000000000E+00 0. -1.
         22    1    3    3    0    0 -0.90388672470E+02  0.23784407801E+03  0.44171339161E+02  0.25824605468E+03  0.00000000000E+00 0. -1.
         22    1    3    3    0    0 -0.29872696183E+03  0.39610180376E+03  0.19451709076E+03  0.53288960890E+03  0.00000000000E+00 0. -1.
</event>
<event>
 7    1  0.4822463E-005  0.3720821E+03  0.7818608E-02  0.1221160E+00
          2   -1    0    0  502    0  0.00000000000E+00  0.00000000000E+00  0.15687342648E+04  0.15687342648E+04  0.00000000000E+00 0. -1.
          1   -1    0    0  501    0 -0.00000000000E+00 -0.00000000000E+00 -0.10369416999E+04  0.10369416999E+04  0.00000000000E+00 0. -1.
         25    2    1    2    0    0  0.31515980439E+03 -0.14500467380E+03 -0.33137936328E+03  0.49577153320E+03  0.12500029197E+03 0.  0.
          2    1    1    2  501    0 -0.36364897451E+03  0.14395309651E+03 -0.56156739005E+03  0.68433983094E+03  0.00000000000E+00 0. -1.
          1    1    1    2  502    0  0.48489170115E+02  0.10515772953E+01  0.14247393183E+04  0.14255646006E+04  0.00000000000E+00 0. -1.
         22    1    3    3    0    0  0.24392413798E+03 -0.77098593565E+02 -0.17135370088E+03  0.30790464274E+03  0.00000000000E+00 0. -1.
         22    1    3    3    0    0  0.71235666415E+02 -0.67906080237E+02 -0.16002566240E+03  0.18786689045E+03  0.00000000000E+00 0. -1.
</event>
<event>
 7    1  0.4822463E-005  0.4821813E+03  0.7818608E-02  0.1220022E+00
          2   -1    0    0  502    0  0.00000000000E+00  0.00000000000E+00  0.16608983985E+03  0.16608983985E+03  0.00000000000E+00 0. -1.
          1   -1    0    0  501    0 -0.00000000000E+00 -0.00000000000E+00 -0.19482663611E+04  0.19482663611E+04  0.00000000000E+00 0. -1.
         25    2    1    2    0    0 -0.46175050970E+03  0.18404892097E+03 -0.81784797423E+03  0.96518797682E+03  0.12499993253E+03 0.  0.
          2    1    1    2  501    0  0.34088380202E+02  0.16508678417E+02 -0.44712801401E+03  0.44872933383E+03  0.00000000000E+00 0. -1.
          1    1    1    2  502    0  0.42766212950E+03 -0.20055759938E+03 -0.51720053299E+03  0.70043889027E+03  0.00000000000E+00 0. -1.
         22    1    3    3    0    0 -0.29584649026E+03  0.16667612205E+03 -0.61541287292E+03  0.70287913585E+03  0.00000000000E+00 0. -1.
         22    1    3    3    0    0 -0.16590401944E+03  0.17372798915E+02 -0.20243510131E+03  0.26230884097E+03  0.00000000000E+00 0. -1.
</event>
<event>
 7    1  0.4822463E-005  0.1312431E+03  0.7818608E-02  0.1435543E+00
          2   -1    0    0  502    0  0.00000000000E+00  0.00000000000E+00  0.87470646551E+03  0.87470646551E+03  0.00000000000E+00 0. -1.
          1   -1    0    0  501    0 -0.00000000000E+00 -0.00000000000E+00 -0.41080134425E+03  0.41080134425E+03  0.00000000000E+00 0. -1.
         25    2    1    2    0    0  0.12371855490E+03  0.36858529698E+02 -0.35853184512E+03  0.40104236356E+03  0.12500024546E+03 0.  0.
          2    1    1    2  501    0 -0.14333696491E+03 -0.42787681877E+02  0.15042609540E+03  0.21214212549E+03  0.00000000000E+00 0. -1.
          1    1    1    2  502    0  0.19618410008E+02  0.59291521782E+01  0.67201087098E+03  0.67232332071E+03  0.00000000000E+00 0. -1.
         22    1    3    3    0    0  0.19257703941E+02 -0.43642583695E+02 -0.10155772644E+03  0.11220296820E+03  0.00000000000E+00 0. -1.
         22    1    3    3    0    0  0.10446085096E+03  0.80501113393E+02 -0.25697411868E+03  0.28883939536E+03  0.00000000000E+00 0. -1.
</event>
<event>
 7    1  0.4822463E-005  0.1058686E+03  0.7818608E-02  0.1288787E+00
          2   -1    0    0  502    0  0.00000000000E+00  0.00000000000E+00  0.17570597062E+04  0.17570597062E+04  0.00000000000E+00 0. -1.
          1   -1    0    0  501    0 -0.00000000000E+00 -0.00000000000E+00 -0.26214787107E+03  0.26214787107E+03  0.00000000000E+00 0. -1.
         25    2    1    2    0    0  0.17105027592E+03  0.17540594793E+02  0.98862479383E+03  0.10112218720E+04  0.12499928835E+03 0.  0.
          2    1    1    2  501    0 -0.81366037461E+02 -0.31291612641E+02 -0.24044561123E+03  0.25576099983E+03  0.00000000000E+00 0. -1.
          1    1    1    2  502    0 -0.89684238462E+02  0.13751017848E+02  0.74673265253E+03  0.75222470544E+03  0.00000000000E+00 0. -1.
         22    1    3    3    0    0  0.97551874973E+02  0.70202376061E+02  0.49476386784E+03  0.50915226292E+03  0.00000000000E+00 0. -1.
         22    1    3    3    0    0  0.73498400950E+02 -0.52661781267E+02  0.49386092599E+03  0.50206960908E+03  0.00000000000E+00 0. -1.
</event>
<event>
 7    1  0.4822463E-005  0.3525053E+03  0.7818608E-02  0.1178316E+00
          2   -1    0    0  502    0  0.00000000000E+00  0.00000000000E+00  0.21493811388E+04  0.21493811388E+04  0.00000000000E+00 0. -1.
          1   -1    0    0  501    0 -0.00000000000E+00 -0.00000000000E+00 -0.17273931074E+04  0.17273931074E+04  0.00000000000E+00 0. -1.
         25    2    1    2    0    0  0.21545899162E+03 -0.28234289345E+03 -0.79404186846E+02  0.38479810653E+03  0.12499788538E+03 0.  0.
          2    1    1    2  501    0 -0.71209361586E+02 -0.39751217020E+02 -0.14785645477E+04  0.14808119578E+04  0.00000000000E+00 0. -1.
          1    1    1    2  502    0 -0.14424963003E+03  0.32209411047E+03  0.19799567660E+04  0.20111641820E+04  0.00000000000E+00 0. -1.
         22    1    3    3    0    0  0.21598004449E+03 -0.20103530648E+03 -0.66604152216E+02  0.30248749919E+03  0.00000000000E+00 0.  1.
         22    1    3    3    0    0 -0.52105287347E+00 -0.81307586970E+02 -0.12800034630E+02  0.82310607345E+02  0.00000000000E+00 0.  1.
</event>
<event>
 7    1  0.4822463E-005  0.6121609E+03  0.7818608E-02  0.1068909E+00
          2   -1    0    0  502    0  0.00000000000E+00  0.00000000000E+00  0.17834750570E+04  0.17834750570E+04  0.00000000000E+00 0. -1.
          1   -1    0    0  501    0 -0.00000000000E+00 -0.00000000000E+00 -0.27710024544E+04  0.27710024544E+04  0.00000000000E+00 0. -1.
         25    2    1    2    0    0  0.61457619321E+03  0.27451252490E+03  0.39189071421E+03  0.78883813122E+03  0.12500496711E+03 0.  0.
          2    1    1    2  501    0 -0.26466111194E+02 -0.18149801344E+03 -0.24946657812E+04  0.25013994771E+04  0.00000000000E+00 0. -1.
          1    1    1    2  502    0 -0.58811008201E+03 -0.93014511458E+02  0.11152476696E+04  0.12642399031E+04  0.00000000000E+00 0. -1.
         22    1    3    3    0    0  0.59524157900E+03  0.24026765137E+03  0.34899035569E+03  0.73064036984E+03  0.00000000000E+00 0. -1.
         22    1    3    3    0    0  0.19334614204E+02  0.34244873528E+02  0.42900358511E+02  0.58197761382E+02  0.00000000000E+00 0. -1.
</event>
<event>
 7    1  0.4822463E-005  0.6314646E+03  0.7818608E-02  0.1042949E+00
          2   -1    0    0  502    0  0.00000000000E+00  0.00000000000E+00  0.62432817036E+03  0.62432817036E+03  0.00000000000E+00 0. -1.
          1   -1    0    0  501    0 -0.00000000000E+00 -0.00000000000E+00 -0.26404006831E+04  0.26404006831E+04  0.00000000000E+00 0. -1.
         25    2    1    2    0    0 -0.52680208350E+03  0.65686736745E+02 -0.15620792135E+04  0.16545556240E+04  0.12501064334E+03 0.  0.
          2    1    1    2  501    0 -0.36363178349E+02  0.25384723593E+03 -0.82498463936E+03  0.86392149823E+03  0.00000000000E+00 0. -1.
          1    1    1    2  502    0  0.56316526185E+03 -0.31953397267E+03  0.37099134018E+03  0.74625173121E+03  0.00000000000E+00 0. -1.
         22    1    3    3    0    0 -0.24143080750E+03 -0.32137992204E+02 -0.71828319859E+03  0.75845397931E+03  0.00000000000E+00 0.  1.
         22    1    3    3    0    0 -0.28537127601E+03  0.97824728948E+02 -0.84379601494E+03  0.89610164467E+03  0.00000000000E+00 0.  1.
</event>
<event>
 7    1  0.4822463E-005  0.8932908E+02  0.7818608E-02  0.1307162E+00
          2   -1    0    0  502    0  0.00000000000E+00  0.00000000000E+00  0.43259560428E+02  0.43259560428E+02  0.00000000000E+00 0. -1.
          1   -1    0    0  501    0 -0.00000000000E+00 -0.00000000000E+00 -0.86655024404E+03  0.86655024404E+03  0.00000000000E+00 0. -1.
         25    2    1    2    0    0  0.78643777032E+02 -0.40633984876E+02 -0.22037711336E+03  0.26837879731E+03  0.12500056945E+03 0.  0.
          2    1    1    2  501    0  0.22754383038E+02  0.86382420543E+02 -0.14590620404E+03  0.17107982027E+03  0.00000000000E+00 0. -1.
          1    1    1    2  502    0 -0.10139816007E+03 -0.45748435666E+02 -0.45700736621E+03  0.47035118689E+03  0.00000000000E+00 0. -1.
         22    1    3    3    0    0 -0.31170027559E+02 -0.19555025062E+02 -0.29504122391E+02  0.47164211658E+02  0.00000000000E+00 0. -1.
         22    1    3    3    0    0  0.10981380459E+03 -0.21078959814E+02 -0.19087299097E+03  0.22121458566E+03  0.00000000000E+00 0. -1.
</event>
<event>
 7    1  0.4822463E-005  0.1791552E+03  0.7818608E-02  0.1332492E+00
          2   -1    0    0  502    0  0.00000000000E+00  0.00000000000E+00  0.30519267568E+03  0.30519267568E+03  0.00000000000E+00 0. -1.
          1   -1    0    0  501    0 -0.00000000000E+00 -0.00000000000E+00 -0.16854983995E+03  0.16854983995E+03  0.00000000000E+00 0. -1.
         25    2    1    2    0    0  0.76768137163E+02  0.14502418671E+03  0.74546922449E+02  0.21933470996E+03  0.12500043893E+03 0.  0.
          2    1    1    2  501    0  0.22811546046E+02  0.26094171198E+02  0.43402769116E+02  0.55543431389E+02  0.00000000000E+00 0. -1.
          1    1    1    2  502    0 -0.99579683209E+02 -0.17111835790E+03  0.18693144172E+02  0.19886437428E+03  0.00000000000E+00 0. -1.
         22    1    3    3    0    0 -0.22007310261E+00  0.17005590611E+02 -0.31731355222E+02  0.36001631191E+02  0.00000000000E+00 0. -1.
         22    1    3    3    0    0  0.76988210266E+02  0.12801859610E+03  0.10627827767E+03  0.18333307877E+03  0.00000000000E+00 0. -1.
</event>
<event>
 7    1  0.4822463E-005  0.3474327E+03  0.7818608E-02  0.1068939E+00
          2   -1    0    0  502    0  0.00000000000E+00  0.00000000000E+00  0.14450395838E+04  0.14450395838E+04  0.00000000000E+00 0. -1.
          1   -1    0    0  501    0 -0.00000000000E+00 -0.00000000000E+00 -0.95486591958E+03  0.95486591958E+03  0.00000000000E+00 0. -1.
         25    2    1    2    0    0  0.27112291987E+03 -0.17700611839E+03 -0.78262591167E+03  0.85613490113E+03  0.12499939074E+03 0.  0.
          2    1    1    2  501    0 -0.44084571341E+03 -0.12615005316E+03  0.41566921423E+03  0.61890199111E+03  0.00000000000E+00 0. -1.
          1    1    1    2  502    0  0.16972279353E+03  0.30315617155E+03  0.85713036169E+03  0.92486861117E+03  0.00000000000E+00 0. -1.
         22    1    3    3    0    0  0.27470369705E+03 -0.16387602614E+03 -0.66725444483E+03  0.73996349049E+03  0.00000000000E+00 0. -1.
         22    1    3    3    0    0 -0.35807771827E+01 -0.13130092250E+02 -0.11537146684E+03  0.11617141064E+03  0.00000000000E+00 0. -1.
</event>
<event>
 7    1  0.4822463E-005  0.5023758E+03  0.7818608E-02  0.1214246E+00
          2   -1    0    0  502    0  0.00000000000E+00  0.00000000000E+00  0.24506410796E+04  0.24506410796E+04  0.00000000000E+00 0. -1.
          1   -1    0    0  501    0 -0.00000000000E+00 -0.00000000000E+00 -0.75935975162E+03  0.75935975162E+03  0.00000000000E+00 0. -1.
         25    2    1    2    0    0 -0.39298358558E+03 -0.26107064936E+03 -0.45241925505E+02  0.49016774353E+03  0.12499440980E+03 0.  0.
          2    1    1    2  501    0 -0.38552422053E+02 -0.25509284228E+01 -0.46214684205E+03  0.46375909705E+03  0.00000000000E+00 0. -1.
          1    1    1    2  502    0  0.43153600764E+03  0.26362157778E+03  0.21986700955E+04  0.22560739906E+04  0.00000000000E+00 0. -1.
         22    1    3    3    0    0 -0.23398504239E+03 -0.11148642940E+03 -0.75061991584E+02  0.26983796357E+03  0.00000000000E+00 0.  1.
         22    1    3    3    0    0 -0.15899854320E+03 -0.14958421996E+03  0.29820066079E+02  0.22032977997E+03  0.00000000000E+00 0.  1.
</event>
<event>
 7    1  0.4822463E-005  0.4012456E+03  0.7818608E-02  0.1062267E+00
          2   -1    0    0  502    0  0.00000000000E+00  0.00000000000E+00  0.16318393599E+04  0.16318393599E+04  0.00000000000E+00 0. -1.
          1   -1    0    0  501    0 -0.00000000000E+00 -0.00000000000E+00 -0.12198970937E+04  0.12198970937E+04  0.00000000000E+00 0. -1.
         25    2    1    2    0    0 -0.25994976601E+03  0.24082818948E+03 -0.85554647712E+02  0.38537785747E+03  0.12499759031E+03 0.  0.
          2    1    1    2  501    0  0.44364644421E+03  0.48760437585E+01 -0.91715082859E+03  0.10188285359E+04  0.00000000000E+00 0. -1.
          1    1    1    2  502    0 -0.18369667821E+03 -0.24570423324E+03  0.14146477425E+04  0.14475300602E+04  0.00000000000E+00 0. -1.
         22    1    3    3    0    0 -0.23039555757E+03  0.21304340373E+03 -0.11611238516E+03  0.33459182717E+03  0.00000000000E+00 0.  1.
         22    1    3    3    0    0 -0.29554208435E+02  0.27784785755E+02  0.30557737446E+02  0.50786030299E+02  0.00000000000E+00 0.  1.
</event>
<event>
 7    1  0.4822463E-005  0.6913273E+02  0.7818608E-02  0.1413068E+00
          2   -1    0    0  502    0  0.00000000000E+00  0.00000000000E+00  0.33866354860E+03  0.33866354860E+03  0.00000000000E+00 0. -1.
          1   -1    0    0  501    0 -0.00000000000E+00 -0.00000000000E+00 -0.48709625328E+03  0.48709625328E+03  0.00000000000E+00 0. -1.
         25    2    1    2    0    0 -0.50319853977E+02  0.23010531059E+01 -0.25039184974E+03  0.28435583387E+03  0.12499911718E+03 0.  0.
          2    1    1    2  501    0 -0.37863071934E+01 -0.46044523131E+02 -0.21345985083E+03  0.21840224850E+03  0.00000000000E+00 0. -1.
          1    1    1    2  502    0  0.54106161171E+02  0.43743470026E+02  0.31541899588E+03  0.32300171951E+03  0.00000000000E+00 0. -1.
         22    1    3    3    0    0 -0.42247478343E+02 -0.26022014825E+02 -0.25002668389E+03  0.25490260364E+03  0.00000000000E+00 0. -1.
         22    1    3    3    0    0 -0.80723756348E+01  0.28323067931E+02 -0.36516584222E+00  0.29453230239E+02  0.00000000000E+00 0. -1.
</event>
<event>
 7    1  0.4822463E-005  0.6862415E+03  0.7818608E-02  0.1165203E+00
          2   -1    0    0  502    0  0.00000000000E+00  0.00000000000E+00  0.23767254339E+04  0.23767254339E+04  0.00000000000E+00 0. -1.
          1   -1    0    0  501    0 -0.00000000000E+00 -0.00000000000E+00 -0.27268694203E+03  0.27268694203E+03  0.00000000000E+00 0. -1.
         25    2    1    2    0    0 -0.55735436828E+03  0.39390138588E+03  0.95787609651E+03  0.11827754628E+04  0.12501594087E+03 0.  0.
          2    1    1    2  501    0  0.58963222193E+03 -0.35750481750E+03  0.58757770798E+03  0.90593786464E+03  0.00000000000E+00 0. -1.
          1    1    1    2  502    0 -0.32277853650E+02 -0.36396568377E+02  0.55858468733E+03  0.56069904846E+03  0.00000000000E+00 0. -1.
         22    1    3    3    0    0 -0.40810732793E+03  0.27392967204E+03  0.58887980336E+03  0.76705180994E+03  0.00000000000E+00 0. -1.
         22    1    3    3    0    0 -0.14924704035E+03  0.11997171384E+03  0.36899629315E+03  0.41572365284E+03  0.00000000000E+00 0. -1.
</event>
<event>
 7    1  0.4822463E-005  0.4685855E+03  0.7818608E-02  0.1153339E+00
          2   -1    0    0  502    0  0.00000000000E+00  0.00000000000E+00  0.86926631601E+03  0.86926631601E+03  0.00000000000E+00 0. -1.
          1   -1    0    0  501    0 -0.00000000000E+00 -0.00000000000E+00 -0.57302551243E+03  0.57302551243E+03  0.00000000000E+00 0. -1.
         25    2    1    2    0    0  0.62368084051E+02 -0.44150293700E+03  0.36776225434E+02  0.46453466912E+03  0.12500138709E+03 0.  0.
          2    1    1    2  501    0 -0.14074605486E+03  0.46494529925E+03 -0.18947447693E+03  0.52142512469E+03  0.00000000000E+00 0. -1.
          1    1    1    2  502    0  0.78377970805E+02 -0.23442362252E+02  0.44893905508E+03  0.45633203463E+03  0.00000000000E+00 0. -1.
         22    1    3    3    0    0  0.47724123935E+02 -0.86273072323E+02 -0.29428428176E+02  0.10289153220E+03  0.00000000000E+00 0.  1.
         22    1    3    3    0    0  0.14643960116E+02 -0.35522986467E+03  0.66204653610E+02  0.36164313692E+03  0.00000000000E+00 0.  1.
</event>
<event>
 7    1  0.4822463E-005  0.3800889E+03  0.7818608E-02  0.1104827E+00
          2   -1    0    0  502    0  0.00000000000E+00  0.00000000000E+00  0.11305463830E+04  0.11305463830E+04  0.00000000000E+00 0. -1.
          1   -1    0    0  501    0 -0.00000000000E+00 -0.00000000000E+00 -0.80086444628E+03  0.80086444628E+03  0.00000000000E+00 0. -1.
         25    2    1    2    0    0  0.49377308978E+03  0.16107801933E+03  0.48641695155E+03  0.72248547770E+03  0.12500328891E+03 0.  0.
          2    1    1    2  501    0 -0.31372790580E+03 -0.19503018778E+03 -0.61386551110E+03  0.71644458176E+03  0.00000000000E+00 0. -1.
          1    1    1    2  502    0 -0.18004518398E+03  0.33952168453E+02  0.45713049625E+03  0.49248076979E+03  0.00000000000E+00 0. -1.
         22    1    3    3    0    0  0.39445815382E+03  0.15253370815E+03  0.44680266734E+03  0.61522060335E+03  0.00000000000E+00 0.  1.
         22    1    3    3    0    0  0.99314935956E+02  0.85443111797E+01  0.39614284204E+02  0.10726487436E+03  0.00000000000E+00 0.  1.
</event>
<event>
 7    1  0.4822463E-005  0.3361713E+03  0.7818608E-02  0.1186080E+00
          2   -1    0    0  502    0  0.00000000000E+00  0.00000000000E+00  0.27723851698E+04  0.27723851698E+04  0.00000000000E+00 0. -1.
          1   -1    0    0  501    0 -0.00000000000E+00 -0.00000000000E+00 -0.55295376983E+03  0.55295376983E+03  0.00000000000E+00 0. -1.
         25    2    1    2    0    0  0.17990971138E+03 -0.29520436692E+03  0.37295066650E+03  0.52367022528E+03  0.12500073083E+03 0.  0.
          2    1    1    2  501    0 -0.74703170544E+02 -0.23774738885E+02 -0.46214007436E+03  0.46874220018E+03  0.00000000000E+00 0. -1.
          1    1    1    2  502    0 -0.10520654083E+03  0.31897910580E+03  0.23086208079E+04  0.23329265142E+04  0.00000000000E+00 0. -1.
         22    1    3    3    0    0  0.18753409842E+03 -0.30306934981E+03  0.35822259747E+03  0.50531524636E+03  0.00000000000E+00 0.  1.
         22    1    3    3    0    0 -0.76243870483E+01  0.78649828936E+01  0.14728069021E+02  0.18354978912E+02  0.00000000000E+00 0.  1.
</event>
<event>
 7    1  0.4822463E-005  0.4132978E+03  0.7818608E-02  0.1122941E+00
          2   -1    0    0  502    0  0.00000000000E+00  0.00000000000E+00  0.45465761288E+03  0.45465761288E+03  0.00000000000E+00 0. -1.
          1   -1    0    0  501    0 -0.00000000000E+00 -0.00000000000E+00 -0.60394910604E+03  0.60394910604E+03  0.00000000000E+00 0. -1.
         25    2    1    2    0    0  0.29096315142E+03  0.35395269294E+03 -0.79135188481E+02  0.48148876096E+03  0.12500793794E+03 0.  0.
          2    1    1    2  501    0  0.31046287673E+02 -0.13035436115E+03 -0.12256818440E+03  0.18160146276E+03  0.00000000000E+00 0. -1.
          1    1    1    2  502    0 -0.32200943910E+03 -0.22359833179E+03  0.52411879726E+02  0.39551649521E+03  0.00000000000E+00 0. -1.
         22    1    3    3    0    0  0.82496854001E+02  0.29880197096E+02  0.17479268367E+01  0.87758830592E+02  0.00000000000E+00 0. -1.
         22    1    3    3    0    0  0.20846629742E+03  0.32407249584E+03 -0.80883115317E+02  0.39372993036E+03  0.00000000000E+00 0. -1.
</event>
<event>
 7    1  0.4822463E-005  0.9340674E+03  0.7818608E-02  0.1120451E+00
          2   -1    0    0  502    0  0.00000000000E+00  0.00000000000E+00  0.19431428420E+04  0.19431428420E+04  0.00000000000E+00 0. -1.
          1   -1    0    0  501    0 -0.00000000000E+00 -0.00000000000E+00 -0.11261521007E+04  0.11261521007E+04  0.00000000000E+00 0. -1.
         25    2    1    2    0    0  0.66124102352E+03  0.63069442637E+03  0.87216719904E+03  0.12693761221E+04  0.12499986248E+03 0.  0.
          2    1    1    2  501    0  0.70348189871E+01  0.60754180441E+02 -0.66071123226E+03  0.66353590073E+03  0.00000000000E+00 0. -1.
          1    1    1    2  502    0 -0.66827584251E+03 -0.69144860681E+03  0.60553477448E+03  0.11363829199E+04  0.00000000000E+00 0. -1.
         22    1    3    3    0    0  0.55943657447E+03  0.57352156867E+03  0.79947058916E+03  0.11318345699E+04  0.00000000000E+00 0. -1.
         22    1    3    3    0    0  0.10180444905E+03  0.57172857698E+02  0.72696609878E+02  0.13754155224E+03  0.00000000000E+00 0. -1.
</event>
<event>
 7    1  0.4822463E-005  0.1562964E+04  0.7818608E-02  0.9284433E-01
          2   -1    0    0  502    0  0.00000000000E+00  0.00000000000E+00  0.18586247054E+04  0.18586247054E+04  0.00000000000E+00 0. -1.
          1   -1    0    0  501    0 -0.00000000000E+00 -0.00000000000E+00 -0.27447619948E+04  0.27447619948E+04  0.00000000000E+00 0. -1.
         25    2    1    2    0    0 -0.78430998594E+03  0.10993361394E+04  0.23069490064E+03  0.13756920023E+04  0.12500498617E+03 0.  0.
          2    1    1    2  501    0  0.14247480570E+04 -0.90717153275E+03 -0.16585053117E+04  0.23671728042E+04  0.00000000000E+00 0. -1.
          1    1    1    2  502    0 -0.64043807111E+03 -0.19216460665E+03  0.54167312158E+03  0.86052189374E+03  0.00000000000E+00 0. -1.
         22    1    3    3    0    0 -0.28966877872E+03  0.34691894382E+03  0.12595720710E+03  0.46917584440E+03  0.00000000000E+00 0. -1.
         22    1    3    3    0    0 -0.49464120721E+03  0.75241719557E+03  0.10473769354E+03  0.90651615789E+03  0.00000000000E+00 0. -1.
</event>
<event>
 7    1  0.4822463E-005  0.4448522E+03  0.7818608E-02  0.1215537E+00
          2   -1    0    0  502    0  0.00000000000E+00  0.00000000000E+00  0.23173275884E+04  0.23173275884E+04  0.00000000000E+00 0. -1.
          1   -1    0    0  501    0 -0.00000000000E+00 -0.00000000000E+00 -0.32495353444E+03  0.32495353444E+03  0.00000000000E+00 0. -1.
         25    2    1    2    0    0 -0.33642215499E+03 -0.28696119436E+03  0.10905679619E+04  0.11834228815E+04  0.12499857400E+03 0.  0.
          2    1    1    2  501    0 -0.30883681700E+02  0.29978357177E+02 -0.23392889811E+03  0.23785548778E+03  0.00000000000E+00 0. -1.
          1    1    1    2  502    0  0.36730583669E+03  0.25698283719E+03  0.11357349902E+04  0.12210027535E+04  0.00000000000E+00 0. -1.
         22    1    3    3    0    0 -0.16170316160E+03 -0.18149117058E+03  0.72607609596E+03  0.76568495780E+03  0.00000000000E+00 0. -1.
         22    1    3    3    0    0 -0.17471899339E+03 -0.10547002379E+03  0.36449186597E+03  0.41773792374E+03  0.00000000000E+00 0. -1.
</event>
<event>
 7    1  0.4822463E-005  0.5210715E+03  0.7818608E-02  0.1052643E+00
          2   -1    0    0  502    0  0.00000000000E+00  0.00000000000E+00  0.11619349735E+04  0.11619349735E+04  0.00000000000E+00 0. -1.
          1   -1    0    0  501    0 -0.00000000000E+00 -0.00000000000E+00 -0.97862932764E+03  0.97862932764E+03  0.00000000000E+00 0. -1.
         25    2    1    2    0    0  0.22309495534E+03 -0.28102418259E+03 -0.71295629715E+03  0.80788450183E+03  0.12499894542E+03 0.  0.
          2    1    1    2  501    0 -0.10975936595E+03 -0.24719593278E+03 -0.17637575187E+02  0.27104249050E+03  0.00000000000E+00 0. -1.
          1    1    1    2  502    0 -0.11333558939E+03  0.52822011536E+03  0.91389951825E+03  0.10616373089E+04  0.00000000000E+00 0. -1.
         22    1    3    3    0    0  0.81367471254E+02 -0.36182194471E+02 -0.10748573820E+03  0.13958151916E+03  0.00000000000E+00 0. -1.
         22    1    3    3    0    0  0.14172748409E+03 -0.24484198812E+03 -0.60547055896E+03  0.66830298267E+03  0.00000000000E+00 0. -1.
</event>
<event>
 7    1  0.4822463E-005  0.7704087E+03  0.7818608E-02  0.1063536E+00
          2   -1    0    0  502    0  0.00000000000E+00  0.00000000000E+00  0.11624794629E+04  0.11624794629E+04  0.00000000000E+00 0. -1.
          1   -1    0    0  501    0 -0.00000000000E+00 -0.00000000000E+00 -0.16322327842E+04  0.16322327842E+04  0.00000000000E+00 0. -1.
         25    2    1    2    0    0 -0.76249585863E+03  0.42078669351E+03 -0.40342724481E+03  0.96790566425E+03  0.12500582856E+03 0.  0.
          2    1    1    2  501    0  0.65176005515E+03 -0.30951578028E+03 -0.79954576104E+03  0.10769701072E+04  0.00000000000E+00 0. -1.
          1    1    1    2  502    0  0.11073580347E+03 -0.11127091324E+03  0.73321968456E+03  0.74983647559E+03  0.00000000000E+00 0. -1.
         22    1    3    3    0    0 -0.33230778944E+02  0.44581942076E+02 -0.53462720131E+01  0.55860691483E+02  0.00000000000E+00 0. -1.
         22    1    3    3    0    0 -0.72926507968E+03  0.37620475144E+03 -0.39808097280E+03  0.91204497277E+03  0.00000000000E+00 0. -1.
</event>
<event>
 7    1  0.4822463E-005  0.2094043E+03  0.7818608E-02  0.1243366E+00
          2   -1    0    0  502    0  0.00000000000E+00  0.00000000000E+00  0.89878574649E+03  0.89878574649E+03  0.00000000000E+00 0. -1.
          1   -1    0    0  501    0 -0.00000000000E+00 -0.00000000000E+00 -0.90041281496E+02  0.90041281496E+02  0.00000000000E+00 0. -1.
         25    2    1    2    0    0 -0.57086461169E+01 -0.23498740049E+03  0.22760368339E+03  0.35025806951E+03  0.12500244611E+03 0.  0.
          2    1    1    2  501    0 -0.33375318635E+02  0.17863433647E+03  0.31428330513E+03  0.36304012718E+03  0.00000000000E+00 0. -1.
          1    1    1    2  502    0  0.39083964752E+02  0.56353064028E+02  0.26685747647E+03  0.27552883129E+03  0.00000000000E+00 0. -1.
         22    1    3    3    0    0 -0.26866216075E+02 -0.70302310203E+02  0.90742480957E+01  0.75806004806E+02  0.00000000000E+00 0.  1.
         22    1    3    3    0    0  0.21157569958E+02 -0.16468509029E+03  0.21852943530E+03  0.27445206471E+03  0.00000000000E+00 0.  1.
</event>
<event>
 7    1  0.4822463E-005  0.2925524E+03  0.7818608E-02  0.1319748E+00
          2   -1    0    0  502    0  0.00000000000E+00  0.00000000000E+00  0.66646497020E+03  0.66646497020E+03  0.00000000000E+00 0. -1.
          1   -1    0    0  501    0 -0.00000000000E+00 -0.00000000000E+00 -0.42064286762E+03  0.42064286762E+03  0.00000000000E+00 0. -1.
         25    2    1    2    0    0  0.22655741336E+03  0.15783337952E+03  0.81205054442E+02  0.31378564766E+03  0.12501013787E+03 0.  0.
          2    1    1    2  501    0  0.22029758129E+02  0.88980302361E+01 -0.25598478148E+03  0.25708499282E+03  0.00000000000E+00 0. -1.
          1    1    1    2  502    0 -0.24858717149E+03 -0.16673140975E+03  0.42060182963E+03  0.51623719734E+03  0.00000000000E+00 0. -1.
         22    1    3    3    0    0  0.23149397535E+03  0.13161989924E+03  0.47003110407E+02  0.27041181721E+03  0.00000000000E+00 0. -1.
         22    1    3    3    0    0 -0.49365619815E+01  0.26213480278E+02  0.34201944035E+02  0.43373830454E+02  0.00000000000E+00 0. -1.
</event>
<event>
 7    1  0.4822463E-005  0.1538576E+04  0.7818608E-02  0.1095088E+00
          2   -1    0    0  502    0  0.00000000000E+00  0.00000000000E+00  0.33828703087E+04  0.33828703087E+04  0.00000000000E+00 0. -1.
          1   -1    0    0  501    0 -0.00000000000E+00 -0.00000000000E+00 -0.19976887506E+04  0.19976887506E+04  0.00000000000E+00 0. -1.
         25    2    1    2    0    0  0.80845420976E+03 -0.13256400514E+04  0.28105340519E+03  0.15828885640E+04  0.12500173724E+03 0.  0.
          2    1    1    2  501    0 -0.50781045293E+02 -0.76813794455E+01 -0.11062240238E+04  0.11074155990E+04  0.00000000000E+00 0. -1.
          1    1    1    2  502    0 -0.75767316446E+03  0.13333214308E+04  0.22103521767E+04  0.26902548963E+04  0.00000000000E+00 0. -1.
         22    1    3    3    0    0  0.58837118673E+03 -0.10598423173E+04  0.23440948310E+03  0.12346635965E+04  0.00000000000E+00 0.  1.
         22    1    3    3    0    0  0.22008302303E+03 -0.26579773413E+03  0.46643922088E+02  0.34822496745E+03  0.00000000000E+00 0.  1.
</event>
<event>
 7    1  0.4822463E-005  0.5243245E+03  0.7818608E-02  0.1160277E+00
          2   -1    0    0  502    0  0.00000000000E+00  0.00000000000E+00  0.45800240109E+03  0.45800240109E+03  0.00000000000E+00 0. -1.
          1   -1    0    0  501    0 -0.00000000000E+00 -0.00000000000E+00 -0.10098263766E+04  0.10098263766E+04  0.00000000000E+00 0. -1.
         25    2    1    2    0    0  0.28761167366E+03  0.47186640072E+03 -0.26178304190E+03  0.62412650459E+03  0.12500063105E+03 0.  0.
          2    1    1    2  501    0 -0.22206788210E+03 -0.45611711242E+03 -0.44493409424E+03  0.67477649094E+03  0.00000000000E+00 0. -1.
          1    1    1    2  502    0 -0.65543791560E+02 -0.15749288293E+02  0.15489316059E+03  0.16892578220E+03  0.00000000000E+00 0. -1.
         22    1    3    3    0    0 -0.87173872658E+01  0.15261327084E+02 -0.24911722261E+02  0.30487617996E+02  0.00000000000E+00 0.  1.
         22    1    3    3    0    0  0.29632906092E+03  0.45660507363E+03 -0.23687131964E+03  0.59363888660E+03  0.00000000000E+00 0.  1.
</event>
<event>
 7    1  0.4822463E-005  0.1653197E+03  0.7818608E-02  0.1193557E+00
          2   -1    0    0  502    0  0.00000000000E+00  0.00000000000E+00  0.20866442426E+04  0.20866442426E+04  0.00000000000E+00 0. -1.
          1   -1    0    0  501    0 -0.00000000000E+00 -0.00000000000E+00 -0.23657983453E+04  0.23657983453E+04  0.00000000000E+00 0. -1.
         25    2    1    2    0    0  0.32541128603E+01  0.29297951085E+03  0.46570444320E+02  0.32193397708E+03  0.12500038514E+03 0.  0.
          2    1    1    2  501    0  0.49185472754E+02 -0.15589521536E+03 -0.22222790409E+04  0.22282833448E+04  0.00000000000E+00 0. -1.
          1    1    1    2  502    0 -0.52439585615E+02 -0.13708429549E+03  0.18965544940E+04  0.19022252660E+04  0.00000000000E+00 0. -1.
         22    1    3    3    0    0 -0.13448845179E+02  0.18101742828E+03  0.87571374683E+02  0.20153641468E+03  0.00000000000E+00 0. -1.
         22    1    3    3    0    0  0.16702958039E+02  0.11196208257E+03 -0.41000930363E+02  0.12039756240E+03  0.00000000000E+00 0. -1.
</event>
<event>
 7    1  0.4822463E-005  0.1617091E+03  0.7818608E-02  0.1223563E+00
          2   -1    0    0  502    0  0.00000000000E+00  0.00000000000E+00  0.42945764152E+03  0.42945764152E+03  0.00000000000E+00 0. -1.
          1   -1    0    0  501    0 -0.00000000000E+00 -0.00000000000E+00 -0.26583210382E+03  0.26583210382E+03  0.00000000000E+00 0. -1.
         25    2    1    2    0    0 -0.55748290590E+02  0.14709592009E+03  0.39039516234E+02  0.20467582961E+03  0.12499211889E+03 0.  0.
          2    1    1    2  501    0  0.14776468458E+03 -0.88989949534E+02 -0.12851773156E+03  0.21510560302E+03  0.00000000000E+00 0. -1.
          1    1    1    2  502    0 -0.92016393993E+02 -0.58105970557E+02  0.25310375303E+03  0.27550831271E+03  0.00000000000E+00 0. -1.
         22    1    3    3    0    0 -0.46477258477E+02  0.12922215597E+03 -0.23189443276E+02  0.13927042553E+03  0.00000000000E+00 0. -1.
         22    1    3    3    0    0 -0.92710321124E+01  0.17873764124E+02  0.62228959509E+02  0.65405404073E+02  0.00000000000E+00 0. -1.
</event>
<event>
 7    1  0.4822463E-005  0.3904161E+03  0.7818608E-02  0.1117460E+00
          2   -1    0    0  502    0  0.00000000000E+00  0.00000000000E+00  0.14063178891E+04  0.14063178891E+04  0.00000000000E+00 0. -1.
          1   -1    0    0  501    0 -0.00000000000E+00 -0.00000000000E+00 -0.37543059554E+03  0.37543059554E+03  0.00000000000E+00 0. -1.
         25    2    1    2    0    0  0.35410832804E+03 -0.38135547180E+02 -0.28995815700E+02  0.37856680687E+03  0.12500016795E+03 0.  0.
          2    1    1    2  501    0 -0.45797743286E+03 -0.72719359729E+02  0.15996346556E+03  0.49053006493E+03  0.00000000000E+00 0. -1.
          1    1    1    2  502    0  0.10386910481E+03  0.11085490691E+03  0.89991964367E+03  0.91265161282E+03  0.00000000000E+00 0. -1.
         22    1    3    3    0    0  0.26605561765E+03  0.25561555958E+02 -0.52812058095E+01  0.26733289352E+03  0.00000000000E+00 0.  1.
         22    1    3    3    0    0  0.88052710396E+02 -0.63697103138E+02 -0.23714609891E+02  0.11123391335E+03  0.00000000000E+00 0.  1.
</event>
<event>
 7    1  0.4822463E-005  0.3335485E+03  0.7818608E-02  0.1141514E+00
          2   -1    0    0  502    0  0.00000000000E+00  0.00000000000E+00  0.11239196922E+04  0.11239196922E+04  0.00000000000E+00 0. -1.
          1   -1    0    0  501    0 -0.00000000000E+00 -0.00000000000E+00 -0.31734250077E+03  0.31734250077E+03  0.00000000000E+00 0. -1.
         25    2    1    2    0    0 -0.41558003452E+02  0.43292558996E+03  0.30742896525E+03  0.54707412062E+03  0.12500356267E+03 0.  0.
          2    1    1    2  501    0  0.30750488018E+02 -0.12867374239E+03 -0.13606929298E+03  0.18978244647E+03  0.00000000000E+00 0. -1.
          1    1    1    2  502    0  0.10807515434E+02 -0.30425184757E+03  0.63521751917E+03  0.70440562590E+03  0.00000000000E+00 0. -1.
         22    1    3    3    0    0  0.28238017682E+02  0.29873286676E+03  0.22293034379E+03  0.37381365613E+03  0.00000000000E+00 0.  1.
         22    1    3    3    0    0 -0.69796021134E+02  0.13419272320E+03  0.84498621465E+02  0.17326046449E+03  0.00000000000E+00 0.  1.
</event>
<event>
 7    1  0.4822463E-005  0.4525193E+02  0.7818608E-02  0.1496441E+00
          2   -1    0    0  502    0  0.00000000000E+00  0.00000000000E+00  0.30711211395E+04  0.30711211395E+04  0.00000000000E+00 0. -1.
          1   -1    0    0  501    0 -0.00000000000E+00 -0.00000000000E+00 -0.81747376353E+01  0.81747376353E+01  0.00000000000E+00 0. -1.
         25    2    1    2    0    0 -0.10165783478E+02  0.37645591910E+01  0.11594123242E+04  0.11661814027E+04  0.12499844630E+03 0.  0.
          2    1    1    2  501    0  0.46806488677E+02 -0.15005357145E+02  0.12719421985E+03  0.13636120302E+03  0.00000000000E+00 0. -1.
          1    1    1    2  502    0 -0.36640705198E+02  0.11240797954E+02  0.17763398579E+04  0.17767532714E+04  0.00000000000E+00 0. -1.
         22    1    3    3    0    0  0.42232726203E+02 -0.37098643024E+02  0.41125346662E+03  0.41507749431E+03  0.00000000000E+00 0. -1.
         22    1    3    3    0    0 -0.52398509681E+02  0.40863202215E+02  0.74815885756E+03  0.75110390843E+03  0.00000000000E+00 0. -1.
</event>
<event>
 7    1  0.4822463E-005  0.2691678E+03  0.7818608E-02  0.1228229E+00
          2   -1    0    0  502    0  0.00000000000E+00  0.00000000000E+00  0.11139467757E+04  0.11139467757E+04  0.00000000000E+00 0. -1.
          1   -1    0    0  501    0 -0.00000000000E+00 -0.00000000000E+00 -0.27507776300E+03  0.27507776300E+03  0.00000000000E+00 0. -1.
         25    2    1    2    0    0  0.23627503658E+03  0.19895710555E+03 -0.98906530249E+02  0.34758328628E+03  0.12498726502E+03 0.  0.
          2    1    1    2  501    0 -0.81882402640E+01 -0.61744394630E+02 -0.43492493405E+01  0.62436636014E+02  0.00000000000E+00 0. -1.
          1    1    1    2  502    0 -0.22808679632E+03 -0.13721271092E+03  0.94212479234E+03  0.97900461645E+03  0.00000000000E+00 0. -1.
         22    1    3    3    0    0  0.24660068846E+03  0.18189486181E+03 -0.10899349083E+03  0.32523410236E+03  0.00000000000E+00 0. -1.
         22    1    3    3    0    0 -0.10325651872E+02  0.17062243744E+02  0.10086960578E+02  0.22349183920E+02  0.00000000000E+00 0. -1.
</event>
<event>
 7    1  0.4822463E-005  0.2880889E+03  0.7818608E-02  0.1135421E+00
          2   -1    0    0  502    0  0.00000000000E+00  0.00000000000E+00  0.11256415636E+04  0.11256415636E+04  0.00000000000E+00 0. -1.
          1   -1    0    0  501    0 -0.00000000000E+00 -0.00000000000E+00 -0.68538653678E+03  0.68538653678E+03  0.00000000000E+00 0. -1.
         25    2    1    2    0    0 -0.26278112148E+03 -0.23278048696E+03 -0.39648751430E+03  0.54412121699E+03  0.12499950745E+03 0.  0.
          2    1    1    2  501    0  0.98379185630E+02  0.22014246004E+03 -0.13833335351E+03  0.27798791983E+03  0.00000000000E+00 0. -1.
          1    1    1    2  502    0  0.16440193585E+03  0.12638026921E+02  0.97507589460E+03  0.98891896355E+03  0.00000000000E+00 0. -1.
         22    1    3    3    0    0 -0.18702559584E+03 -0.15800804821E+03 -0.35195510787E+03  0.42873944856E+03  0.00000000000E+00 0. -1.
         22    1    3    3    0    0 -0.75755525641E+02 -0.74772438758E+02 -0.44532406431E+02  0.11538176843E+03  0.00000000000E+00 0. -1.
</event>
<event>
 7    1  0.4822463E-005  0.2936882E+03  0.7818608E-02  0.1155870E+00
          2   -1    0    0  502    0  0.00000000000E+00  0.00000000000E+00  0.12592657051E+04  0.12592657051E+04  0.00000000000E+00 0. -1.
          1   -1    0    0  501    0 -0.00000000000E+00 -0.00000000000E+00 -0.11329364755E+03  0.11329364755E+03  0.00000000000E+00 0. -1.
         25    2    1    2    0    0 -0.19452406984E+03  0.28952689837E+03  0.54387169488E+03  0.65809331413E+03  0.12499980393E+03 0.  0.
          2    1    1    2  501    0  0.19924872158E+03 -0.16291234835E+03  0.42115278984E+03  0.49356879833E+03  0.00000000000E+00 0. -1.
          1    1    1    2  502    0 -0.47246517382E+01 -0.12661455003E+03  0.18094757283E+03  0.22089724020E+03  0.00000000000E+00 0. -1.
         22    1    3    3    0    0 -0.12850057898E+03  0.11603994128E+03  0.34526261992E+03  0.38624337339E+03  0.00000000000E+00 0. -1.
         22    1    3    3    0    0 -0.66023490863E+02  0.17348695709E+03  0.19860907496E+03  0.27184994075E+03  0.00000000000E+00 0. -1.
</event>
<event>
 7    1  0.4822463E-005  0.2224212E+03  0.7818608E-02  0.1136213E+00
          2   -1    0    0  502    0  0.00000000000E+00  0.00000000000E+00  0.13180370581E+04  0.13180370581E+04  0.00000000000E+00 0. -1.
          1   -1    0    0  501    0 -0.00000000000E+00 -0.00000000000E+00 -0.36778197248E+03  0.36778197248E+03  0.00000000000E+00 0. -1.
         25    2    1    2    0    0 -0.17370591063E+03 -0.10267789410E+03 -0.51775230226E+01  0.23741818721E+03  0.12499638214E+03 0.  0.
          2    1    1    2  501    0  0.16671605699E+03 -0.13018152143E+03 -0.18707717863E+03  0.28238155560E+03  0.00000000000E+00 0. -1.
          1    1    1    2  502    0  0.69898536390E+01  0.23285941553E+03  0.11425097872E+04  0.11660192878E+04  0.00000000000E+00 0. -1.
         22    1    3    3    0    0 -0.12571140077E+03 -0.58848908076E+02 -0.61117975634E+02  0.15166396147E+03  0.00000000000E+00 0. -1.
         22    1    3    3    0    0 -0.47994509864E+02 -0.43828986022E+02  0.55940452612E+02  0.85754225734E+02  0.00000000000E+00 0. -1.
</event>
<event>
 7    1  0.4822463E-005  0.3938250E+03  0.7818608E-02  0.1118659E+00
          2   -1    0    0  502    0  0.00000000000E+00  0.00000000000E+00  0.19538969305E+04  0.19538969305E+04  0.00000000000E+00 0. -1.
          1   -1    0    0  501    0 -0.00000000000E+00 -0.00000000000E+00 -0.21840268731E+04  0.21840268731E+04  0.00000000000E+00 0. -1.
         25    2    1    2    0    0 -0.40463811632E+03 -0.34318138152E+03  0.48900036600E+03  0.73229230879E+03  0.12500080704E+03 0.  0.
          2    1    1    2  501    0  0.26981782797E+03  0.28128645554E+03 -0.20397746895E+04  0.20766811297E+04  0.00000000000E+00 0. -1.
          1    1    1    2  502    0  0.13482028835E+03  0.61894925975E+02  0.13206443809E+04  0.13289503651E+04  0.00000000000E+00 0. -1.
         22    1    3    3    0    0 -0.30062254502E+03 -0.29094642045E+03  0.31827116291E+03  0.52566174227E+03  0.00000000000E+00 0.  1.
         22    1    3    3    0    0 -0.10401557130E+03 -0.52234961065E+02  0.17072920309E+03  0.20663056651E+03  0.00000000000E+00 0.  1.
</event>
<event>
 7    1  0.4822463E-005  0.1028386E+03  0.7818608E-02  0.1290637E+00
          2   -1    0    0  502    0  0.00000000000E+00  0.00000000000E+00  0.49748975962E+02  0.49748975962E+02  0.00000000000E+00 0. -1.
          1   -1    0    0  501    0 -0.00000000000E+00 -0.00000000000E+00 -0.80031614521E+03  0.80031614521E+03  0.00000000000E+00 0. -1.
         25    2    1    2    0    0  0.13742802325E+03  0.10818970362E+02 -0.51463480807E+03  0.54724544828E+03  0.12500033317E+03 0.  0.
          2    1    1    2  501    0 -0.65495874931E+02  0.59076003490E+02 -0.12836392798E+03  0.15574653071E+03  0.00000000000E+00 0. -1.
          1    1    1    2  502    0 -0.71932148315E+02 -0.69894973853E+02 -0.10756843320E+03  0.14707314219E+03  0.00000000000E+00 0. -1.
         22    1    3    3    0    0  0.11329961909E+03  0.55273658041E+02 -0.27773526124E+03  0.30500632173E+03  0.00000000000E+00 0. -1.
         22    1    3    3    0    0  0.24128404157E+02 -0.44454687679E+02 -0.23689954683E+03  0.24223912655E+03  0.00000000000E+00 0. -1.
</event>
<event>
 7    1  0.4822463E-005  0.9555586E+03  0.7818608E-02  0.1137054E+00
          2   -1    0    0  502    0  0.00000000000E+00  0.00000000000E+00  0.17004577097E+04  0.17004577097E+04  0.00000000000E+00 0. -1.
          1   -1    0    0  501    0 -0.00000000000E+00 -0.00000000000E+00 -0.11574577479E+04  0.11574577479E+04  0.00000000000E+00 0. -1.
         25    2    1    2    0    0  0.19354709505E+02  0.95420589795E+03  0.11207889370E+04  0.14773862815E+04  0.12497552979E+03 0.  0.
          2    1    1    2  501    0  0.48600492926E+02  0.36192463248E+01 -0.40125509569E+03  0.40420385782E+03  0.00000000000E+00 0. -1.
          1    1    1    2  502    0 -0.67955202432E+02 -0.95782514428E+03 -0.17653387943E+03  0.97632531829E+03  0.00000000000E+00 0. -1.
         22    1    3    3    0    0 -0.48286087565E+02  0.31826041160E+03  0.34213385099E+03  0.46976250152E+03  0.00000000000E+00 0.  1.
         22    1    3    3    0    0  0.67640797070E+02  0.63594548635E+03  0.77865508600E+03  0.10076237800E+04  0.00000000000E+00 0.  1.
</event>
<event>
 7    1  0.4822463E-005  0.2105433E+03  0.7818608E-02  0.1187999E+00
          2   -1    0    0  502    0  0.00000000000E+00  0.00000000000E+00  0.13215780700E+03  0.13215780700E+03  0.00000000000E+00 0. -1.
          1   -1    0    0  501    0 -0.00000000000E+00 -0.00000000000E+00 -0.20046823626E+04  0.20046823626E+04  0.00000000000E+00 0. -1.
         25    2    1    2    0    0 -0.19060380823E+03 -0.47895879346E+02 -0.82718170547E+03  0.85934755731E+03  0.12499929370E+03 0.  0.
          2    1    1    2  501    0  0.16453579661E+03  0.16762400651E+03 -0.11130050478E+04  0.11375192624E+04  0.00000000000E+00 0. -1.
          1    1    1    2  502    0  0.26068011626E+02 -0.11972812717E+03  0.67662197715E+02  0.13997334984E+03  0.00000000000E+00 0. -1.
         22    1    3    3    0    0 -0.93953428503E+02 -0.68749668871E+02 -0.27892431015E+03  0.30224581798E+03  0.00000000000E+00 0. -1.
         22    1    3    3    0    0 -0.96650379731E+02  0.20853789525E+02 -0.54825739532E+03  0.55710173933E+03  0.00000000000E+00 0. -1.
</event>
<event>
 7    1  0.4822463E-005  0.4186848E+03  0.7818608E-02  0.1072004E+00
          2   -1    0    0  502    0  0.00000000000E+00  0.00000000000E+00  0.56957740400E+03  0.56957740400E+03  0.00000000000E+00 0. -1.
          1   -1    0    0  501    0 -0.00000000000E+00 -0.00000000000E+00 -0.14991150865E+04  0.14991150865E+04  0.00000000000E+00 0. -1.
         25    2    1    2    0    0  0.19321013104E+03  0.71800020558E+02 -0.48727072533E+03  0.54363868229E+03  0.12499943773E+03 0.  0.
          2    1    1    2  501    0  0.21798368810E+03  0.13619195778E+03 -0.86337082045E+03  0.90081868944E+03  0.00000000000E+00 0. -1.
          1    1    1    2  502    0 -0.41119381913E+03 -0.20799197834E+03  0.42110386322E+03  0.62423511882E+03  0.00000000000E+00 0. -1.
         22    1    3    3    0    0  0.81661434112E+02  0.19602330447E+02 -0.72423578652E+02  0.11089641980E+03  0.00000000000E+00 0.  1.
         22    1    3    3    0    0  0.11154869693E+03  0.52197690111E+02 -0.41484714668E+03  0.43274226249E+03  0.00000000000E+00 0.  1.
</event>
<event>
 7    1  0.4822463E-005  0.9662599E+02  0.7818608E-02  0.1295249E+00
          2   -1    0    0  502    0  0.00000000000E+00  0.00000000000E+00  0.47367673684E+03  0.47367673684E+03  0.00000000000E+00 0. -1.
          1   -1    0    0  501    0 -0.00000000000E+00 -0.00000000000E+00 -0.58774548602E+03  0.58774548602E+03  0.00000000000E+00 0. -1.
         25    2    1    2    0    0  0.91942824773E+01 -0.31846122362E+02  0.36964860721E+01  0.12939118864E+03  0.12501881998E+03 0.  0.
          2    1    1    2  501    0  0.69300415713E+02  0.75719114488E+02 -0.51480358029E+03  0.52493681353E+03  0.00000000000E+00 0. -1.
          1    1    1    2  502    0 -0.78494698190E+02 -0.43872992126E+02  0.39703834504E+03  0.40709422068E+03  0.00000000000E+00 0. -1.
         22    1    3    3    0    0 -0.23810759353E+02 -0.33143061463E+02  0.54931646878E+02  0.68431722270E+02  0.00000000000E+00 0.  1.
         22    1    3    3    0    0  0.33005041830E+02  0.12969391012E+01 -0.51235160806E+02  0.60959466369E+02  0.00000000000E+00 0.  1.
</event>
<event>
 7    1  0.4822463E-005  0.2633821E+02  0.7818608E-02  0.1650305E+00
          2   -1    0    0  502    0  0.00000000000E+00  0.00000000000E+00  0.11935634296E+04  0.11935634296E+04  0.00000000000E+00 0. -1.
          1   -1    0    0  501    0 -0.00000000000E+00 -0.00000000000E+00 -0.32955621022E+03  0.32955621022E+03  0.00000000000E+00 0. -1.
         25    2    1    2    0    0  0.18135793798E+01  0.57747257069E+01  0.15908506382E+03  0.20241053073E+03  0.12500131557E+03 0.  0.
          2    1    1    2  501    0  0.21486828710E+02 -0.15364332905E+02 -0.30716984263E+03  0.30830351726E+03  0.00000000000E+00 0. -1.
          1    1    1    2  502    0 -0.23300408090E+02  0.95896071979E+01  0.10120919982E+04  0.10124055919E+04  0.00000000000E+00 0. -1.
         22    1    3    3    0    0 -0.15516122992E+02 -0.47783189525E+02  0.23220227346E+02  0.55345842047E+02  0.00000000000E+00 0. -1.
         22    1    3    3    0    0  0.17329702371E+02  0.53557915232E+02  0.13586483648E+03  0.14706468869E+03  0.00000000000E+00 0. -1.
</event>
<event>
 7    1  0.4822463E-005  0.4615116E+03  0.7818608E-02  0.1091939E+00
          2   -1    0    0  502    0  0.00000000000E+00  0.00000000000E+00  0.50418376195E+03  0.50418376195E+03  0.00000000000E+00 0. -1.
          1   -1    0    0  501    0 -0.00000000000E+00 -0.00000000000E+00 -0.28922048547E+04  0.28922048547E+04  0.00000000000E+00 0. -1.
         25    2    1    2    0    0 -0.35517318018E+03 -0.38557689946E+03 -0.38787100508E+03  0.66399343259E+03  0.12500331444E+03 0.  0.
          2    1    1    2  501    0 -0.42520590695E+02  0.17330576455E+03 -0.22225633107E+04  0.22297153537E+04  0.00000000000E+00 0. -1.
          1    1    1    2  502    0  0.39769377088E+03  0.21227113491E+03  0.22241322297E+03  0.50267983037E+03  0.00000000000E+00 0. -1.
         22    1    3    3    0    0 -0.83029314943E+02 -0.10800560234E+03 -0.39080587247E+02  0.14172638983E+03  0.00000000000E+00 0.  1.
         22    1    3    3    0    0 -0.27214386524E+03 -0.27757129713E+03 -0.34879041783E+03  0.52226704276E+03  0.00000000000E+00 0.  1.
</event>
<event>
 7    1  0.4822463E-005  0.4401169E+03  0.7818608E-02  0.1219916E+00
          2   -1    0    0  502    0  0.00000000000E+00  0.00000000000E+00  0.25089276672E+04  0.25089276672E+04  0.00000000000E+00 0. -1.
          1   -1    0    0  501    0 -0.00000000000E+00 -0.00000000000E+00 -0.41287922447E+03  0.41287922447E+03  0.00000000000E+00 0. -1.
         25    2    1    2    0    0  0.16127217981E+03 -0.44695319089E+03  0.73883709040E+03  0.88728868063E+03  0.12500034322E+03 0.  0.
          2    1    1    2  501    0 -0.14151947043E+03  0.41040810206E+03 -0.19913588759E+03  0.47761665850E+03  0.00000000000E+00 0. -1.
          1    1    1    2  502    0 -0.19752709388E+02  0.36545088832E+02  0.15563472399E+04  0.15569015525E+04  0.00000000000E+00 0. -1.
         22    1    3    3    0    0  0.17330268765E+03 -0.38569768585E+03  0.58987321069E+03  0.72577333315E+03  0.00000000000E+00 0.  1.
         22    1    3    3    0    0 -0.12030507838E+02 -0.61255505044E+02  0.14896387971E+03  0.16151534749E+03  0.00000000000E+00 0.  1.
</event>
<event>
 7    1  0.4822463E-005  0.3397383E+03  0.7818608E-02  0.1085694E+00
          2   -1    0    0  502    0  0.00000000000E+00  0.00000000000E+00  0.22782654592E+04  0.22782654592E+04  0.00000000000E+00 0. -1.
          1   -1    0    0  501    0 -0.00000000000E+00 -0.00000000000E+00 -0.34582901594E+04  0.34582901594E+04  0.00000000000E+00 0. -1.
         25    2    1    2    0    0 -0.64694675383E+02  0.35682449926E+03 -0.28939311345E+04  0.29192414367E+04  0.12499611867E+03 0.  0.
          2    1    1    2  501    0 -0.18440495608E+03 -0.27148090093E+03 -0.49437378876E+03  0.59339068952E+03  0.00000000000E+00 0. -1.
          1    1    1    2  502    0  0.24909963146E+03 -0.85343598331E+02  0.22082802231E+04  0.22239234924E+04  0.00000000000E+00 0. -1.
         22    1    3    3    0    0 -0.90304397534E+02  0.16799505160E+03 -0.16069658837E+04  0.16182449051E+04  0.00000000000E+00 0. -1.
         22    1    3    3    0    0  0.25609722151E+02  0.18882944766E+03 -0.12869652508E+04  0.13009965315E+04  0.00000000000E+00 0. -1.
</event>
<event>
 7    1  0.4822463E-005  0.5844967E+02  0.7818608E-02  0.1485596E+00
          2   -1    0    0  502    0  0.00000000000E+00  0.00000000000E+00  0.27040092633E+03  0.27040092633E+03  0.00000000000E+00 0. -1.
          1   -1    0    0  501    0 -0.00000000000E+00 -0.00000000000E+00 -0.13024275778E+04  0.13024275778E+04  0.00000000000E+00 0. -1.
         25    2    1    2    0    0 -0.38166694010E+02 -0.70240912000E+02 -0.15387726962E+03  0.21375864988E+03  0.12499625612E+03 0.  0.
          2    1    1    2  501    0  0.43273315351E+02  0.38653517849E+02 -0.11167886709E+04  0.11182949565E+04  0.00000000000E+00 0. -1.
          1    1    1    2  502    0 -0.51066213405E+01  0.31587394151E+02  0.23863928911E+03  0.24077489769E+03  0.00000000000E+00 0. -1.
         22    1    3    3    0    0 -0.66036539639E+02 -0.88965541173E+02 -0.94848996872E+02  0.14584932050E+03  0.00000000000E+00 0. -1.
         22    1    3    3    0    0  0.27869845629E+02  0.18724629172E+02 -0.59028272747E+02  0.67909329378E+02  0.00000000000E+00 0. -1.
</event>
<event>
 7    1  0.4822463E-005  0.5554131E+03  0.7818608E-02  0.1023961E+00
          2   -1    0    0  502    0  0.00000000000E+00  0.00000000000E+00  0.27989714452E+04  0.27989714452E+04  0.00000000000E+00 0. -1.
          1   -1    0    0  501    0 -0.00000000000E+00 -0.00000000000E+00 -0.14932166222E+04  0.14932166222E+04  0.00000000000E+00 0. -1.
         25    2    1    2    0    0 -0.29504817429E+02  0.82440433948E+03 -0.38693260947E+03  0.91970403847E+03  0.12500249960E+03 0.  0.
          2    1    1    2  501    0  0.16083310387E+03 -0.46175823920E+03 -0.75231107513E+03  0.89725130957E+03  0.00000000000E+00 0. -1.
          1    1    1    2  502    0 -0.13132828644E+03 -0.36264610028E+03  0.24449985075E+04  0.24752327193E+04  0.00000000000E+00 0. -1.
         22    1    3    3    0    0  0.23512792141E+02  0.67430040637E+03 -0.30110319749E+03  0.73884844519E+03  0.00000000000E+00 0.  1.
         22    1    3    3    0    0 -0.53017609570E+02  0.15010393311E+03 -0.85829411977E+02  0.18085559328E+03  0.00000000000E+00 0.  1.
</event>
<event>
 7    1  0.4822463E-005  0.1569128E+03  0.7818608E-02  0.1271012E+00
          2   -1    0    0  502    0  0.00000000000E+00  0.00000000000E+00  0.40052073237E+03  0.40052073237E+03  0.00000000000E+00 0. -1.
          1   -1    0    0  501    0 -0.00000000000E+00 -0.00000000000E+00 -0.55786423750E+03  0.55786423750E+03  0.00000000000E+00 0. -1.
         25    2    1    2    0    0 -0.18089078528E+03 -0.13819526051E+02  0.15999876692E+03  0.27228043710E+03  0.12499830203E+03 0.  0.
          2    1    1    2  501    0  0.39546474855E+02  0.57344972248E+02 -0.46907493163E+03  0.47421900109E+03  0.00000000000E+00 0. -1.
          1    1    1    2  502    0  0.14134431042E+03 -0.43525446198E+02  0.15173265957E+03  0.21188553168E+03  0.00000000000E+00 0. -1.
         22    1    3    3    0    0 -0.14997597171E+02 -0.67979328375E+01  0.90992184757E+02  0.92470089751E+02  0.00000000000E+00 0. -1.
         22    1    3    3    0    0 -0.16589318810E+03 -0.70215932132E+01  0.69006582166E+02  0.17981034735E+03  0.00000000000E+00 0. -1.
</event>
<event>
 7    1  0.4822463E-005  0.3752137E+03  0.7818608E-02  0.1105268E+00
          2   -1    0    0  502    0  0.00000000000E+00  0.00000000000E+00  0.12436251208E+04  0.12436251208E+04  0.00000000000E+00 0. -1.
          1   -1    0    0  501    0 -0.00000000000E+00 -0.00000000000E+00 -0.11244230035E+04  0.11244230035E+04  0.00000000000E+00 0. -1.
         25    2    1    2    0    0 -0.16102481850E+03 -0.47209452774E+03  0.58587510441E+03  0.77953638036E+03  0.12500038019E+03 0.  0.
          2    1    1    2  501    0  0.32983704714E+02  0.18157866243E+03 -0.97329235559E+03  0.99063451629E+03  0.00000000000E+00 0. -1.
          1    1    1    2  502    0  0.12804111379E+03  0.29051586531E+03  0.50661936852E+03  0.59787722768E+03  0.00000000000E+00 0. -1.
         22    1    3    3    0    0 -0.11012805038E+03 -0.21303117613E+03  0.35731997763E+03  0.43033479513E+03  0.00000000000E+00 0.  1.
         22    1    3    3    0    0 -0.50896768121E+02 -0.25906335161E+03  0.22855512678E+03  0.34920158523E+03  0.00000000000E+00 0.  1.
</event>
<event>
 7    1  0.4822463E-005  0.3453212E+03  0.7818608E-02  0.1179076E+00
          2   -1    0    0  502    0  0.00000000000E+00  0.00000000000E+00  0.11399503797E+04  0.11399503797E+04  0.00000000000E+00 0. -1.
          1   -1    0    0  501    0 -0.00000000000E+00 -0.00000000000E+00 -0.25590722679E+04  0.25590722679E+04  0.00000000000E+00 0. -1.
         25    2    1    2    0    0  0.40223259157E+01 -0.38212966505E+03 -0.16543514696E+04  0.17025110588E+04  0.12500344149E+03 0.  0.
          2    1    1    2  501    0  0.24018830681E+02  0.30449919069E+03 -0.85254493832E+03  0.90561003374E+03  0.00000000000E+00 0. -1.
          1    1    1    2  502    0 -0.28041156596E+02  0.77630474362E+02  0.10877745197E+04  0.10909015550E+04  0.00000000000E+00 0. -1.
         22    1    3    3    0    0  0.11710376695E+02 -0.55704951410E+02 -0.48831826474E+03  0.49162475753E+03  0.00000000000E+00 0.  1.
         22    1    3    3    0    0 -0.76880507792E+01 -0.32642471364E+03 -0.11660332049E+04  0.12108863013E+04  0.00000000000E+00 0.  1.
</event>
<event>
 7    1  0.4822463E-005  0.4009244E+03  0.7818608E-02  0.1062596E+00
          2   -1    0    0  502    0  0.00000000000E+00  0.00000000000E+00  0.10026105447E+04  0.10026105447E+04  0.00000000000E+00 0. -1.
          1   -1    0    0  501    0 -0.00000000000E+00 -0.00000000000E+00 -0.14374181906E+04  0.14374181906E+04  0.00000000000E+00 0. -1.
         25    2    1    2    0    0  0.36811600434E+03 -0.15888023493E+03  0.83318331780E+03  0.93304469024E+03  0.12500252491E+03 0.  0.
          2    1    1    2  501    0 -0.12799332317E+03 -0.27753455147E+03 -0.60401196140E+03  0.67693291215E+03  0.00000000000E+00 0. -1.
          1    1    1    2  502    0 -0.24012268117E+03  0.43641478641E+03 -0.66397900233E+03  0.83005113297E+03  0.00000000000E+00 0. -1.
         22    1    3    3    0    0  0.35368439272E+03 -0.14415835232E+03  0.82791555175E+03  0.91176665931E+03  0.00000000000E+00 0. -1.
         22    1    3    3    0    0  0.14431611614E+02 -0.14721882607E+02  0.52677660484E+01  0.21278030933E+02  0.00000000000E+00 0. -1.
</event>
<event>
 7    1  0.4822463E-005  0.4671399E+03  0.7818608E-02  0.1195713E+00
          2   -1    0    0  502    0  0.00000000000E+00  0.00000000000E+00  0.91059776086E+03  0.91059776086E+03  0.00000000000E+00 0. -1.
          1   -1    0    0  501    0 -0.00000000000E+00 -0.00000000000E+00 -0.10352794830E+04  0.10352794830E+04  0.00000000000E+00 0. -1.
         25    2    1    2    0    0  0.29987644897E+03  0.37976031935E+03 -0.48032540958E+03  0.69316714676E+03  0.12499763783E+03 0.  0.
          2    1    1    2  501    0 -0.24939843654E+03 -0.37471733587E+03 -0.33443655820E+03  0.56076775354E+03  0.00000000000E+00 0. -1.
          1    1    1    2  502    0 -0.50478012427E+02 -0.50429834777E+01  0.69008024562E+03  0.69194234357E+03  0.00000000000E+00 0. -1.
         22    1    3    3    0    0  0.49659460244E+01  0.32289393240E+02 -0.23761219488E+01  0.32755327677E+02  0.00000000000E+00 0.  1.
         22    1    3    3    0    0  0.29491050294E+03  0.34747092611E+03 -0.47794928763E+03  0.66041181908E+03  0.00000000000E+00 0.  1.
</event>
<event>
 7    1  0.6318072E-005  0.2479576E+03  0.7818608E-02  0.1163733E+00
          2   -1    0    0  502    0  0.00000000000E+00  0.00000000000E+00  0.98928550617E+03  0.98928550617E+03  0.00000000000E+00 0. -1.
          1   -1    0    0  501    0 -0.00000000000E+00 -0.00000000000E+00 -0.21189528571E+04  0.21189528571E+04  0.00000000000E+00 0. -1.
         25    2    1    2    0    0  0.28053615209E+03 -0.67862556994E+02 -0.32686072622E+03  0.45361746073E+03  0.12500002827E+03 0.  0.
          2    1    1    2  501    0 -0.96188198745E+02 -0.97472271891E+02 -0.17093696856E+04  0.17148462717E+04  0.00000000000E+00 0. -1.
          1    1    1    2  502    0 -0.18434795334E+03  0.16533482889E+03  0.90656306087E+03  0.93977463090E+03  0.00000000000E+00 0. -1.
         22    1    3    3    0    0  0.17178251230E+03 -0.83933165386E+02 -0.26714102656E+03  0.32850926297E+03  0.00000000000E+00 0. -1.
         22    1    3    3    0    0  0.10875363979E+03  0.16070608392E+02 -0.59719699656E+02  0.12510819776E+03  0.00000000000E+00 0. -1.
</event>
<event>
 7    1  0.4822463E-005  0.3106289E+03  0.7818608E-02  0.1255889E+00
          2   -1    0    0  502    0  0.00000000000E+00  0.00000000000E+00  0.20974092539E+03  0.20974092539E+03  0.00000000000E+00 0. -1.
          1   -1    0    0  501    0 -0.00000000000E+00 -0.00000000000E+00 -0.20613111155E+04  0.20613111155E+04  0.00000000000E+00 0. -1.
         25    2    1    2    0    0 -0.17943122492E+03 -0.29128687845E+03 -0.59557638986E+03  0.69812598445E+03  0.12500017588E+03 0.  0.
          2    1    1    2  501    0  0.95950911122E+01  0.39647861215E+02 -0.12684264494E+04  0.12690822181E+04  0.00000000000E+00 0. -1.
          1    1    1    2  502    0  0.16983613381E+03  0.25163901724E+03  0.12432649159E+02  0.30384383836E+03  0.00000000000E+00 0. -1.
         22    1    3    3    0    0 -0.92367947809E+02 -0.89535151010E+02 -0.32520204223E+03  0.34972095922E+03  0.00000000000E+00 0. -1.
         22    1    3    3    0    0 -0.87063277115E+02 -0.20175172744E+03 -0.27037434763E+03  0.34840502523E+03  0.00000000000E+00 0. -1.
</event>
<event>
 7    1  0.4822463E-005  0.1991523E+03  0.7818608E-02  0.1153642E+00
          2   -1    0    0  502    0  0.00000000000E+00  0.00000000000E+00  0.10670717031E+04  0.10670717031E+04  0.00000000000E+00 0. -1.
          1   -1    0    0  501    0 -0.00000000000E+00 -0.00000000000E+00 -0.22071200551E+03  0.22071200551E+03  0.00000000000E+00 0. -1.
         25    2    1    2    0    0 -0.60947440821E+01  0.12251731404E+03  0.11403835760E+03  0.20899174650E+03  0.12500065983E+03 0.  0.
          2    1    1    2  501    0 -0.19101902390E+03  0.17313914174E+02 -0.97028057278E+02  0.21494762854E+03  0.00000000000E+00 0. -1.
          1    1    1    2  502    0  0.19711376798E+03 -0.13983122821E+03  0.82934939729E+03  0.86384433360E+03  0.00000000000E+00 0. -1.
         22    1    3    3    0    0 -0.10923677525E+01 -0.57761854534E+00  0.81582304162E+02  0.81591661724E+02  0.00000000000E+00 0. -1.
         22    1    3    3    0    0 -0.50023763295E+01  0.12309493258E+03  0.32456053441E+02  0.12740008478E+03  0.00000000000E+00 0. -1.
</event>
<event>
 7    1  0.4822463E-005  0.1815768E+03  0.7818608E-02  0.1342100E+00
          2   -1    0    0  502    0  0.00000000000E+00  0.00000000000E+00  0.52735456934E+03  0.52735456934E+03  0.00000000000E+00 0. -1.
          1   -1    0    0  501    0 -0.00000000000E+00 -0.00000000000E+00 -0.10824480077E+03  0.10824480077E+03  0.00000000000E+00 0. -1.
         25    2    1    2    0    0 -0.15910818964E+03  0.39220779278E+02  0.34808273089E+03  0.40452458861E+03  0.12499947883E+03 0.  0.
          2    1    1    2  501    0  0.17628600195E+03 -0.65571520121E+02  0.65321348441E+02  0.19910614580E+03  0.00000000000E+00 0. -1.
          1    1    1    2  502    0 -0.17177812309E+02  0.26350740843E+02  0.57056892332E+01  0.31968635697E+02  0.00000000000E+00 0. -1.
         22    1    3    3    0    0  0.14188396069E+02 -0.11240987104E+02  0.85964881393E+01  0.20039211122E+02  0.00000000000E+00 0. -1.
         22    1    3    3    0    0 -0.17329658571E+03  0.50461766381E+02  0.33948624275E+03  0.38448537749E+03  0.00000000000E+00 0. -1.
</event>
<event>
 7    1  0.4822463E-005  0.2703191E+03  0.7818608E-02  0.1183707E+00
          2   -1    0    0  502    0  0.00000000000E+00  0.00000000000E+00  0.69871373321E+03  0.69871373321E+03  0.00000000000E+00 0. -1.
          1   -1    0    0  501    0 -0.00000000000E+00 -0.00000000000E+00 -0.10162974985E+04  0.10162974985E+04  0.00000000000E+00 0. -1.
         25    2    1    2    0    0  0.25875831184E+03 -0.25430949734E+03 -0.27372345393E+03  0.47136426337E+03  0.12502221871E+03 0.  0.
          2    1    1    2  501    0 -0.65731649545E+02  0.75502186365E+02 -0.61062913294E+03  0.61878038745E+03  0.00000000000E+00 0. -1.
          1    1    1    2  502    0 -0.19302666230E+03  0.17880731097E+03  0.56676882157E+03  0.62486658090E+03  0.00000000000E+00 0. -1.
         22    1    3    3    0    0  0.79033000277E+01 -0.71362057634E+02 -0.68175684914E+02  0.99009744139E+02  0.00000000000E+00 0. -1.
         22    1    3    3    0    0  0.25085501181E+03 -0.18294743970E+03 -0.20554776901E+03  0.37235451923E+03  0.00000000000E+00 0. -1.
</event>
<event>
 7    1  0.4822463E-005  0.3497625E+03  0.7818608E-02  0.1186508E+00
          2   -1    0    0  502    0  0.00000000000E+00  0.00000000000E+00  0.23889260712E+04  0.23889260712E+04  0.00000000000E+00 0. -1.
          1   -1    0    0  501    0 -0.00000000000E+00 -0.00000000000E+00 -0.26474348112E+03  0.26474348112E+03  0.00000000000E+00 0. -1.
         25    2    1    2    0    0  0.38641784934E+03  0.12259067304E+03  0.75852689804E+03  0.86909987163E+03  0.12499721767E+03 0.  0.
          2    1    1    2  501    0 -0.65725596305E+02 -0.36108782855E+02 -0.18453719508E+03  0.19919255653E+03  0.00000000000E+00 0. -1.
          1    1    1    2  502    0 -0.32069225303E+03 -0.86481890184E+02  0.15501928871E+04  0.15853771241E+04  0.00000000000E+00 0. -1.
         22    1    3    3    0    0  0.38351728884E+03  0.13100442405E+03  0.69170474500E+03  0.80168767249E+03  0.00000000000E+00 0.  1.
         22    1    3    3    0    0  0.29005604939E+01 -0.84137510098E+01  0.66822153036E+02  0.67412199145E+02  0.00000000000E+00 0.  1.
</event>
<event>
 7    1  0.4822463E-005  0.5233673E+03  0.7818608E-02  0.1167643E+00
          2   -1    0    0  502    0  0.00000000000E+00  0.00000000000E+00  0.18756441292E+04  0.18756441292E+04  0.00000000000E+00 0. -1.
          1   -1    0    0  501    0 -0.00000000000E+00 -0.00000000000E+00 -0.43654070578E+03  0.43654070578E+03  0.00000000000E+00 0. -1.
         25    2    1    2    0    0  0.20660792693E+03  0.47689230682E+03  0.55726727375E+02  0.53744162510E+03  0.12499969788E+03 0.  0.
          2    1    1    2  501    0 -0.15255706837E+03 -0.50730780918E+03  0.16508877821E+03  0.55487762350E+03  0.00000000000E+00 0. -1.
          1    1    1    2  502    0 -0.54050858556E+02  0.30415502361E+02  0.12182879179E+04  0.12198655864E+04  0.00000000000E+00 0. -1.
         22    1    3    3    0    0  0.10562460542E+03  0.32149085863E+03  0.87214374523E+02  0.34945568614E+03  0.00000000000E+00 0.  1.
         22    1    3    3    0    0  0.10098332151E+03  0.15540144819E+03 -0.31487647149E+02  0.18798593896E+03  0.00000000000E+00 0.  1.
</event>
<event>
 7    1  0.4822463E-005  0.7025882E+03  0.7818608E-02  0.1134452E+00
          2   -1    0    0  502    0  0.00000000000E+00  0.00000000000E+00  0.23553266747E+04  0.23553266747E+04  0.00000000000E+00 0. -1.
          1   -1    0    0  501    0 -0.00000000000E+00 -0.00000000000E+00 -0.95742708718E+03  0.95742708718E+03  0.00000000000E+00 0. -1.
         25    2    1    2    0    0 -0.67115577679E+03 -0.22748693710E+03  0.14900083843E+04  0.16546757423E+04  0.12500577404E+03 0.  0.
          2    1    1    2  501    0 -0.36289928901E+01  0.68315529575E+02 -0.71967901168E+03  0.72292327465E+03  0.00000000000E+00 0. -1.
          1    1    1    2  502    0  0.67478476968E+03  0.15917140753E+03  0.62757021489E+03  0.93515474494E+03  0.00000000000E+00 0. -1.
         22    1    3    3    0    0 -0.63992703795E+02  0.14656762955E+02  0.14989422161E+03  0.16364035111E+03  0.00000000000E+00 0.  1.
         22    1    3    3    0    0 -0.60716307299E+03 -0.24214370006E+03  0.13401141627E+04  0.14910353912E+04  0.00000000000E+00 0.  1.
</event>
<event>
 7    1  0.4822463E-005  0.9541101E+03  0.7818608E-02  0.1201452E+00
          2   -1    0    0  502    0  0.00000000000E+00  0.00000000000E+00  0.21475159397E+04  0.21475159397E+04  0.00000000000E+00 0. -1.
          1   -1    0    0  501    0 -0.00000000000E+00 -0.00000000000E+00 -0.99148538782E+03  0.99148538782E+03  0.00000000000E+00 0. -1.
         25    2    1    2    0    0  0.58089982779E+03  0.74920626896E+03  0.46901159481E+03  0.10650594353E+04  0.12500032510E+03 0.  0.
          2    1    1    2  501    0 -0.60328948293E+03 -0.74263812872E+03 -0.36323399015E+03  0.10234297836E+04  0.00000000000E+00 0. -1.
          1    1    1    2  502    0  0.22389655138E+02 -0.65681402405E+01  0.10502529472E+04  0.10505121085E+04  0.00000000000E+00 0. -1.
         22    1    3    3    0    0  0.31848272742E+03  0.49981413253E+03  0.32040359518E+03  0.67372388895E+03  0.00000000000E+00 0. -1.
         22    1    3    3    0    0  0.26241710037E+03  0.24939213644E+03  0.14860799963E+03  0.39133554635E+03  0.00000000000E+00 0. -1.
</event>
<event>
 7    1  0.4822463E-005  0.2107323E+03  0.7818608E-02  0.1356677E+00
          2   -1    0    0  502    0  0.00000000000E+00  0.00000000000E+00  0.86604389150E+03  0.86604389150E+03  0.00000000000E+00 0. -1.
          1   -1    0    0  501    0 -0.00000000000E+00 -0.00000000000E+00 -0.10553016516E+04  0.10553016516E+04  0.00000000000E+00 0. -1.
         25    2    1    2    0    0 -0.41474877420E+02  0.22829037460E+03 -0.60353908671E+03  0.65857459453E+03  0.12499762711E+03 0.  0.
          2    1    1    2  501    0 -0.54535711451E+01 -0.23301409988E+02 -0.41070635442E+03  0.41140297363E+03  0.00000000000E+00 0. -1.
          1    1    1    2  502    0  0.46928448565E+02 -0.20498896461E+03  0.82498768104E+03  0.85136797495E+03  0.00000000000E+00 0. -1.
         22    1    3    3    0    0 -0.36099508808E+02  0.23176785155E+03 -0.60738664278E+03  0.65110524908E+03  0.00000000000E+00 0.  1.
         22    1    3    3    0    0 -0.53753686122E+01 -0.34774769531E+01  0.38475560743E+01  0.74693454480E+01  0.00000000000E+00 0.  1.
</event>
<event>
 7    1  0.4822463E-005  0.6269086E+03  0.7818608E-02  0.1033392E+00
          2   -1    0    0  502    0  0.00000000000E+00  0.00000000000E+00  0.26618762804E+04  0.26618762804E+04  0.00000000000E+00 0. -1.
          1   -1    0    0  501    0 -0.00000000000E+00 -0.00000000000E+00 -0.27761305932E+03  0.27761305932E+03  0.00000000000E+00 0. -1.
         25    2    1    2    0    0  0.61831090943E+03  0.40766883918E+03  0.16573963614E+04  0.18196400450E+04  0.12499972527E+03 0.  0.
          2    1    1    2  501    0 -0.12448042303E+03 -0.26963434279E+03  0.10765182390E+03  0.31589075598E+03  0.00000000000E+00 0. -1.
          1    1    1    2  502    0 -0.49383048641E+03 -0.13803449640E+03  0.61921503571E+03  0.80395853870E+03  0.00000000000E+00 0. -1.
         22    1    3    3    0    0  0.53205424167E+02  0.50368161190E+02  0.26664365096E+03  0.27652595795E+03  0.00000000000E+00 0. -1.
         22    1    3    3    0    0  0.56510548527E+03  0.35730067799E+03  0.13907527105E+04  0.15431140871E+04  0.00000000000E+00 0. -1.
</event>
<event>
 7    1  0.4822463E-005  0.4940042E+03  0.7818608E-02  0.1143845E+00
          2   -1    0    0  502    0  0.00000000000E+00  0.00000000000E+00  0.18480378848E+04  0.18480378848E+04  0.00000000000E+00 0. -1.
          1   -1    0    0  501    0 -0.00000000000E+00 -0.00000000000E+00 -0.41075612666E+03  0.41075612666E+03  0.00000000000E+00 0. -1.
         25    2    1    2    0    0  0.29997637271E+03 -0.40880020250E+03  0.25729359687E+03  0.58217565464E+03  0.12500027243E+03 0.  0.
          2    1    1    2  501    0 -0.80821661951E+02 -0.31824136997E+02 -0.19647997147E+03  0.21482387187E+03  0.00000000000E+00 0. -1.
          1    1    1    2  502    0 -0.21915471076E+03  0.44062433950E+03  0.13764681327E+04  0.14617944850E+04  0.00000000000E+00 0. -1.
         22    1    3    3    0    0  0.25561212360E+03 -0.39584658874E+03  0.20945391562E+03  0.51565785393E+03  0.00000000000E+00 0. -1.
         22    1    3    3    0    0  0.44364249117E+02 -0.12953613760E+02  0.47839681246E+02  0.66517800706E+02  0.00000000000E+00 0. -1.
</event>
<event>
 7    1  0.4822463E-005  0.3454954E+03  0.7818608E-02  0.1205480E+00
          2   -1    0    0  502    0  0.00000000000E+00  0.00000000000E+00  0.10246445731E+04  0.10246445731E+04  0.00000000000E+00 0. -1.
          1   -1    0    0  501    0 -0.00000000000E+00 -0.00000000000E+00 -0.15607220624E+03  0.15607220624E+03  0.00000000000E+00 0. -1.
         25    2    1    2    0    0  0.22155286794E+03 -0.27714975841E+03  0.28538977351E+03  0.47219354345E+03  0.12498703043E+03 0.  0.
          2    1    1    2  501    0 -0.16176988462E+03  0.29238690278E+03  0.53258612338E+03  0.62873490065E+03  0.00000000000E+00 0. -1.
          1    1    1    2  502    0 -0.59782983326E+02 -0.15237144371E+02  0.50596469924E+02  0.79788335192E+02  0.00000000000E+00 0. -1.
         22    1    3    3    0    0  0.54666758942E+01  0.12171418064E+02  0.27458706417E+01  0.13622326108E+02  0.00000000000E+00 0.  1.
         22    1    3    3    0    0  0.21608619205E+03 -0.28932117647E+03  0.28264390287E+03  0.45857121734E+03  0.00000000000E+00 0.  1.
</event>
<event>
 7    1  0.4822463E-005  0.3177492E+03  0.7818608E-02  0.1127898E+00
          2   -1    0    0  502    0  0.00000000000E+00  0.00000000000E+00  0.89465157527E+03  0.89465157527E+03  0.00000000000E+00 0. -1.
          1   -1    0    0  501    0 -0.00000000000E+00 -0.00000000000E+00 -0.19963857088E+03  0.19963857088E+03  0.00000000000E+00 0. -1.
         25    2    1    2    0    0 -0.37834806112E+03 -0.13042792863E+03  0.27254211020E+03  0.50006610495E+03  0.12501282961E+03 0.  0.
          2    1    1    2  501    0  0.23901111874E+03  0.44087957873E+02  0.31642841159E+03  0.39899499066E+03  0.00000000000E+00 0. -1.
          1    1    1    2  502    0  0.13933694238E+03  0.86339970757E+02  0.10604248260E+03  0.19522905055E+03  0.00000000000E+00 0. -1.
         22    1    3    3    0    0 -0.21056614207E+03 -0.12566693739E+03  0.11892199287E+03  0.27253021801E+03  0.00000000000E+00 0.  1.
         22    1    3    3    0    0 -0.16778191905E+03 -0.47609912404E+01  0.15362011733E+03  0.22753588694E+03  0.00000000000E+00 0.  1.
</event>
<event>
 7    1  0.4822463E-005  0.4290931E+03  0.7818608E-02  0.1037982E+00
          2   -1    0    0  502    0  0.00000000000E+00  0.00000000000E+00  0.92704814642E+03  0.92704814642E+03  0.00000000000E+00 0. -1.
          1   -1    0    0  501    0 -0.00000000000E+00 -0.00000000000E+00 -0.23279354498E+04  0.23279354498E+04  0.00000000000E+00 0. -1.
         25    2    1    2    0    0 -0.53824003682E+03  0.35812308300E+03 -0.29551689334E+03  0.72174119709E+03  0.12500256602E+03 0.  0.
          2    1    1    2  501    0  0.41625331212E+03  0.28735659048E+02 -0.17348868605E+04  0.17843556194E+04  0.00000000000E+00 0. -1.
          1    1    1    2  502    0  0.12198672470E+03 -0.38685874205E+03  0.62951645049E+03  0.74888677965E+03  0.00000000000E+00 0. -1.
         22    1    3    3    0    0 -0.27070530486E+03  0.11597026502E+03 -0.16783597466E+03  0.33896810888E+03  0.00000000000E+00 0.  1.
         22    1    3    3    0    0 -0.26753473195E+03  0.24215281798E+03 -0.12768091868E+03  0.38277308820E+03  0.00000000000E+00 0.  1.
</event>
<event>
 7    1  0.4822463E-005  0.1152589E+04  0.7818608E-02  0.9924162E-01
          2   -1    0    0  502    0  0.00000000000E+00  0.00000000000E+00  0.19550611927E+04  0.19550611927E+04  0.00000000000E+00 0. -1.
          1   -1    0    0  501    0 -0.00000000000E+00 -0.00000000000E+00 -0.15709655587E+04  0.15709655587E+04  0.00000000000E+00 0. -1.
         25    2    1    2    0    0  0.40788120903E+02 -0.12320545546E+04  0.41133838965E+03  0.13055444854E+04  0.12500014497E+03 0.  0.
          2    1    1    2  501    0 -0.26794625911E+03  0.14165399419E+03 -0.80621378689E+03  0.86130234065E+03  0.00000000000E+00 0. -1.
          1    1    1    2  502    0  0.22715813821E+03  0.10904005604E+04  0.77897103122E+03  0.13591799253E+04  0.00000000000E+00 0. -1.
         22    1    3    3    0    0  0.23424926960E+02 -0.50610928970E+02  0.47347217484E+01  0.55969732215E+02  0.00000000000E+00 0.  1.
         22    1    3    3    0    0  0.17363193943E+02 -0.11814436257E+04  0.40660366790E+03  0.12495747532E+04  0.00000000000E+00 0.  1.
</event>
<event>
 7    1  0.4822463E-005  0.4371517E+03  0.7818608E-02  0.1086769E+00
          2   -1    0    0  502    0  0.00000000000E+00  0.00000000000E+00  0.24725141819E+04  0.24725141819E+04  0.00000000000E+00 0. -1.
          1   -1    0    0  501    0 -0.00000000000E+00 -0.00000000000E+00 -0.11336732882E+04  0.11336732882E+04  0.00000000000E+00 0. -1.
         25    2    1    2    0    0 -0.34587515776E+03 -0.26007069733E+03  0.21503613744E+04  0.21970309877E+04  0.12499891211E+03 0.  0.
          2    1    1    2  501    0 -0.15356186896E+03  0.13081980534E+03 -0.86712181937E+03  0.89027822544E+03  0.00000000000E+00 0. -1.
          1    1    1    2  502    0  0.49943702673E+03  0.12925089200E+03  0.55601338676E+02  0.51887825702E+03  0.00000000000E+00 0. -1.
         22    1    3    3    0    0 -0.48502050553E+02 -0.52465240994E+02  0.62870503863E+03  0.63275198618E+03  0.00000000000E+00 0. -1.
         22    1    3    3    0    0 -0.29737310721E+03 -0.20760545634E+03  0.15216563358E+04  0.15642790015E+04  0.00000000000E+00 0. -1.
</event>
<event>
 7    1  0.4822463E-005  0.7040505E+03  0.7818608E-02  0.1117210E+00
          2   -1    0    0  502    0  0.00000000000E+00  0.00000000000E+00  0.26969507978E+04  0.26969507978E+04  0.00000000000E+00 0. -1.
          1   -1    0    0  501    0 -0.00000000000E+00 -0.00000000000E+00 -0.28694698366E+04  0.28694698366E+04  0.00000000000E+00 0. -1.
         25    2    1    2    0    0 -0.61115527520E+03  0.43507245231E+03  0.44233359162E+03  0.87982337443E+03  0.12502541645E+03 0.  0.
          2    1    1    2  501    0  0.83506398578E+02  0.12956685302E+02 -0.25911786138E+04  0.25925562294E+04  0.00000000000E+00 0. -1.
          1    1    1    2  502    0  0.52764887663E+03 -0.44802913761E+03  0.19763259834E+04  0.20940410306E+04  0.00000000000E+00 0. -1.
         22    1    3    3    0    0 -0.12623361976E+03  0.15676845202E+03  0.12517964480E+03  0.23702577450E+03  0.00000000000E+00 0. -1.
         22    1    3    3    0    0 -0.48492165545E+03  0.27830400029E+03  0.31715394682E+03  0.64279759993E+03  0.00000000000E+00 0. -1.
</event>
<event>
 7    1  0.4822463E-005  0.1667402E+03  0.7818608E-02  0.1289492E+00
          2   -1    0    0  502    0  0.00000000000E+00  0.00000000000E+00  0.73116510269E+03  0.73116510269E+03  0.00000000000E+00 0. -1.
          1   -1    0    0  501    0 -0.00000000000E+00 -0.00000000000E+00 -0.52506505256E+03  0.52506505256E+03  0.00000000000E+00 0. -1.
         25    2    1    2    0    0 -0.87403259780E+02 -0.17680035665E+03  0.48453836239E+03  0.53786565282E+03  0.12499735966E+03 0.  0.
          2    1    1    2  501    0  0.34312029525E+02  0.16248911165E+03 -0.48079575505E+03  0.50866942591E+03  0.00000000000E+00 0. -1.
          1    1    1    2  502    0  0.53091230255E+02  0.14311245000E+02  0.20235744280E+03  0.20969507652E+03  0.00000000000E+00 0. -1.
         22    1    3    3    0    0 -0.15410494128E+02 -0.23844475035E+02  0.42661420702E+01  0.28709620115E+02  0.00000000000E+00 0. -1.
         22    1    3    3    0    0 -0.71992765652E+02 -0.15295588161E+03  0.48027222032E+03  0.50915603270E+03  0.00000000000E+00 0. -1.
</event>
<event>
 7    1  0.4822463E-005  0.3643072E+03  0.7818608E-02  0.1096762E+00
          2   -1    0    0  502    0  0.00000000000E+00  0.00000000000E+00  0.34716256550E+03  0.34716256550E+03  0.00000000000E+00 0. -1.
          1   -1    0    0  501    0 -0.00000000000E+00 -0.00000000000E+00 -0.22643059391E+04  0.22643059391E+04  0.00000000000E+00 0. -1.
         25    2    1    2    0    0 -0.21898949198E+03 -0.37727798681E+03  0.50777591202E+02  0.45661599573E+03  0.12499890741E+03 0.  0.
          2    1    1    2  501    0 -0.24280499468E+02  0.21081252111E+03 -0.18062160250E+04  0.18186389940E+04  0.00000000000E+00 0. -1.
          1    1    1    2  502    0  0.24326999145E+03  0.16646546571E+03 -0.16170493985E+03  0.33621351488E+03  0.00000000000E+00 0. -1.
         22    1    3    3    0    0 -0.12476941842E+03 -0.14598673507E+03  0.73973580328E+02  0.20579510484E+03  0.00000000000E+00 0.  1.
         22    1    3    3    0    0 -0.94220073562E+02 -0.23129125175E+03 -0.23195989126E+02  0.25082089089E+03  0.00000000000E+00 0.  1.
</event>
<event>
 7    1  0.4822463E-005  0.2516901E+03  0.7818608E-02  0.1251956E+00
          2   -1    0    0  502    0  0.00000000000E+00  0.00000000000E+00  0.79897150944E+03  0.79897150944E+03  0.00000000000E+00 0. -1.
          1   -1    0    0  501    0 -0.00000000000E+00 -0.00000000000E+00 -0.15060215526E+04  0.15060215526E+04  0.00000000000E+00 0. -1.
         25    2    1    2    0    0  0.14717088940E+03  0.19562898751E+03 -0.41830038382E+03  0.50053067766E+03  0.12500310690E+03 0.  0.
          2    1    1    2  501    0 -0.10893123504E+03 -0.23138029702E+03 -0.10300465741E+04  0.10613193678E+04  0.00000000000E+00 0. -1.
          1    1    1    2  502    0 -0.38239654363E+02  0.35751309518E+02  0.74129691471E+03  0.74314301655E+03  0.00000000000E+00 0. -1.
         22    1    3    3    0    0  0.63864452259E+01  0.10884564630E+03 -0.18047929857E+03  0.21085762640E+03  0.00000000000E+00 0.  1.
         22    1    3    3    0    0  0.14078444417E+03  0.86783341204E+02 -0.23782108525E+03  0.28967305125E+03  0.00000000000E+00 0.  1.
</event>
<event>
 7    1  0.4822463E-005  0.3017257E+03  0.7818608E-02  0.1161170E+00
          2   -1    0    0  502    0  0.00000000000E+00  0.00000000000E+00  0.21346969920E+03  0.21346969920E+03  0.00000000000E+00 0. -1.
          1   -1    0    0  501    0 -0.00000000000E+00 -0.00000000000E+00 -0.95062210202E+03  0.95062210202E+03  0.00000000000E+00 0. -1.
         25    2    1    2    0    0  0.53962065183E+02  0.34837407293E+03 -0.82198902801E+02  0.38296268074E+03  0.12500942386E+03 0.  0.
          2    1    1    2  501    0  0.17770131229E+02 -0.11456025668E+03 -0.44164276983E+03  0.45660504390E+03  0.00000000000E+00 0. -1.
          1    1    1    2  502    0 -0.71732196412E+02 -0.23381381625E+03 -0.21331073019E+03  0.32452407659E+03  0.00000000000E+00 0. -1.
         22    1    3    3    0    0  0.80519931161E+02  0.18027191351E+03 -0.88308701769E+01  0.19763452730E+03  0.00000000000E+00 0.  1.
         22    1    3    3    0    0 -0.26557865978E+02  0.16810215942E+03 -0.73368032625E+02  0.18532815344E+03  0.00000000000E+00 0.  1.
</event>
<event>
 7    1  0.4822463E-005  0.3050849E+03  0.7818608E-02  0.1284814E+00
          2   -1    0    0  502    0  0.00000000000E+00  0.00000000000E+00  0.35256950706E+04  0.35256950706E+04  0.00000000000E+00 0. -1.
          1   -1    0    0  501    0 -0.00000000000E+00 -0.00000000000E+00 -0.13975092684E+04  0.13975092684E+04  0.00000000000E+00 0. -1.
         25    2    1    2    0    0  0.23619738467E+03 -0.21876941707E+03  0.13452653696E+04  0.13888891475E+04  0.12499954817E+03 0.  0.
          2    1    1    2  501    0 -0.31227190461E+02  0.33287836901E+01 -0.13652747453E+04  0.13656358769E+04  0.00000000000E+00 0. -1.
          1    1    1    2  502    0 -0.20497019421E+03  0.21544063338E+03  0.21481951779E+04  0.21686793145E+04  0.00000000000E+00 0. -1.
         22    1    3    3    0    0  0.17121522105E+03 -0.22123452482E+03  0.10585226046E+04  0.10948650471E+04  0.00000000000E+00 0.  1.
         22    1    3    3    0    0  0.64982163623E+02  0.24651077465E+01  0.28674276503E+03  0.29402410045E+03  0.00000000000E+00 0.  1.
</event>
<event>
 7    1  0.4822463E-005  0.3561171E+02  0.7818608E-02  0.1597897E+00
          2   -1    0    0  502    0  0.00000000000E+00  0.00000000000E+00  0.45571134120E+03  0.45571134120E+03  0.00000000000E+00 0. -1.
          1   -1    0    0  501    0 -0.00000000000E+00 -0.00000000000E+00 -0.89103591332E+02  0.89103591332E+02  0.00000000000E+00 0. -1.
         25    2    1    2    0    0 -0.15107771408E+02 -0.33647104930E+02  0.83016964405E+02  0.15452144009E+03  0.12499874656E+03 0.  0.
          2    1    1    2  501    0 -0.17317689700E+02  0.18446713414E+02 -0.49336272700E+02  0.55445932369E+02  0.00000000000E+00 0. -1.
          1    1    1    2  502    0  0.32425461108E+02  0.15200391515E+02  0.33292705816E+03  0.33484756007E+03  0.00000000000E+00 0. -1.
         22    1    3    3    0    0  0.15539061063E+02  0.27184396510E+02  0.80482394404E+02  0.86358958084E+02  0.00000000000E+00 0.  1.
         22    1    3    3    0    0 -0.30646832471E+02 -0.60831501439E+02  0.25345700006E+01  0.68162482004E+02  0.00000000000E+00 0.  1.
</event>
<event>
 7    1  0.4822463E-005  0.7017890E+03  0.7818608E-02  0.1140838E+00
          2   -1    0    0  502    0  0.00000000000E+00  0.00000000000E+00  0.27193399390E+04  0.27193399390E+04  0.00000000000E+00 0. -1.
          1   -1    0    0  501    0 -0.00000000000E+00 -0.00000000000E+00 -0.10354824714E+04  0.10354824714E+04  0.00000000000E+00 0. -1.
         25    2    1    2    0    0 -0.28119363840E+03 -0.58362956328E+03  0.68453823775E+03  0.95074221679E+03  0.12499933775E+03 0.  0.
          2    1    1    2  501    0  0.31325350910E+03  0.63831777399E+03 -0.76165389627E+03  0.10419664099E+04  0.00000000000E+00 0. -1.
          1    1    1    2  502    0 -0.32059870707E+02 -0.54688210707E+02  0.17609731261E+04  0.17621137837E+04  0.00000000000E+00 0. -1.
         22    1    3    3    0    0 -0.25476110568E+03 -0.41679026684E+03  0.54275154899E+03  0.73020311656E+03  0.00000000000E+00 0.  1.
         22    1    3    3    0    0 -0.26432532713E+02 -0.16683929644E+03  0.14178668876E+03  0.22053910023E+03  0.00000000000E+00 0.  1.
</event>
<event>
 7    1  0.4822463E-005  0.3010298E+03  0.7818608E-02  0.1171414E+00
          2   -1    0    0  502    0  0.00000000000E+00  0.00000000000E+00  0.20123600560E+03  0.20123600560E+03  0.00000000000E+00 0. -1.
          1   -1    0    0  501    0 -0.00000000000E+00 -0.00000000000E+00 -0.79373323242E+03  0.79373323242E+03  0.00000000000E+00 0. -1.
         25    2    1    2    0    0  0.51240057012E+02  0.30566541034E+03 -0.37663552890E+03  0.50352298300E+03  0.12499674496E+03 0.  0.
          2    1    1    2  501    0  0.51555356125E+02 -0.29573971836E+03 -0.24121826855E+03  0.38510542562E+03  0.00000000000E+00 0. -1.
          1    1    1    2  502    0 -0.10279541314E+03 -0.99256919829E+01  0.25356570632E+02  0.10634082940E+03  0.00000000000E+00 0. -1.
         22    1    3    3    0    0  0.66463641493E+02  0.24551612767E+03 -0.22463662168E+03  0.33934819343E+03  0.00000000000E+00 0. -1.
         22    1    3    3    0    0 -0.15223584481E+02  0.60149282669E+02 -0.15199890723E+03  0.16417478956E+03  0.00000000000E+00 0. -1.
</event>
<event>
 7    1  0.4822463E-005  0.6756485E+03  0.7818608E-02  0.1219566E+00
          2   -1    0    0  502    0  0.00000000000E+00  0.00000000000E+00  0.16608484216E+04  0.16608484216E+04  0.00000000000E+00 0. -1.
          1   -1    0    0  501    0 -0.00000000000E+00 -0.00000000000E+00 -0.91393764893E+03  0.91393764893E+03  0.00000000000E+00 0. -1.
         25    2    1    2    0    0 -0.64561937991E+03 -0.10534282802E+03 -0.86270524799E+02  0.67155684062E+03  0.12499796637E+03 0.  0.
          2    1    1    2  501    0 -0.24804590531E+02 -0.11063208897E+02 -0.44998589760E+03  0.45080480293E+03  0.00000000000E+00 0. -1.
          1    1    1    2  502    0  0.67042397044E+03  0.11640603692E+03  0.12831671951E+04  0.14524244270E+04  0.00000000000E+00 0. -1.
         22    1    3    3    0    0 -0.23543352816E+03 -0.64073461843E+02 -0.87754311298E+02  0.25929746209E+03  0.00000000000E+00 0.  1.
         22    1    3    3    0    0 -0.41018585175E+03 -0.41269366181E+02  0.14837864991E+01  0.41225937852E+03  0.00000000000E+00 0.  1.
</event>
<event>
 7    1  0.4822463E-005  0.4823287E+03  0.7818608E-02  0.1179551E+00
          2   -1    0    0  502    0  0.00000000000E+00  0.00000000000E+00  0.87989653142E+03  0.87989653142E+03  0.00000000000E+00 0. -1.
          1   -1    0    0  501    0 -0.00000000000E+00 -0.00000000000E+00 -0.96116024646E+03  0.96116024646E+03  0.00000000000E+00 0. -1.
         25    2    1    2    0    0  0.17608224162E+03  0.48052409851E+03  0.14596307965E+03  0.54666128975E+03  0.12499992012E+03 0.  0.
          2    1    1    2  501    0  0.19296398459E+02 -0.55521555343E+02 -0.65673149834E+03  0.65935669786E+03  0.00000000000E+00 0. -1.
          1    1    1    2  502    0 -0.19537864008E+03 -0.42500254317E+03  0.42950470365E+03  0.63503879027E+03  0.00000000000E+00 0. -1.
         22    1    3    3    0    0  0.28403852185E+02  0.21804799015E+03  0.22034866201E+02  0.22099149340E+03  0.00000000000E+00 0.  1.
         22    1    3    3    0    0  0.14767838944E+03  0.26247610836E+03  0.12392821345E+03  0.32566979635E+03  0.00000000000E+00 0.  1.
</event>
<event>
 7    1  0.4822463E-005  0.3393012E+03  0.7818608E-02  0.1108510E+00
          2   -1    0    0  502    0  0.00000000000E+00  0.00000000000E+00  0.27404815059E+04  0.27404815059E+04  0.00000000000E+00 0. -1.
          1   -1    0    0  501    0 -0.00000000000E+00 -0.00000000000E+00 -0.71925192599E+03  0.71925192599E+03  0.00000000000E+00 0. -1.
         25    2    1    2    0    0 -0.41918018445E+03  0.99271843992E+02  0.18898138970E+04  0.19423150531E+04  0.12499709686E+03 0.  0.
          2    1    1    2  501    0  0.19081001699E+03  0.43836319037E+02 -0.65629757023E+03  0.68487705915E+03  0.00000000000E+00 0. -1.
          1    1    1    2  502    0  0.22837016746E+03 -0.14310816303E+03  0.78771325310E+03  0.83254131958E+03  0.00000000000E+00 0. -1.
         22    1    3    3    0    0 -0.32254276032E+03  0.24150515710E+02  0.14609381032E+04  0.14963145461E+04  0.00000000000E+00 0.  1.
         22    1    3    3    0    0 -0.96637424123E+02  0.75121328282E+02  0.42887579384E+03  0.44600050700E+03  0.00000000000E+00 0.  1.
</event>
<event>
 7    1  0.4822463E-005  0.6755623E+03  0.7818608E-02  0.1231905E+00
          2   -1    0    0  502    0  0.00000000000E+00  0.00000000000E+00  0.12723409973E+04  0.12723409973E+04  0.00000000000E+00 0. -1.
          1   -1    0    0  501    0 -0.00000000000E+00 -0.00000000000E+00 -0.13885451373E+04  0.13885451373E+04  0.00000000000E+00 0. -1.
         25    2    1    2    0    0 -0.17633206243E+03  0.65626938596E+03  0.67406394499E+03  0.96528256871E+03  0.12500292932E+03 0.  0.
          2    1    1    2  501    0  0.23367746740E+02 -0.49792344079E+01 -0.99552575233E+03  0.99581241603E+03  0.00000000000E+00 0. -1.
          1    1    1    2  502    0  0.15296431569E+03 -0.65129015155E+03  0.20525766741E+03  0.69979114985E+03  0.00000000000E+00 0. -1.
         22    1    3    3    0    0 -0.11561472187E+03  0.57101136287E+03  0.53298773736E+03  0.78961805237E+03  0.00000000000E+00 0. -1.
         22    1    3    3    0    0 -0.60717340560E+02  0.85258023087E+02  0.14107620763E+03  0.17566451635E+03  0.00000000000E+00 0. -1.
</event>
<event>
 7    1  0.4822463E-005  0.2451432E+03  0.7818608E-02  0.1233846E+00
          2   -1    0    0  502    0  0.00000000000E+00  0.00000000000E+00  0.31413094888E+03  0.31413094888E+03  0.00000000000E+00 0. -1.
          1   -1    0    0  501    0 -0.00000000000E+00 -0.00000000000E+00 -0.36774713642E+03  0.36774713642E+03  0.00000000000E+00 0. -1.
         25    2    1    2    0    0  0.26738220829E+03  0.59124203142E+02 -0.10242215419E+03  0.31796894857E+03  0.12500015151E+03 0.  0.
          2    1    1    2  501    0 -0.20785263706E+03 -0.84062725007E+02 -0.64682076158E+02  0.23335173333E+03  0.00000000000E+00 0. -1.
          1    1    1    2  502    0 -0.59529571231E+02  0.24938521865E+02  0.11348804281E+03  0.13055740340E+03  0.00000000000E+00 0. -1.
         22    1    3    3    0    0  0.29906533482E+02  0.54948527844E+02 -0.31807534968E+02  0.70181626783E+02  0.00000000000E+00 0. -1.
         22    1    3    3    0    0  0.23747567481E+03  0.41756752974E+01 -0.70614619218E+02  0.24778732179E+03  0.00000000000E+00 0. -1.
</event>
<event>
 7    1  0.4822463E-005  0.1832398E+03  0.7818608E-02  0.1233675E+00
          2   -1    0    0  502    0  0.00000000000E+00  0.00000000000E+00  0.13371883954E+04  0.13371883954E+04  0.00000000000E+00 0. -1.
          1   -1    0    0  501    0 -0.00000000000E+00 -0.00000000000E+00 -0.22065976531E+03  0.22065976531E+03  0.00000000000E+00 0. -1.
         25    2    1    2    0    0 -0.17163444217E+03 -0.16129385501E+03  0.16111642439E+03  0.31154028818E+03  0.12499903818E+03 0.  0.
          2    1    1    2  501    0  0.85782062510E+02  0.15074654532E+03 -0.91314143573E+02  0.19601366277E+03  0.00000000000E+00 0. -1.
          1    1    1    2  502    0  0.85852379656E+02  0.10547309685E+02  0.10467263493E+04  0.10502942098E+04  0.00000000000E+00 0. -1.
         22    1    3    3    0    0 -0.11133930359E+03 -0.14146987946E+03  0.55623366162E+02  0.18842538624E+03  0.00000000000E+00 0. -1.
         22    1    3    3    0    0 -0.60295138575E+02 -0.19823975548E+02  0.10549305823E+03  0.12311490193E+03  0.00000000000E+00 0. -1.
</event>
<event>
 7    1  0.4822463E-005  0.4268585E+03  0.7818608E-02  0.1251123E+00
          2   -1    0    0  502    0  0.00000000000E+00  0.00000000000E+00  0.41526671352E+03  0.41526671352E+03  0.00000000000E+00 0. -1.
          1   -1    0    0  501    0 -0.00000000000E+00 -0.00000000000E+00 -0.17946900210E+04  0.17946900210E+04  0.00000000000E+00 0. -1.
         25    2    1    2    0    0  0.43195557969E+03  0.10321765892E+03 -0.13309633878E+03  0.48018581685E+03  0.12499710144E+03 0.  0.
          2    1    1    2  501    0 -0.40634530357E+03 -0.12090438767E+03 -0.14566843447E+04  0.15171234811E+04  0.00000000000E+00 0. -1.
          1    1    1    2  502    0 -0.25610276118E+02  0.17686728756E+02  0.21035737605E+03  0.21264743656E+03  0.00000000000E+00 0. -1.
         22    1    3    3    0    0  0.58855291938E+02  0.16370250738E+02  0.24686775288E+02  0.65889053510E+02  0.00000000000E+00 0.  1.
         22    1    3    3    0    0  0.37310028775E+03  0.86847408180E+02 -0.15778311407E+03  0.41429676334E+03  0.00000000000E+00 0.  1.
</event>
<event>
 7    1  0.4822463E-005  0.9757338E+02  0.7818608E-02  0.1326103E+00
          2   -1    0    0  502    0  0.00000000000E+00  0.00000000000E+00  0.13470813818E+04  0.13470813818E+04  0.00000000000E+00 0. -1.
          1   -1    0    0  501    0 -0.00000000000E+00 -0.00000000000E+00 -0.65227590262E+03  0.65227590262E+03  0.00000000000E+00 0. -1.
         25    2    1    2    0    0  0.34398523366E+01  0.41076719135E+02  0.91508727243E+02  0.16028880334E+03  0.12497809358E+03 0.  0.
          2    1    1    2  501    0 -0.42062238472E+02  0.52563920986E+02 -0.61394220262E+03  0.61762223556E+03  0.00000000000E+00 0. -1.
          1    1    1    2  502    0  0.38622386135E+02 -0.93640640121E+02  0.12172389546E+04  0.12214462456E+04  0.00000000000E+00 0. -1.
         22    1    3    3    0    0  0.94347009373E+01  0.46276100277E+02 -0.17963760317E+02  0.50529077998E+02  0.00000000000E+00 0.  1.
         22    1    3    3    0    0 -0.59948486007E+01 -0.51993811424E+01  0.10947248756E+03  0.10975972534E+03  0.00000000000E+00 0.  1.
</event>
<event>
 7    1  0.4822463E-005  0.1168591E+03  0.7818608E-02  0.1276074E+00
          2   -1    0    0  502    0  0.00000000000E+00  0.00000000000E+00  0.32055910921E+03  0.32055910921E+03  0.00000000000E+00 0. -1.
          1   -1    0    0  501    0 -0.00000000000E+00 -0.00000000000E+00 -0.72642091745E+03  0.72642091745E+03  0.00000000000E+00 0. -1.
         25    2    1    2    0    0  0.14952290850E+03  0.13872379790E+03  0.16827054942E+03  0.29247355481E+03  0.12499764075E+03 0.  0.
          2    1    1    2  501    0 -0.85577054344E+02 -0.76690497869E+02 -0.63583458729E+03  0.64613503781E+03  0.00000000000E+00 0. -1.
          1    1    1    2  502    0 -0.63945854160E+02 -0.62033300028E+02  0.61702229625E+02  0.10837143405E+03  0.00000000000E+00 0. -1.
         22    1    3    3    0    0  0.16842061571E+03  0.13221607140E+03  0.13337878560E+03  0.25226274751E+03  0.00000000000E+00 0.  1.
         22    1    3    3    0    0 -0.18897707202E+02  0.65077264953E+01  0.34891763823E+02  0.40210807307E+02  0.00000000000E+00 0.  1.
</event>
<event>
 7    1  0.4822463E-005  0.4819652E+03  0.7818608E-02  0.1196402E+00
          2   -1    0    0  502    0  0.00000000000E+00  0.00000000000E+00  0.42874067223E+03  0.42874067223E+03  0.00000000000E+00 0. -1.
          1   -1    0    0  501    0 -0.00000000000E+00 -0.00000000000E+00 -0.87943302442E+03  0.87943302442E+03  0.00000000000E+00 0. -1.
         25    2    1    2    0    0  0.34159849924E+03  0.32835246078E+03 -0.45036128460E+03  0.66554176074E+03  0.12496269623E+03 0.  0.
          2    1    1    2  501    0 -0.32756427934E+03 -0.37509093269E+03 -0.12099306488E+03  0.51247525466E+03  0.00000000000E+00 0. -1.
          1    1    1    2  502    0 -0.14034219897E+02  0.46738471918E+02  0.12066199728E+03  0.13015668125E+03  0.00000000000E+00 0. -1.
         22    1    3    3    0    0  0.22372783985E+03  0.12921739200E+03 -0.22688033814E+03  0.34384003338E+03  0.00000000000E+00 0. -1.
         22    1    3    3    0    0  0.11787065939E+03  0.19913506877E+03 -0.22348094645E+03  0.32170172736E+03  0.00000000000E+00 0. -1.
</event>
<event>
 7    1  0.4822463E-005  0.1552424E+03  0.7818608E-02  0.1236764E+00
          2   -1    0    0  502    0  0.00000000000E+00  0.00000000000E+00  0.11097730733E+04  0.11097730733E+04  0.00000000000E+00 0. -1.
          1   -1    0    0  501    0 -0.00000000000E+00 -0.00000000000E+00 -0.12250210638E+03  0.12250210638E+03  0.00000000000E+00 0. -1.
         25    2    1    2    0    0  0.10163221980E+03 -0.15806791385E+03  0.61395953799E+03  0.65413032390E+03  0.12500237144E+03 0.  0.
          2    1    1    2  501    0 -0.98099940067E+02  0.12710993071E+02 -0.63649132893E+02  0.11762814163E+03  0.00000000000E+00 0. -1.
          1    1    1    2  502    0 -0.35322797346E+01  0.14535692078E+03  0.43696056182E+03  0.46051671414E+03  0.00000000000E+00 0. -1.
         22    1    3    3    0    0  0.11877992049E+03 -0.80092690372E+02  0.43975930019E+03  0.46250594663E+03  0.00000000000E+00 0.  1.
         22    1    3    3    0    0 -0.17147700687E+02 -0.77975223478E+02  0.17420023780E+03  0.19162437727E+03  0.00000000000E+00 0.  1.
</event>
<event>
 7    1  0.4822463E-005  0.3766600E+03  0.7818608E-02  0.1155963E+00
          2   -1    0    0  502    0  0.00000000000E+00  0.00000000000E+00  0.24435804062E+04  0.24435804062E+04  0.00000000000E+00 0. -1.
          1   -1    0    0  501    0 -0.00000000000E+00 -0.00000000000E+00 -0.11255238887E+03  0.11255238887E+03  0.00000000000E+00 0. -1.
         25    2    1    2    0    0 -0.35291702695E+03 -0.10677094754E+03  0.11482013349E+04  0.12124114794E+04  0.12499930726E+03 0.  0.
          2    1    1    2  501    0  0.32611547892E+03  0.20174627764E+03  0.39787829178E+03  0.55259388451E+03  0.00000000000E+00 0. -1.
          1    1    1    2  502    0  0.26801548034E+02 -0.94975330107E+02  0.78494839063E+03  0.79112743111E+03  0.00000000000E+00 0. -1.
         22    1    3    3    0    0 -0.28237042167E+03 -0.28268831395E+02  0.83548276758E+03  0.88236253138E+03  0.00000000000E+00 0.  1.
         22    1    3    3    0    0 -0.70546605286E+02 -0.78502116143E+02  0.31271856730E+03  0.33004894802E+03  0.00000000000E+00 0.  1.
</event>
<event>
 7    1  0.4822463E-005  0.4824071E+03  0.7818608E-02  0.1189791E+00
          2   -1    0    0  502    0  0.00000000000E+00  0.00000000000E+00  0.85563199974E+03  0.85563199974E+03  0.00000000000E+00 0. -1.
          1   -1    0    0  501    0 -0.00000000000E+00 -0.00000000000E+00 -0.58327391839E+03  0.58327391839E+03  0.00000000000E+00 0. -1.
         25    2    1    2    0    0 -0.53687231173E+02  0.47020783618E+03 -0.31146350904E+03  0.58018355650E+03  0.12500285506E+03 0.  0.
          2    1    1    2  501    0  0.28416340598E+02 -0.51614439201E+03  0.36271825808E+03  0.63148797024E+03  0.00000000000E+00 0. -1.
          1    1    1    2  502    0  0.25270890574E+02  0.45936555834E+02  0.22110333231E+03  0.22723439140E+03  0.00000000000E+00 0. -1.
         22    1    3    3    0    0 -0.19979576072E+02  0.10511890249E+02 -0.38103963882E+02  0.44289901334E+02  0.00000000000E+00 0.  1.
         22    1    3    3    0    0 -0.33707655100E+02  0.45969594593E+03 -0.27335954516E+03  0.53589365516E+03  0.00000000000E+00 0.  1.
</event>
<event>
 7    1  0.4822463E-005  0.1179734E+03  0.7818608E-02  0.1295280E+00
          2   -1    0    0  502    0  0.00000000000E+00  0.00000000000E+00  0.33552824552E+04  0.33552824552E+04  0.00000000000E+00 0. -1.
          1   -1    0    0  501    0 -0.00000000000E+00 -0.00000000000E+00 -0.34671450120E+02  0.34671450120E+02  0.00000000000E+00 0. -1.
         25    2    1    2    0    0  0.91749954451E+02 -0.12927476614E+03  0.81935914995E+03  0.84386272809E+03  0.12499947183E+03 0.  0.
          2    1    1    2  501    0 -0.71868169106E+02  0.16012760581E+02  0.43234457407E+02  0.85385364902E+02  0.00000000000E+00 0. -1.
          1    1    1    2  502    0 -0.19881785345E+02  0.11326200556E+03  0.24580173977E+04  0.24607058123E+04  0.00000000000E+00 0. -1.
         22    1    3    3    0    0  0.51326876106E+02 -0.12929245936E+02  0.47877034265E+03  0.48168729961E+03  0.00000000000E+00 0. -1.
         22    1    3    3    0    0  0.40423078345E+02 -0.11634552021E+03  0.34058880730E+03  0.36217542848E+03  0.00000000000E+00 0. -1.
</event>
<event>
 7    1  0.4822463E-005  0.5738908E+03  0.7818608E-02  0.1026780E+00
          2   -1    0    0  502    0  0.00000000000E+00  0.00000000000E+00  0.78055163508E+03  0.78055163508E+03  0.00000000000E+00 0. -1.
          1   -1    0    0  501    0 -0.00000000000E+00 -0.00000000000E+00 -0.13947033925E+04  0.13947033925E+04  0.00000000000E+00 0. -1.
         25    2    1    2    0    0  0.41190629883E+03  0.64571180981E+02 -0.25924084866E+03  0.50661978023E+03  0.12498618996E+03 0.  0.
          2    1    1    2  501    0  0.21584897849E+03 -0.28542273041E+03 -0.79430276161E+03  0.87119102018E+03  0.00000000000E+00 0. -1.
          1    1    1    2  502    0 -0.62775527732E+03  0.22085154943E+03  0.43939185284E+03  0.79744422716E+03  0.00000000000E+00 0. -1.
         22    1    3    3    0    0  0.40667350642E+03  0.48547601077E+02 -0.22226949942E+03  0.46598706073E+03  0.00000000000E+00 0.  1.
         22    1    3    3    0    0  0.52327924049E+01  0.16023579904E+02 -0.36971349240E+02  0.40632719500E+02  0.00000000000E+00 0.  1.
</event>
<event>
 7    1  0.4822463E-005  0.3684983E+03  0.7818608E-02  0.1190584E+00
          2   -1    0    0  502    0  0.00000000000E+00  0.00000000000E+00  0.39971085755E+03  0.39971085755E+03  0.00000000000E+00 0. -1.
          1   -1    0    0  501    0 -0.00000000000E+00 -0.00000000000E+00 -0.58115255970E+03  0.58115255970E+03  0.00000000000E+00 0. -1.
         25    2    1    2    0    0 -0.36868973034E+03  0.13127087906E+02  0.96482115600E+02  0.40129652731E+03  0.12500266601E+03 0.  0.
          2    1    1    2  501    0  0.59507255187E+01  0.67776480355E+02 -0.18407874154E+03  0.19624995671E+03  0.00000000000E+00 0. -1.
          1    1    1    2  502    0  0.36273900482E+03 -0.80903568260E+02 -0.93845076213E+02  0.38331693323E+03  0.00000000000E+00 0. -1.
         22    1    3    3    0    0 -0.32147036513E+03  0.53166939220E+02  0.94862324633E+02  0.33936526003E+03  0.00000000000E+00 0. -1.
         22    1    3    3    0    0 -0.47219365207E+02 -0.40039851315E+02  0.16197909668E+01  0.61931267278E+02  0.00000000000E+00 0. -1.
</event>
<event>
 7    1  0.4822463E-005  0.3169492E+03  0.7818608E-02  0.1134285E+00
          2   -1    0    0  502    0  0.00000000000E+00  0.00000000000E+00  0.10702740927E+04  0.10702740927E+04  0.00000000000E+00 0. -1.
          1   -1    0    0  501    0 -0.00000000000E+00 -0.00000000000E+00 -0.74826787743E+03  0.74826787743E+03  0.00000000000E+00 0. -1.
         25    2    1    2    0    0 -0.21937176608E+03 -0.38889428856E+03  0.14723526888E+03  0.48648349429E+03  0.12500090554E+03 0.  0.
          2    1    1    2  501    0  0.78564116974E+02  0.13007375206E+03 -0.53892216978E+03  0.55993625220E+03  0.00000000000E+00 0. -1.
          1    1    1    2  502    0  0.14080764911E+03  0.25882053650E+03  0.71369311618E+03  0.77212222364E+03  0.00000000000E+00 0. -1.
         22    1    3    3    0    0 -0.26791923861E+02 -0.15377548063E+03  0.79222967640E+02  0.17504566327E+03  0.00000000000E+00 0. -1.
         22    1    3    3    0    0 -0.19257984222E+03 -0.23511880793E+03  0.68012301245E+02  0.31143783102E+03  0.00000000000E+00 0. -1.
</event>
<event>
 7    1  0.4822463E-005  0.3994018E+03  0.7818608E-02  0.1199373E+00
          2   -1    0    0  502    0  0.00000000000E+00  0.00000000000E+00  0.12238056298E+04  0.12238056298E+04  0.00000000000E+00 0. -1.
          1   -1    0    0  501    0 -0.00000000000E+00 -0.00000000000E+00 -0.17291517593E+03  0.17291517593E+03  0.00000000000E+00 0. -1.
         25    2    1    2    0    0 -0.26675573714E+03 -0.31011522642E+03  0.28929966646E+03  0.51637418306E+03  0.12497168863E+03 0.  0.
          2    1    1    2  501    0  0.21089184699E+03  0.32149626763E+03  0.65784416777E+03  0.76196730265E+03  0.00000000000E+00 0. -1.
          1    1    1    2  502    0  0.55863890152E+02 -0.11381041210E+02  0.10374661965E+03  0.11837932003E+03  0.00000000000E+00 0. -1.
         22    1    3    3    0    0 -0.13535717058E+03 -0.85192226060E+02  0.15738066305E+03  0.22438349340E+03  0.00000000000E+00 0. -1.
         22    1    3    3    0    0 -0.13139856657E+03 -0.22492300036E+03  0.13191900341E+03  0.29199068966E+03  0.00000000000E+00 0. -1.
</event>
<event>
 7    1  0.5750725E-005  0.7298022E+03  0.7818608E-02  0.1157483E+00
          2   -1    0    0  502    0  0.00000000000E+00  0.00000000000E+00  0.18957237847E+04  0.18957237847E+04  0.00000000000E+00 0. -1.
          1   -1    0    0  501    0 -0.00000000000E+00 -0.00000000000E+00 -0.15656269208E+04  0.15656269208E+04  0.00000000000E+00 0. -1.
         25    2    1    2    0    0  0.47218341253E+03  0.55636623762E+03 -0.62008360421E+03  0.96572757184E+03  0.12500200549E+03 0.  0.
          2    1    1    2  501    0 -0.50987028543E+03 -0.52345589046E+03 -0.59946970833E+03  0.94516543971E+03  0.00000000000E+00 0. -1.
          1    1    1    2  502    0  0.37686872898E+02 -0.32910347157E+02  0.15496501765E+04  0.15504576939E+04  0.00000000000E+00 0. -1.
         22    1    3    3    0    0  0.47914895935E+03  0.55469653412E+03 -0.61167993780E+03  0.95468545423E+03  0.00000000000E+00 0.  1.
         22    1    3    3    0    0 -0.69655468175E+01  0.16697034954E+01 -0.84036664135E+01  0.11042117615E+02  0.00000000000E+00 0.  1.
</event>
<event>
 7    1  0.4822463E-005  0.8357170E+02  0.7818608E-02  0.1366486E+00
          2   -1    0    0  502    0  0.00000000000E+00  0.00000000000E+00  0.20809247897E+04  0.20809247897E+04  0.00000000000E+00 0. -1.
          1   -1    0    0  501    0 -0.00000000000E+00 -0.00000000000E+00 -0.45979010838E+02  0.45979010838E+02  0.00000000000E+00 0. -1.
         25    2    1    2    0    0 -0.30043545433E+02  0.13036360460E+02  0.54347776879E+03  0.55862782682E+03  0.12499760964E+03 0.  0.
          2    1    1    2  501    0  0.81706531150E+02 -0.33533103067E+02  0.13597406523E+02  0.89360593653E+02  0.00000000000E+00 0. -1.
          1    1    1    2  502    0 -0.51662985717E+02  0.20496742606E+02  0.14778706035E+04  0.14789153800E+04  0.00000000000E+00 0. -1.
         22    1    3    3    0    0 -0.27351783673E+02 -0.54488089586E+02  0.22952216064E+03  0.23748156603E+03  0.00000000000E+00 0. -1.
         22    1    3    3    0    0 -0.26917617599E+01  0.67524450046E+02  0.31395560815E+03  0.32114626080E+03  0.00000000000E+00 0. -1.
</event>
<event>
 7    1  0.4822463E-005  0.1160279E+03  0.7818608E-02  0.1253226E+00
          2   -1    0    0  502    0  0.00000000000E+00  0.00000000000E+00  0.34251113497E+03  0.34251113497E+03  0.00000000000E+00 0. -1.
          1   -1    0    0  501    0 -0.00000000000E+00 -0.00000000000E+00 -0.35414469690E+03  0.35414469690E+03  0.00000000000E+00 0. -1.
         25    2    1    2    0    0  0.43765787954E+02 -0.85637543248E+02 -0.15641483501E+03  0.22212772040E+03  0.12500356215E+03 0.  0.
          2    1    1    2  501    0 -0.14963350950E+03  0.38156096682E+02 -0.11332429072E+03  0.19154234453E+03  0.00000000000E+00 0. -1.
          1    1    1    2  502    0  0.10586772155E+03  0.47481446566E+02  0.25810556380E+03  0.28298576695E+03  0.00000000000E+00 0. -1.
         22    1    3    3    0    0  0.48798485362E+02 -0.11484026385E+03 -0.14244173997E+03  0.18936532856E+03  0.00000000000E+00 0. -1.
         22    1    3    3    0    0 -0.50326974085E+01  0.29202720605E+02 -0.13973095044E+02  0.32762391839E+02  0.00000000000E+00 0. -1.
</event>
<event>
 7    1  0.4822463E-005  0.6200291E+03  0.7818608E-02  0.1210080E+00
          2   -1    0    0  502    0  0.00000000000E+00  0.00000000000E+00  0.18897030017E+04  0.18897030017E+04  0.00000000000E+00 0. -1.
          1   -1    0    0  501    0 -0.00000000000E+00 -0.00000000000E+00 -0.14433468942E+04  0.14433468942E+04  0.00000000000E+00 0. -1.
         25    2    1    2    0    0  0.59552690907E+03  0.24213204305E+03 -0.47703082529E+02  0.65664407734E+03  0.12500253811E+03 0.  0.
          2    1    1    2  501    0 -0.57363681043E+03 -0.21780737008E+03 -0.10047204079E+04  0.11772690172E+04  0.00000000000E+00 0. -1.
          1    1    1    2  502    0 -0.21890098634E+02 -0.24324672971E+02  0.14987795979E+04  0.14991368014E+04  0.00000000000E+00 0. -1.
         22    1    3    3    0    0  0.46142084995E+03  0.23150368291E+03 -0.77039816875E+01  0.51629691778E+03  0.00000000000E+00 0. -1.
         22    1    3    3    0    0  0.13410605911E+03  0.10628360141E+02 -0.39999100842E+02  0.14034715957E+03  0.00000000000E+00 0. -1.
</event>
<event>
 7    1  0.4822463E-005  0.3060656E+03  0.7818608E-02  0.1206760E+00
          2   -1    0    0  502    0  0.00000000000E+00  0.00000000000E+00  0.14364716057E+04  0.14364716057E+04  0.00000000000E+00 0. -1.
          1   -1    0    0  501    0 -0.00000000000E+00 -0.00000000000E+00 -0.19236291833E+04  0.19236291833E+04  0.00000000000E+00 0. -1.
         25    2    1    2    0    0 -0.29364244921E+03  0.86098468628E+02 -0.68073949096E+03  0.75675027212E+03  0.12500354201E+03 0.  0.
          2    1    1    2  501    0  0.30814278490E+03 -0.18955400579E+02 -0.11842386117E+04  0.12238187663E+04  0.00000000000E+00 0. -1.
          1    1    1    2  502    0 -0.14500335684E+02 -0.67143068048E+02  0.13778205252E+04  0.13795317506E+04  0.00000000000E+00 0. -1.
         22    1    3    3    0    0 -0.24511699921E+03  0.38908755960E+02 -0.42456363191E+03  0.49178299293E+03  0.00000000000E+00 0. -1.
         22    1    3    3    0    0 -0.48525449998E+02  0.47189712668E+02 -0.25617585905E+03  0.26496727919E+03  0.00000000000E+00 0. -1.
</event>
<event>
 7    1  0.4822463E-005  0.1306387E+03  0.7818608E-02  0.1348719E+00
          2   -1    0    0  502    0  0.00000000000E+00  0.00000000000E+00  0.10082880120E+03  0.10082880120E+03  0.00000000000E+00 0. -1.
          1   -1    0    0  501    0 -0.00000000000E+00 -0.00000000000E+00 -0.31340682530E+03  0.31340682530E+03  0.00000000000E+00 0. -1.
         25    2    1    2    0    0  0.95605526184E+02 -0.50474980724E+02 -0.11579296722E+03  0.20180361405E+03  0.12501418748E+03 0.  0.
          2    1    1    2  501    0  0.40869365488E+02 -0.59735485525E+01 -0.24196163679E+02  0.47869015600E+02  0.00000000000E+00 0. -1.
          1    1    1    2  502    0 -0.13647489167E+03  0.56448529277E+02 -0.72588893207E+02  0.16456299685E+03  0.00000000000E+00 0. -1.
         22    1    3    3    0    0 -0.12197791604E+02  0.88699374128E+01  0.15658217210E+02  0.21740323731E+02  0.00000000000E+00 0. -1.
         22    1    3    3    0    0  0.10780331779E+03 -0.59344918137E+02 -0.13145118443E+03  0.18006329032E+03  0.00000000000E+00 0. -1.
</event>
<event>
 7    1  0.4822463E-005  0.3187507E+03  0.7818608E-02  0.1082986E+00
          2   -1    0    0  502    0  0.00000000000E+00  0.00000000000E+00  0.12372680231E+04  0.12372680231E+04  0.00000000000E+00 0. -1.
          1   -1    0    0  501    0 -0.00000000000E+00 -0.00000000000E+00 -0.41519961906E+03  0.41519961906E+03  0.00000000000E+00 0. -1.
         25    2    1    2    0    0 -0.33345130748E+03 -0.51372399687E+02 -0.38017462666E+02  0.36179845428E+03  0.12499558450E+03 0.  0.
          2    1    1    2  501    0  0.21587696484E+03 -0.24490155397E+03 -0.46426046393E+02  0.32974992474E+03  0.00000000000E+00 0. -1.
          1    1    1    2  502    0  0.11757434264E+03  0.29627395365E+03  0.90651191311E+03  0.96091926314E+03  0.00000000000E+00 0. -1.
         22    1    3    3    0    0 -0.31345442093E+02 -0.22075028194E+02  0.32420981122E+02  0.50209198626E+02  0.00000000000E+00 0.  1.
         22    1    3    3    0    0 -0.30210586539E+03 -0.29297371493E+02 -0.70438443788E+02  0.31158925566E+03  0.00000000000E+00 0.  1.
</event>
<event>
 7    1  0.4822463E-005  0.4990019E+03  0.7818608E-02  0.1098037E+00
          2   -1    0    0  502    0  0.00000000000E+00  0.00000000000E+00  0.31007031970E+03  0.31007031970E+03  0.00000000000E+00 0. -1.
          1   -1    0    0  501    0 -0.00000000000E+00 -0.00000000000E+00 -0.15716652874E+04  0.15716652874E+04  0.00000000000E+00 0. -1.
         25    2    1    2    0    0  0.55345989686E+03 -0.17049704026E+03 -0.69451125418E+03  0.91288458569E+03  0.12500114576E+03 0.  0.
          2    1    1    2  501    0 -0.44581382128E+03  0.62656121488E+02 -0.65359036350E+03  0.79363474978E+03  0.00000000000E+00 0. -1.
          1    1    1    2  502    0 -0.10764607558E+03  0.10784091877E+03  0.86506649985E+02  0.17521627162E+03  0.00000000000E+00 0. -1.
         22    1    3    3    0    0  0.24394108566E+03 -0.10292723964E+03 -0.40408137784E+03  0.48309732958E+03  0.00000000000E+00 0. -1.
         22    1    3    3    0    0  0.30951881120E+03 -0.67569800613E+02 -0.29042987634E+03  0.42978725611E+03  0.00000000000E+00 0. -1.
</event>
<event>
 7    1  0.4822463E-005  0.1440091E+04  0.7818608E-02  0.1106776E+00
          2   -1    0    0  502    0  0.00000000000E+00  0.00000000000E+00  0.37772640071E+04  0.37772640071E+04  0.00000000000E+00 0. -1.
          1   -1    0    0  501    0 -0.00000000000E+00 -0.00000000000E+00 -0.74415179677E+03  0.74415179677E+03  0.00000000000E+00 0. -1.
         25    2    1    2    0    0 -0.41714025772E+03 -0.14010706093E+04  0.98168443551E+03  0.17653141666E+04  0.12499971555E+03 0.  0.
          2    1    1    2  501    0 -0.21872136893E+02  0.41784618593E+02 -0.13579898168E+03  0.14375572388E+03  0.00000000000E+00 0. -1.
          1    1    1    2  502    0  0.43901239461E+03  0.13592859907E+04  0.21872267566E+04  0.26123459135E+04  0.00000000000E+00 0. -1.
         22    1    3    3    0    0 -0.34605614805E+03 -0.12377437378E+04  0.81831338445E+03  0.15236145226E+04  0.00000000000E+00 0. -1.
         22    1    3    3    0    0 -0.71084109668E+02 -0.16332687144E+03  0.16337105106E+03  0.24169964399E+03  0.00000000000E+00 0. -1.
</event>
<event>
 7    1  0.4822463E-005  0.2242160E+03  0.7818608E-02  0.1162704E+00
          2   -1    0    0  502    0  0.00000000000E+00  0.00000000000E+00  0.14561752880E+04  0.14561752880E+04  0.00000000000E+00 0. -1.
          1   -1    0    0  501    0 -0.00000000000E+00 -0.00000000000E+00 -0.27668310680E+03  0.27668310680E+03  0.00000000000E+00 0. -1.
         25    2    1    2    0    0  0.34348469789E+03  0.10343356779E+03  0.75623551074E+03  0.84628449057E+03  0.12500020256E+03 0.  0.
          2    1    1    2  501    0 -0.19023692869E+03 -0.10193748659E+03 -0.16943463785E+03  0.27438920663E+03  0.00000000000E+00 0. -1.
          1    1    1    2  502    0 -0.15324776920E+03 -0.14960811976E+01  0.59269130830E+03  0.61218469758E+03  0.00000000000E+00 0. -1.
         22    1    3    3    0    0  0.21259272743E+03  0.82528015066E+01  0.35840189307E+03  0.41679214657E+03  0.00000000000E+00 0. -1.
         22    1    3    3    0    0  0.13089197046E+03  0.95180766279E+02  0.39783361767E+03  0.42949234400E+03  0.00000000000E+00 0. -1.
</event>
<event>
 7    1  0.4822463E-005  0.1094906E+04  0.7818608E-02  0.1158319E+00
          2   -1    0    0  502    0  0.00000000000E+00  0.00000000000E+00  0.37354902236E+04  0.37354902236E+04  0.00000000000E+00 0. -1.
          1   -1    0    0  501    0 -0.00000000000E+00 -0.00000000000E+00 -0.92184144516E+03  0.92184144516E+03  0.00000000000E+00 0. -1.
         25    2    1    2    0    0 -0.10639755218E+04 -0.13814878367E+03  0.39186774047E+03  0.11490499941E+04  0.12500626169E+03 0.  0.
          2    1    1    2  501    0 -0.29883911739E+02  0.14058271062E+02 -0.44042576792E+03  0.44166224677E+03  0.00000000000E+00 0. -1.
          1    1    1    2  502    0  0.10938594336E+04  0.12409051261E+03  0.28622068059E+04  0.30666194279E+04  0.00000000000E+00 0. -1.
         22    1    3    3    0    0 -0.19241927735E+03 -0.14931275920E+02  0.21899496944E+02  0.19423622027E+03  0.00000000000E+00 0.  1.
         22    1    3    3    0    0 -0.87155624448E+03 -0.12321750775E+03  0.36996824352E+03  0.95481377385E+03  0.00000000000E+00 0.  1.
</event>
<event>
 7    1  0.4822463E-005  0.4019348E+03  0.7818608E-02  0.1179046E+00
          2   -1    0    0  502    0  0.00000000000E+00  0.00000000000E+00  0.79433446984E+03  0.79433446984E+03  0.00000000000E+00 0. -1.
          1   -1    0    0  501    0 -0.00000000000E+00 -0.00000000000E+00 -0.72133475336E+03  0.72133475336E+03  0.00000000000E+00 0. -1.
         25    2    1    2    0    0  0.40734070751E+03 -0.91111624582E+02  0.31719342573E+03  0.53894798008E+03  0.12500190308E+03 0.  0.
          2    1    1    2  501    0 -0.39980523354E+03  0.20574996856E+02 -0.54017851133E+03  0.67235435551E+03  0.00000000000E+00 0. -1.
          1    1    1    2  502    0 -0.75354739687E+01  0.70536627726E+02  0.29598480208E+03  0.30436688762E+03  0.00000000000E+00 0. -1.
         22    1    3    3    0    0  0.18735735642E+03 -0.57447129892E+02  0.74456399454E+02  0.20963469932E+03  0.00000000000E+00 0. -1.
         22    1    3    3    0    0  0.21998335109E+03 -0.33664494691E+02  0.24273702628E+03  0.32931328076E+03  0.00000000000E+00 0. -1.
</event>
<event>
 7    1  0.4822463E-005  0.3100939E+03  0.7818608E-02  0.1095099E+00
          2   -1    0    0  502    0  0.00000000000E+00  0.00000000000E+00  0.59423843890E+03  0.59423843890E+03  0.00000000000E+00 0. -1.
          1   -1    0    0  501    0 -0.00000000000E+00 -0.00000000000E+00 -0.12000781485E+04  0.12000781485E+04  0.00000000000E+00 0. -1.
         25    2    1    2    0    0  0.63315478860E+02  0.29935975168E+03 -0.24417343863E+03  0.41093919293E+03  0.12500096544E+03 0.  0.
          2    1    1    2  501    0  0.21668832164E+03 -0.13402503761E+03 -0.79886407380E+03  0.83851079174E+03  0.00000000000E+00 0. -1.
          1    1    1    2  502    0 -0.28000380050E+03 -0.16533471407E+03  0.43719780283E+03  0.54486660273E+03  0.00000000000E+00 0. -1.
         22    1    3    3    0    0  0.22001098049E+02 -0.47144972200E+01 -0.86467274100E+01  0.24104785714E+02  0.00000000000E+00 0. -1.
         22    1    3    3    0    0  0.41314380811E+02  0.30407424890E+03 -0.23552671122E+03  0.38683440721E+03  0.00000000000E+00 0. -1.
</event>
<event>
 7    1  0.4822463E-005  0.2033327E+03  0.7818608E-02  0.1187850E+00
          2   -1    0    0  502    0  0.00000000000E+00  0.00000000000E+00  0.46370758671E+03  0.46370758671E+03  0.00000000000E+00 0. -1.
          1   -1    0    0  501    0 -0.00000000000E+00 -0.00000000000E+00 -0.35473347908E+03  0.35473347908E+03  0.00000000000E+00 0. -1.
         25    2    1    2    0    0  0.26051295539E+03 -0.13107718468E+03 -0.55563376305E+02  0.32212055062E+03  0.12500452822E+03 0.  0.
          2    1    1    2  501    0 -0.12696010302E+03 -0.57177817974E+01 -0.10569702745E+03  0.16529798063E+03  0.00000000000E+00 0. -1.
          1    1    1    2  502    0 -0.13355285237E+03  0.13679496647E+03  0.27023451139E+03  0.33102253454E+03  0.00000000000E+00 0. -1.
         22    1    3    3    0    0 -0.62681808593E+01 -0.25276538655E+02  0.97155278522E+01  0.27795412915E+02  0.00000000000E+00 0.  1.
         22    1    3    3    0    0  0.26678113625E+03 -0.10580064602E+03 -0.65278904157E+02  0.29432513770E+03  0.00000000000E+00 0.  1.
</event>
<event>
 7    1  0.4822463E-005  0.1444919E+04  0.7818608E-02  0.1000283E+00
          2   -1    0    0  502    0  0.00000000000E+00  0.00000000000E+00  0.40889076949E+04  0.40889076949E+04  0.00000000000E+00 0. -1.
          1   -1    0    0  501    0 -0.00000000000E+00 -0.00000000000E+00 -0.13964503252E+04  0.13964503252E+04  0.00000000000E+00 0. -1.
         25    2    1    2    0    0  0.11356041738E+04  0.66689284447E+03  0.28190518487E+04  0.31140040603E+04  0.12500022594E+03 0.  0.
          2    1    1    2  501    0 -0.11732278517E+04 -0.87693040901E+03 -0.79719042511E+03  0.16676279885E+04  0.00000000000E+00 0. -1.
          1    1    1    2  502    0  0.37623677926E+02  0.21003756454E+03  0.67059594611E+03  0.70372597124E+03  0.00000000000E+00 0. -1.
         22    1    3    3    0    0  0.90969478875E+03  0.58687945561E+03  0.23441601827E+04  0.25820648842E+04  0.00000000000E+00 0. -1.
         22    1    3    3    0    0  0.22590938505E+03  0.80013388866E+02  0.47489166598E+03  0.53193917610E+03  0.00000000000E+00 0. -1.
</event>
<event>
 7    1  0.4822463E-005  0.9932121E+02  0.7818608E-02  0.1337057E+00
          2   -1    0    0  502    0  0.00000000000E+00  0.00000000000E+00  0.81130991158E+03  0.81130991158E+03  0.00000000000E+00 0. -1.
          1   -1    0    0  501    0 -0.00000000000E+00 -0.00000000000E+00 -0.48765584032E+02  0.48765584032E+02  0.00000000000E+00 0. -1.
         25    2    1    2    0    0  0.39097008708E+02 -0.30567019139E+02  0.56855725289E+03  0.58424762083E+03  0.12500005552E+03 0.  0.
          2    1    1    2  501    0 -0.63733343355E+02  0.85358735172E+02  0.45854917059E+02  0.11597726563E+03  0.00000000000E+00 0. -1.
          1    1    1    2  502    0  0.24636334647E+02 -0.54791716033E+02  0.14813215760E+03  0.15985060915E+03  0.00000000000E+00 0. -1.
         22    1    3    3    0    0  0.21845474879E+01 -0.75821684234E+02  0.30385826984E+03  0.31318293088E+03  0.00000000000E+00 0. -1.
         22    1    3    3    0    0  0.36912461220E+02  0.45254665095E+02  0.26469898305E+03  0.27106468995E+03  0.00000000000E+00 0. -1.
</event>
<event>
 7    1  0.4822463E-005  0.8028256E+03  0.7818608E-02  0.1160296E+00
          2   -1    0    0  502    0  0.00000000000E+00  0.00000000000E+00  0.13271370459E+04  0.13271370459E+04  0.00000000000E+00 0. -1.
          1   -1    0    0  501    0 -0.00000000000E+00 -0.00000000000E+00 -0.14688651214E+04  0.14688651214E+04  0.00000000000E+00 0. -1.
         25    2    1    2    0    0  0.36638980007E+03 -0.68935761412E+03  0.27734192098E+03  0.83785431575E+03  0.12500363013E+03 0.  0.
          2    1    1    2  501    0  0.35951356764E+02 -0.25393586394E+02 -0.96941220843E+03  0.97041092540E+03  0.00000000000E+00 0. -1.
          1    1    1    2  502    0 -0.40234115683E+03  0.71475120051E+03  0.55034221192E+03  0.98773692618E+03  0.00000000000E+00 0. -1.
         22    1    3    3    0    0  0.52149588910E+02 -0.20963380925E+03  0.95906915288E+02  0.23635576998E+03  0.00000000000E+00 0. -1.
         22    1    3    3    0    0  0.31424021116E+03 -0.47972380487E+03  0.18143500569E+03  0.60149854576E+03  0.00000000000E+00 0. -1.
</event>
<event>
 7    1  0.4822463E-005  0.2773740E+03  0.7818608E-02  0.1104645E+00
          2   -1    0    0  502    0  0.00000000000E+00  0.00000000000E+00  0.41185842705E+04  0.41185842705E+04  0.00000000000E+00 0. -1.
          1   -1    0    0  501    0 -0.00000000000E+00 -0.00000000000E+00 -0.91958451521E+02  0.91958451521E+02  0.00000000000E+00 0. -1.
         25    2    1    2    0    0 -0.52698224075E+01 -0.42317331830E+03  0.67802828235E+03  0.80898110017E+03  0.12499856169E+03 0.  0.
          2    1    1    2  501    0  0.15359574928E+03  0.19934352543E+03  0.79484686702E+03  0.83373319314E+03  0.00000000000E+00 0. -1.
          1    1    1    2  502    0 -0.14832592687E+03  0.22382979287E+03  0.25537506696E+04  0.25678284287E+04  0.00000000000E+00 0. -1.
         22    1    3    3    0    0  0.14880550499E+02 -0.12788763441E+03  0.11379128581E+03  0.17182879428E+03  0.00000000000E+00 0.  1.
         22    1    3    3    0    0 -0.20150372907E+02 -0.29528568388E+03  0.56423699654E+03  0.63715230589E+03  0.00000000000E+00 0.  1.
</event>
<event>
 7    1  0.4822463E-005  0.5374396E+03  0.7818608E-02  0.1146608E+00
          2   -1    0    0  502    0  0.00000000000E+00  0.00000000000E+00  0.25154618272E+04  0.25154618272E+04  0.00000000000E+00 0. -1.
          1   -1    0    0  501    0 -0.00000000000E+00 -0.00000000000E+00 -0.26559743999E+03  0.26559743999E+03  0.00000000000E+00 0. -1.
         25    2    1    2    0    0 -0.56699577343E+03 -0.71678276748E+02  0.63025939474E+03  0.85992722579E+03  0.12500378617E+03 0.  0.
          2    1    1    2  501    0  0.50459087009E+03  0.11720790707E+03  0.29870502365E+03  0.59797519247E+03  0.00000000000E+00 0. -1.
          1    1    1    2  502    0  0.62404903344E+02 -0.45529630320E+02  0.13208999688E+04  0.13231568489E+04  0.00000000000E+00 0. -1.
         22    1    3    3    0    0 -0.44576827687E+03 -0.47550814254E+01  0.46190544644E+03  0.64194128151E+03  0.00000000000E+00 0.  1.
         22    1    3    3    0    0 -0.12122749656E+03 -0.66923195323E+02  0.16835394830E+03  0.21798594428E+03  0.00000000000E+00 0.  1.
</event>
<event>
 7    1  0.4822463E-005  0.4197878E+03  0.7818608E-02  0.1155083E+00
          2   -1    0    0  502    0  0.00000000000E+00  0.00000000000E+00  0.39194954944E+03  0.39194954944E+03  0.00000000000E+00 0. -1.
          1   -1    0    0  501    0 -0.00000000000E+00 -0.00000000000E+00 -0.25185202825E+04  0.25185202825E+04  0.00000000000E+00 0. -1.
         25    2    1    2    0    0  0.44005153093E+03 -0.85445276695E+02 -0.22719906717E+03  0.51787114761E+03  0.12499945690E+03 0.  0.
          2    1    1    2  501    0 -0.60059119237E+02 -0.66308388337E+02 -0.19745499100E+04  0.19765756366E+04  0.00000000000E+00 0. -1.
          1    1    1    2  502    0 -0.37999241170E+03  0.15175366503E+03  0.75178244146E+02  0.41602304767E+03  0.00000000000E+00 0. -1.
         22    1    3    3    0    0  0.32266771356E+03 -0.66068323536E+02 -0.22499894030E+03  0.39887842745E+03  0.00000000000E+00 0.  1.
         22    1    3    3    0    0  0.11738381737E+03 -0.19376953158E+02 -0.22001268716E+01  0.11899272016E+03  0.00000000000E+00 0.  1.
</event>
<event>
 7    1  0.4822463E-005  0.6188341E+03  0.7818608E-02  0.1258040E+00
          2   -1    0    0  502    0  0.00000000000E+00  0.00000000000E+00  0.21752650537E+04  0.21752650537E+04  0.00000000000E+00 0. -1.
          1   -1    0    0  501    0 -0.00000000000E+00 -0.00000000000E+00 -0.15017846671E+04  0.15017846671E+04  0.00000000000E+00 0. -1.
         25    2    1    2    0    0  0.25909436060E+03  0.56732127250E+03  0.11432616186E+04  0.13083027994E+04  0.12500308933E+03 0.  0.
          2    1    1    2  501    0 -0.19852053936E+02 -0.27798330521E+01 -0.13201935590E+04  0.13203457368E+04  0.00000000000E+00 0. -1.
          1    1    1    2  502    0 -0.23924230666E+03 -0.56454143944E+03  0.85041232689E+03  0.10484011846E+04  0.00000000000E+00 0. -1.
         22    1    3    3    0    0  0.63849873998E+02  0.19658730438E+03  0.27296197361E+03  0.34239102454E+03  0.00000000000E+00 0. -1.
         22    1    3    3    0    0  0.19524448660E+03  0.37073396812E+03  0.87029964501E+03  0.96591177483E+03  0.00000000000E+00 0. -1.
</event>
<event>
 7    1  0.4822463E-005  0.9416338E+03  0.7818608E-02  0.9988571E-01
          2   -1    0    0  502    0  0.00000000000E+00  0.00000000000E+00  0.16140937649E+04  0.16140937649E+04  0.00000000000E+00 0. -1.
          1   -1    0    0  501    0 -0.00000000000E+00 -0.00000000000E+00 -0.32338876282E+04  0.32338876282E+04  0.00000000000E+00 0. -1.
         25    2    1    2    0    0  0.76619505976E+03 -0.41968164966E+03  0.69697790756E+03  0.11245397860E+04  0.12499587961E+03 0.  0.
          2    1    1    2  501    0  0.39918288264E+02 -0.33248742632E+03 -0.25703924628E+04  0.25921147295E+04  0.00000000000E+00 0. -1.
          1    1    1    2  502    0 -0.80611334803E+03  0.75216907598E+03  0.25362069188E+03  0.11313268776E+04  0.00000000000E+00 0. -1.
         22    1    3    3    0    0  0.40554945790E+03 -0.15473385907E+03  0.36899477260E+03  0.56971051610E+03  0.00000000000E+00 0.  1.
         22    1    3    3    0    0  0.36064560186E+03 -0.26494779059E+03  0.32798313496E+03  0.55482926986E+03  0.00000000000E+00 0.  1.
</event>
<event>
 7    1  0.4822463E-005  0.3217772E+03  0.7818608E-02  0.1159164E+00
          2   -1    0    0  502    0  0.00000000000E+00  0.00000000000E+00  0.91887598140E+03  0.91887598140E+03  0.00000000000E+00 0. -1.
          1   -1    0    0  501    0 -0.00000000000E+00 -0.00000000000E+00 -0.13590219176E+04  0.13590219176E+04  0.00000000000E+00 0. -1.
         25    2    1    2    0    0 -0.33856089526E+03 -0.51785780786E+02  0.56831829581E+03  0.67521522644E+03  0.12499867904E+03 0.  0.
          2    1    1    2  501    0  0.41372181819E+02  0.10329696347E+03 -0.12258488946E+04  0.12308888790E+04  0.00000000000E+00 0. -1.
          1    1    1    2  502    0  0.29718871344E+03 -0.51511182687E+02  0.21738466264E+03  0.37179379351E+03  0.00000000000E+00 0. -1.
         22    1    3    3    0    0 -0.16507168406E+02 -0.11868913992E+02 -0.49899353458E+00  0.20337323390E+02  0.00000000000E+00 0. -1.
         22    1    3    3    0    0 -0.32205372686E+03 -0.39916866794E+02  0.56881728935E+03  0.65487790305E+03  0.00000000000E+00 0. -1.
</event>
<event>
 7    1  0.4822463E-005  0.2491264E+03  0.7818608E-02  0.1237815E+00
          2   -1    0    0  502    0  0.00000000000E+00  0.00000000000E+00  0.22552969305E+04  0.22552969305E+04  0.00000000000E+00 0. -1.
          1   -1    0    0  501    0 -0.00000000000E+00 -0.00000000000E+00 -0.29636862408E+03  0.29636862408E+03  0.00000000000E+00 0. -1.
         25    2    1    2    0    0 -0.11058655956E+03 -0.20779111118E+03  0.18477956551E+03  0.32430782618E+03  0.12500218099E+03 0.  0.
          2    1    1    2  501    0  0.63411429278E+02  0.24643806517E+03 -0.15453222996E+03  0.29771284726E+03  0.00000000000E+00 0. -1.
          1    1    1    2  502    0  0.47175130283E+02 -0.38646953990E+02  0.19286809709E+04  0.19296448812E+04  0.00000000000E+00 0. -1.
         22    1    3    3    0    0 -0.11846062499E+03 -0.21827558502E+03  0.18716713182E+03  0.31098020182E+03  0.00000000000E+00 0.  1.
         22    1    3    3    0    0  0.78740654290E+01  0.10484473847E+02 -0.23875663096E+01  0.13327624361E+02  0.00000000000E+00 0.  1.
</event>
<event>
 7    1  0.4822463E-005  0.5819805E+03  0.7818608E-02  0.1169221E+00
          2   -1    0    0  502    0  0.00000000000E+00  0.00000000000E+00  0.19665396297E+04  0.19665396297E+04  0.00000000000E+00 0. -1.
          1   -1    0    0  501    0 -0.00000000000E+00 -0.00000000000E+00 -0.20624786591E+03  0.20624786591E+03  0.00000000000E+00 0. -1.
         25    2    1    2    0    0  0.55386973353E+03 -0.22673217333E+03  0.82514311633E+03  0.10269671970E+04  0.12498520395E+03 0.  0.
          2    1    1    2  501    0 -0.54168155447E+03  0.17333162917E+03  0.68783217311E+03  0.89251098508E+03  0.00000000000E+00 0. -1.
          1    1    1    2  502    0 -0.12188179059E+02  0.53400544165E+02  0.24731647431E+03  0.25330931347E+03  0.00000000000E+00 0. -1.
         22    1    3    3    0    0  0.28319732524E+03 -0.75534321087E+02  0.31722874427E+03  0.43190303874E+03  0.00000000000E+00 0.  1.
         22    1    3    3    0    0  0.27067240829E+03 -0.15119785225E+03  0.50791437206E+03  0.59506415829E+03  0.00000000000E+00 0.  1.
</event>
<event>
 7    1  0.4822463E-005  0.6597800E+03  0.7818608E-02  0.1130029E+00
          2   -1    0    0  502    0  0.00000000000E+00  0.00000000000E+00  0.26158825075E+04  0.26158825075E+04  0.00000000000E+00 0. -1.
          1   -1    0    0  501    0 -0.00000000000E+00 -0.00000000000E+00 -0.34326767011E+03  0.34326767011E+03  0.00000000000E+00 0. -1.
         25    2    1    2    0    0  0.13701526582E+03 -0.66096833276E+03  0.83483790611E+03  0.10808477808E+04  0.12500110321E+03 0.  0.
          2    1    1    2  501    0  0.65662100545E+02  0.40025826110E+02 -0.14605814831E+03  0.16506532310E+03  0.00000000000E+00 0. -1.
          1    1    1    2  502    0 -0.20267736637E+03  0.62094250665E+03  0.15838350796E+04  0.17132370737E+04  0.00000000000E+00 0. -1.
         22    1    3    3    0    0  0.15891621553E+03 -0.54370953581E+03  0.66982876951E+03  0.87723714202E+03  0.00000000000E+00 0. -1.
         22    1    3    3    0    0 -0.21900949710E+02 -0.11725879696E+03  0.16500913660E+03  0.20361063878E+03  0.00000000000E+00 0. -1.
</event>
<event>
 7    1  0.4822463E-005  0.9565021E+03  0.7818608E-02  0.1113764E+00
          2   -1    0    0  502    0  0.00000000000E+00  0.00000000000E+00  0.11462515653E+04  0.11462515653E+04  0.00000000000E+00 0. -1.
          1   -1    0    0  501    0 -0.00000000000E+00 -0.00000000000E+00 -0.17572496760E+04  0.17572496760E+04  0.00000000000E+00 0. -1.
         25    2    1    2    0    0  0.95538135700E+03 -0.65042933064E+02  0.44898315065E+03  0.10649859308E+04  0.12500017145E+03 0.  0.
          2    1    1    2  501    0  0.48286915983E+00  0.64961928547E+02 -0.85937556502E+03  0.86182750425E+03  0.00000000000E+00 0. -1.
          1    1    1    2  502    0 -0.95586422616E+03  0.81004517060E-01 -0.20060569635E+03  0.97668780622E+03  0.00000000000E+00 0. -1.
         22    1    3    3    0    0  0.85924417574E+03 -0.92561822306E+02  0.42002336277E+03  0.96087869670E+03  0.00000000000E+00 0.  1.
         22    1    3    3    0    0  0.96137181261E+02  0.27518889242E+02  0.28959787879E+02  0.10410723414E+03  0.00000000000E+00 0.  1.
</event>
<event>
 7    1  0.4822463E-005  0.3804320E+02  0.7818608E-02  0.1535486E+00
          2   -1    0    0  502    0  0.00000000000E+00  0.00000000000E+00  0.39753040972E+03  0.39753040972E+03  0.00000000000E+00 0. -1.
          1   -1    0    0  501    0 -0.00000000000E+00 -0.00000000000E+00 -0.39742629204E+02  0.39742629204E+02  0.00000000000E+00 0. -1.
         25    2    1    2    0    0 -0.19286712090E+02  0.32315653174E+02  0.32549057055E+03  0.35069187545E+03  0.12499760510E+03 0.  0.
          2    1    1    2  501    0 -0.22950710328E+02 -0.30340564760E+02  0.15776758796E+02  0.41184840568E+02  0.00000000000E+00 0. -1.
          1    1    1    2  502    0  0.42237422417E+02 -0.19750884142E+01  0.16520451161E+02  0.45396322905E+02  0.00000000000E+00 0. -1.
         22    1    3    3    0    0 -0.16444597041E+01 -0.48129189332E+02  0.12349478565E+03  0.13255219800E+03  0.00000000000E+00 0. -1.
         22    1    3    3    0    0 -0.17642252386E+02  0.80444842506E+02  0.20199578491E+03  0.21813967744E+03  0.00000000000E+00 0. -1.
</event>
<event>
 7    1  0.4822463E-005  0.2468260E+03  0.7818608E-02  0.1239546E+00
          2   -1    0    0  502    0  0.00000000000E+00  0.00000000000E+00  0.75859807679E+03  0.75859807679E+03  0.00000000000E+00 0. -1.
          1   -1    0    0  501    0 -0.00000000000E+00 -0.00000000000E+00 -0.12988699682E+03  0.12988699682E+03  0.00000000000E+00 0. -1.
         25    2    1    2    0    0 -0.20107122709E+03 -0.59941671434E+02  0.15088828914E+03  0.28708055157E+03  0.12500129980E+03 0.  0.
          2    1    1    2  501    0 -0.59975079035E+02  0.77828355964E+01  0.74612222531E+01  0.60936462588E+02  0.00000000000E+00 0. -1.
          1    1    1    2  502    0  0.26104630613E+03  0.52158835837E+02  0.47036156858E+03  0.54046805946E+03  0.00000000000E+00 0. -1.
         22    1    3    3    0    0 -0.21070662938E+03 -0.76744746788E+02  0.14410132079E+03  0.26655624262E+03  0.00000000000E+00 0. -1.
         22    1    3    3    0    0  0.96354022894E+01  0.16803075354E+02  0.67869683479E+01  0.20524308953E+02  0.00000000000E+00 0. -1.
</event>
<event>
 7    1  0.4822463E-005  0.2514582E+03  0.7818608E-02  0.1307139E+00
          2   -1    0    0  502    0  0.00000000000E+00  0.00000000000E+00  0.98343137270E+03  0.98343137270E+03  0.00000000000E+00 0. -1.
          1   -1    0    0  501    0 -0.00000000000E+00 -0.00000000000E+00 -0.41103915455E+03  0.41103915455E+03  0.00000000000E+00 0. -1.
         25    2    1    2    0    0  0.24913165637E+03  0.58175515741E+02 -0.25236411328E+03  0.38047789737E+03  0.12499924749E+03 0.  0.
          2    1    1    2  501    0  0.70725248694E+00 -0.30965364108E+02 -0.74286095791E+02  0.80484644550E+02  0.00000000000E+00 0. -1.
          1    1    1    2  502    0 -0.24983890886E+03 -0.27210151633E+02  0.89904242722E+03  0.93350798533E+03  0.00000000000E+00 0. -1.
         22    1    3    3    0    0  0.91619658773E+02  0.61515434221E+02 -0.17005858731E+03  0.20272699287E+03  0.00000000000E+00 0.  1.
         22    1    3    3    0    0  0.15751199760E+03 -0.33399184799E+01 -0.82305525974E+02  0.17775090449E+03  0.00000000000E+00 0.  1.
</event>
<event>
 7    1  0.4822463E-005  0.2265421E+03  0.7818608E-02  0.1212328E+00
          2   -1    0    0  502    0  0.00000000000E+00  0.00000000000E+00  0.44287011530E+03  0.44287011530E+03  0.00000000000E+00 0. -1.
          1   -1    0    0  501    0 -0.00000000000E+00 -0.00000000000E+00 -0.26505646128E+04  0.26505646128E+04  0.00000000000E+00 0. -1.
         25    2    1    2    0    0  0.11775490344E+03 -0.13958712913E+03  0.27104553904E+03  0.34991986316E+03  0.12500976960E+03 0.  0.
          2    1    1    2  501    0 -0.19965353009E+03  0.10894433457E+03 -0.25911420000E+04  0.26011050083E+04  0.00000000000E+00 0. -1.
          1    1    1    2  502    0  0.81898626657E+02  0.30642794560E+02  0.11240196339E+03  0.14240985669E+03  0.00000000000E+00 0. -1.
         22    1    3    3    0    0  0.12564424851E+03 -0.15744351394E+03  0.25239233815E+03  0.32291923080E+03  0.00000000000E+00 0.  1.
         22    1    3    3    0    0 -0.78893450704E+01  0.17856384811E+02  0.18653200888E+02  0.27000632354E+02  0.00000000000E+00 0.  1.
</event>
<event>
 7    1  0.4822463E-005  0.2580841E+03  0.7818608E-02  0.1165961E+00
          2   -1    0    0  502    0  0.00000000000E+00  0.00000000000E+00  0.58132038228E+03  0.58132038228E+03  0.00000000000E+00 0. -1.
          1   -1    0    0  501    0 -0.00000000000E+00 -0.00000000000E+00 -0.20802239936E+04  0.20802239936E+04  0.00000000000E+00 0. -1.
         25    2    1    2    0    0 -0.28864873296E+03  0.49022381334E+02 -0.14436726162E+03  0.34955379128E+03  0.12499864743E+03 0.  0.
          2    1    1    2  501    0  0.42163398911E+02 -0.12109786631E+03 -0.17963726550E+04  0.18009434086E+04  0.00000000000E+00 0. -1.
          1    1    1    2  502    0  0.24648533405E+03  0.72075484979E+02  0.44183630528E+03  0.51104717600E+03  0.00000000000E+00 0. -1.
         22    1    3    3    0    0 -0.41603005417E+02  0.55174026011E+02 -0.15373364386E+02  0.70790702345E+02  0.00000000000E+00 0.  1.
         22    1    3    3    0    0 -0.24704572754E+03 -0.61516446771E+01 -0.12899389723E+03  0.27876308893E+03  0.00000000000E+00 0.  1.
</event>
<event>
 7    1  0.4822463E-005  0.1798950E+03  0.7818608E-02  0.1273339E+00
          2   -1    0    0  502    0  0.00000000000E+00  0.00000000000E+00  0.27187959856E+03  0.27187959856E+03  0.00000000000E+00 0. -1.
          1   -1    0    0  501    0 -0.00000000000E+00 -0.00000000000E+00 -0.60396018505E+03  0.60396018505E+03  0.00000000000E+00 0. -1.
         25    2    1    2    0    0  0.20251004993E+03  0.42357107309E+02  0.87816625015E+02  0.25717984648E+03  0.12500107578E+03 0.  0.
          2    1    1    2  501    0 -0.42013193472E+02 -0.42008838725E+02 -0.45123701448E+03  0.45513151308E+03  0.00000000000E+00 0. -1.
          1    1    1    2  502    0 -0.16049685646E+03 -0.34826858378E+00  0.31339802975E+02  0.16352842406E+03  0.00000000000E+00 0. -1.
         22    1    3    3    0    0  0.56932868156E+02  0.21940822138E+02 -0.30746427842E+02  0.68323451154E+02  0.00000000000E+00 0.  1.
         22    1    3    3    0    0  0.14557718178E+03  0.20416285171E+02  0.11856305286E+03  0.18885639533E+03  0.00000000000E+00 0.  1.
</event>
<event>
 7    1  0.4822463E-005  0.2139377E+03  0.7818608E-02  0.1266989E+00
          2   -1    0    0  502    0  0.00000000000E+00  0.00000000000E+00  0.38881241014E+03  0.38881241014E+03  0.00000000000E+00 0. -1.
          1   -1    0    0  501    0 -0.00000000000E+00 -0.00000000000E+00 -0.26349100878E+03  0.26349100878E+03  0.00000000000E+00 0. -1.
         25    2    1    2    0    0 -0.15161907440E+03 -0.14809611894E+03  0.59864262284E+02  0.25323510564E+03  0.12499393851E+03 0.  0.
          2    1    1    2  501    0  0.37995492053E+02 -0.37124319921E+02 -0.10844316874E+03  0.12075509675E+03  0.00000000000E+00 0. -1.
          1    1    1    2  502    0  0.11362358234E+03  0.18522043886E+03  0.17390030781E+03  0.27831321653E+03  0.00000000000E+00 0. -1.
         22    1    3    3    0    0 -0.14625944332E+03 -0.14820215351E+03  0.86934066790E+02  0.22563961317E+03  0.00000000000E+00 0.  1.
         22    1    3    3    0    0 -0.53596310800E+01  0.10603456636E+00 -0.27069804506E+02  0.27595492469E+02  0.00000000000E+00 0.  1.
</event>
<event>
 7    1  0.4822463E-005  0.8125192E+03  0.7818608E-02  0.1102349E+00
          2   -1    0    0  502    0  0.00000000000E+00  0.00000000000E+00  0.14880265967E+04  0.14880265967E+04  0.00000000000E+00 0. -1.
          1   -1    0    0  501    0 -0.00000000000E+00 -0.00000000000E+00 -0.10128549800E+04  0.10128549800E+04  0.00000000000E+00 0. -1.
         25    2    1    2    0    0 -0.80059820731E+03 -0.76214557833E+02 -0.42433120744E+03  0.91785022436E+03  0.12500364943E+03 0.  0.
          2    1    1    2  501    0  0.81646330484E+03  0.16326964889E+03  0.17205204852E+03  0.85021833302E+03  0.00000000000E+00 0. -1.
          1    1    1    2  502    0 -0.15865097528E+02 -0.87055091052E+02  0.72745077569E+03  0.73281301930E+03  0.00000000000E+00 0. -1.
         22    1    3    3    0    0 -0.27068500491E+03 -0.46423233804E+02 -0.83349557361E+02  0.28700633657E+03  0.00000000000E+00 0. -1.
         22    1    3    3    0    0 -0.52991320240E+03 -0.29791324029E+02 -0.34098165008E+03  0.63084388779E+03  0.00000000000E+00 0. -1.
</event>
<event>
 7    1  0.4822463E-005  0.6347909E+03  0.7818608E-02  0.1102874E+00
          2   -1    0    0  502    0  0.00000000000E+00  0.00000000000E+00  0.27294976363E+04  0.27294976363E+04  0.00000000000E+00 0. -1.
          1   -1    0    0  501    0 -0.00000000000E+00 -0.00000000000E+00 -0.50122195151E+03  0.50122195151E+03  0.00000000000E+00 0. -1.
         25    2    1    2    0    0 -0.36809810590E+03 -0.46590579385E+03  0.59256077798E+02  0.60967332329E+03  0.12500341619E+03 0.  0.
          2    1    1    2  501    0  0.45927155179E+03  0.53180935166E+03  0.32603128773E+03  0.77462761723E+03  0.00000000000E+00 0. -1.
          1    1    1    2  502    0 -0.91173445890E+02 -0.65903557802E+02  0.18429883192E+04  0.18464186473E+04  0.00000000000E+00 0. -1.
         22    1    3    3    0    0 -0.25849602238E+03 -0.40295694932E+03  0.65082451879E+02  0.48314617057E+03  0.00000000000E+00 0.  1.
         22    1    3    3    0    0 -0.10960208353E+03 -0.62948844532E+02 -0.58263740814E+01  0.12652715272E+03  0.00000000000E+00 0.  1.
</event>
<event>
 7    1  0.4822463E-005  0.8825191E+03  0.7818608E-02  0.9722773E-01
          2   -1    0    0  502    0  0.00000000000E+00  0.00000000000E+00  0.69997214093E+03  0.69997214093E+03  0.00000000000E+00 0. -1.
          1   -1    0    0  501    0 -0.00000000000E+00 -0.00000000000E+00 -0.24762127617E+04  0.24762127617E+04  0.00000000000E+00 0. -1.
         25    2    1    2    0    0  0.41914140533E+03  0.10539621312E+04 -0.16500190718E+04  0.20061667211E+04  0.12500513513E+03 0.  0.
          2    1    1    2  501    0 -0.22815926174E+03 -0.53806190980E+03 -0.19388111241E+03  0.61575738181E+03  0.00000000000E+00 0. -1.
          1    1    1    2  502    0 -0.19098214359E+03 -0.51590022138E+03  0.67659563458E+02  0.55426079973E+03  0.00000000000E+00 0. -1.
         22    1    3    3    0    0  0.31483946282E+03  0.67700953347E+03 -0.11543954478E+04  0.13748071304E+04  0.00000000000E+00 0. -1.
         22    1    3    3    0    0  0.10430194251E+03  0.37695259771E+03 -0.49562362403E+03  0.63135959075E+03  0.00000000000E+00 0. -1.
</event>
<event>
 7    1  0.5446890E-005  0.1475293E+03  0.7818608E-02  0.1219747E+00
          2   -1    0    0  502    0  0.00000000000E+00  0.00000000000E+00  0.29050373825E+04  0.29050373825E+04  0.00000000000E+00 0. -1.
          1   -1    0    0  501    0 -0.00000000000E+00 -0.00000000000E+00 -0.37837896452E+03  0.37837896452E+03  0.00000000000E+00 0. -1.
         25    2    1    2    0    0  0.87008989813E+02  0.56411123750E+02 -0.12219547239E+03  0.20325004545E+03  0.12500427318E+03 0.  0.
          2    1    1    2  501    0 -0.83221908143E+02  0.92125995552E+02 -0.19568740921E+03  0.23174694642E+03  0.00000000000E+00 0. -1.
          1    1    1    2  502    0 -0.37870816707E+01 -0.14853711930E+03  0.28445412996E+04  0.28484193552E+04  0.00000000000E+00 0. -1.
         22    1    3    3    0    0  0.10051842069E+03 -0.96240865850E+00 -0.57816700509E+02  0.11596400297E+03  0.00000000000E+00 0.  1.
         22    1    3    3    0    0 -0.13509430873E+02  0.57373532409E+02 -0.64378771877E+02  0.87286042481E+02  0.00000000000E+00 0.  1.
</event>
<event>
 7    1  0.4822463E-005  0.4642799E+03  0.7818608E-02  0.1100476E+00
          2   -1    0    0  502    0  0.00000000000E+00  0.00000000000E+00  0.93145384712E+03  0.93145384712E+03  0.00000000000E+00 0. -1.
          1   -1    0    0  501    0 -0.00000000000E+00 -0.00000000000E+00 -0.51888457600E+03  0.51888457600E+03  0.00000000000E+00 0. -1.
         25    2    1    2    0    0 -0.33234274001E+03  0.48735972757E+03 -0.13741086858E+01  0.60298977818E+03  0.12499433397E+03 0.  0.
          2    1    1    2  501    0  0.88684609336E+02 -0.13156116037E+03 -0.91332148353E+02  0.18307064258E+03  0.00000000000E+00 0. -1.
          1    1    1    2  502    0  0.24365813068E+03 -0.35579856720E+03  0.50527552816E+03  0.66427800236E+03  0.00000000000E+00 0. -1.
         22    1    3    3    0    0 -0.26596848858E+03  0.39565375923E+03 -0.50850722054E+02  0.47944439724E+03  0.00000000000E+00 0.  1.
         22    1    3    3    0    0 -0.66374251429E+02  0.91705968336E+02  0.49476613368E+02  0.12354538094E+03  0.00000000000E+00 0.  1.
</event>
<event>
 7    1  0.4822463E-005  0.2168316E+03  0.7818608E-02  0.1165143E+00
          2   -1    0    0  502    0  0.00000000000E+00  0.00000000000E+00  0.11305501486E+03  0.11305501486E+03  0.00000000000E+00 0. -1.
          1   -1    0    0  501    0 -0.00000000000E+00 -0.00000000000E+00 -0.18826652000E+04  0.18826652000E+04  0.00000000000E+00 0. -1.
         25    2    1    2    0    0  0.88267672803E+02 -0.26042868345E+03 -0.14175775813E+04  0.14494016402E+04  0.12499853776E+03 0.  0.
          2    1    1    2  501    0 -0.12232513519E+03  0.11016995209E+03 -0.35597533327E+03  0.39219803026E+03  0.00000000000E+00 0. -1.
          1    1    1    2  502    0  0.34057462386E+02  0.15025873136E+03  0.39427294042E+01  0.15412054441E+03  0.00000000000E+00 0. -1.
         22    1    3    3    0    0 -0.85985332024E+01 -0.97722462608E+02 -0.29281789324E+03  0.30881375143E+03  0.00000000000E+00 0.  1.
         22    1    3    3    0    0  0.96866206006E+02 -0.16270622084E+03 -0.11247596881E+04  0.11405878888E+04  0.00000000000E+00 0.  1.
</event>
<event>
 7    1  0.4822463E-005  0.3470945E+03  0.7818608E-02  0.1082715E+00
          2   -1    0    0  502    0  0.00000000000E+00  0.00000000000E+00  0.13120716730E+04  0.13120716730E+04  0.00000000000E+00 0. -1.
          1   -1    0    0  501    0 -0.00000000000E+00 -0.00000000000E+00 -0.72616462885E+03  0.72616462885E+03  0.00000000000E+00 0. -1.
         25    2    1    2    0    0  0.24035990318E+03  0.28523514637E+03  0.62836754503E+03  0.74135087897E+03  0.12499352914E+03 0.  0.
          2    1    1    2  501    0  0.12752095706E+03 -0.23594383547E+03 -0.58268167242E+03  0.64144291980E+03  0.00000000000E+00 0. -1.
          1    1    1    2  502    0 -0.36788086024E+03 -0.49291310902E+02  0.54022117155E+03  0.65544250308E+03  0.00000000000E+00 0. -1.
         22    1    3    3    0    0  0.21423885407E+03  0.21157731329E+03  0.40472142805E+03  0.50444294069E+03  0.00000000000E+00 0.  1.
         22    1    3    3    0    0  0.26121049108E+02  0.73657833087E+02  0.22364611698E+03  0.23690793828E+03  0.00000000000E+00 0.  1.
</event>
<event>
 7    1  0.4822463E-005  0.1637042E+03  0.7818608E-02  0.1247477E+00
          2   -1    0    0  502    0  0.00000000000E+00  0.00000000000E+00  0.87410629736E+03  0.87410629736E+03  0.00000000000E+00 0. -1.
          1   -1    0    0  501    0 -0.00000000000E+00 -0.00000000000E+00 -0.15445320330E+03  0.15445320330E+03  0.00000000000E+00 0. -1.
         25    2    1    2    0    0 -0.50009855449E+02  0.16051426436E+03  0.65203529925E+03  0.68486324646E+03  0.12498728007E+03 0.  0.
          2    1    1    2  501    0  0.11977061089E+03 -0.11341918122E+03 -0.72547977334E+02  0.18020021897E+03  0.00000000000E+00 0. -1.
          1    1    1    2  502    0 -0.69760755445E+02 -0.47095083140E+02  0.14016577214E+03  0.16349603523E+03  0.00000000000E+00 0. -1.
         22    1    3    3    0    0 -0.30501495184E+02  0.46203993982E+02  0.43753252388E+03  0.44102138238E+03  0.00000000000E+00 0.  1.
         22    1    3    3    0    0 -0.19508360265E+02  0.11431027038E+03  0.21450277537E+03  0.24384186407E+03  0.00000000000E+00 0.  1.
</event>
<event>
 7    1  0.4822463E-005  0.3450310E+03  0.7818608E-02  0.1088379E+00
          2   -1    0    0  502    0  0.00000000000E+00  0.00000000000E+00  0.20039734645E+04  0.20039734645E+04  0.00000000000E+00 0. -1.
          1   -1    0    0  501    0 -0.00000000000E+00 -0.00000000000E+00 -0.10800895137E+04  0.10800895137E+04  0.00000000000E+00 0. -1.
         25    2    1    2    0    0  0.43698530519E+03 -0.36501638863E+03 -0.57134879413E+03  0.81624525373E+03  0.12499499495E+03 0.  0.
          2    1    1    2  501    0 -0.23212657672E+03  0.93328491524E+02 -0.32832613985E+03  0.41278445835E+03  0.00000000000E+00 0. -1.
          1    1    1    2  502    0 -0.20485872847E+03  0.27168789711E+03  0.18235588848E+04  0.18550332661E+04  0.00000000000E+00 0. -1.
         22    1    3    3    0    0  0.30545805308E+03 -0.26132257775E+03 -0.47777970091E+03  0.62439374952E+03  0.00000000000E+00 0.  1.
         22    1    3    3    0    0  0.13152725212E+03 -0.10369381088E+03 -0.93569093217E+02  0.19185150422E+03  0.00000000000E+00 0.  1.
</event>
<event>
 7    1  0.4822463E-005  0.2154503E+03  0.7818608E-02  0.1244594E+00
          2   -1    0    0  502    0  0.00000000000E+00  0.00000000000E+00  0.53417784439E+03  0.53417784439E+03  0.00000000000E+00 0. -1.
          1   -1    0    0  501    0 -0.00000000000E+00 -0.00000000000E+00 -0.11315419207E+04  0.11315419207E+04  0.00000000000E+00 0. -1.
         25    2    1    2    0    0 -0.14700956057E+03  0.10853282008E+03 -0.10577978688E+04  0.10807187318E+04  0.12500184871E+03 0.  0.
          2    1    1    2  501    0  0.16235630613E+02  0.63801183883E+02 -0.10582388181E+02  0.66679634867E+02  0.00000000000E+00 0. -1.
          1    1    1    2  502    0  0.13077392996E+03 -0.17233400397E+03  0.47101618062E+03  0.51832139844E+03  0.00000000000E+00 0. -1.
         22    1    3    3    0    0 -0.18744039813E+02  0.86972790017E+02 -0.35441332065E+03  0.36540991651E+03  0.00000000000E+00 0. -1.
         22    1    3    3    0    0 -0.12826552076E+03  0.21560030068E+02 -0.70338454813E+03  0.71530881531E+03  0.00000000000E+00 0. -1.
</event>
<event>
 7    1  0.4822463E-005  0.7509613E+02  0.7818608E-02  0.1343772E+00
          2   -1    0    0  502    0  0.00000000000E+00  0.00000000000E+00  0.15601225090E+04  0.15601225090E+04  0.00000000000E+00 0. -1.
          1   -1    0    0  501    0 -0.00000000000E+00 -0.00000000000E+00 -0.57263651987E+02  0.57263651987E+02  0.00000000000E+00 0. -1.
         25    2    1    2    0    0 -0.13269730944E+02 -0.38509564629E+02  0.70936231679E+03  0.72144025125E+03  0.12498826869E+03 0.  0.
          2    1    1    2  501    0  0.59105943850E+02 -0.46324032090E+02 -0.19230100637E+02  0.77519193223E+02  0.00000000000E+00 0. -1.
          1    1    1    2  502    0 -0.45836212906E+02  0.84833596719E+02  0.81272664086E+03  0.81842671652E+03  0.00000000000E+00 0. -1.
         22    1    3    3    0    0 -0.67685061772E+02 -0.58660822640E+01  0.37795461771E+03  0.38401220235E+03  0.00000000000E+00 0. -1.
         22    1    3    3    0    0  0.54415330828E+02 -0.32643482365E+02  0.33140769908E+03  0.33742804889E+03  0.00000000000E+00 0. -1.
</event>
<event>
 7    1  0.4822463E-005  0.1347955E+04  0.7818608E-02  0.1147452E+00
          2   -1    0    0  502    0  0.00000000000E+00  0.00000000000E+00  0.20513995953E+04  0.20513995953E+04  0.00000000000E+00 0. -1.
          1   -1    0    0  501    0 -0.00000000000E+00 -0.00000000000E+00 -0.15553548993E+04  0.15553548993E+04  0.00000000000E+00 0. -1.
         25    2    1    2    0    0  0.11690828535E+04  0.65139058711E+03  0.24653740692E+03  0.13665540313E+04  0.12499924812E+03 0.  0.
          2    1    1    2  501    0  0.26521848942E+02 -0.15044036172E+02 -0.62646785322E+03  0.62720945674E+03  0.00000000000E+00 0. -1.
          1    1    1    2  502    0 -0.11956047025E+04 -0.63634655094E+03  0.87597514226E+03  0.16129910066E+04  0.00000000000E+00 0. -1.
         22    1    3    3    0    0  0.41760212407E+03  0.18580225783E+03  0.40667997590E+02  0.45887677983E+03  0.00000000000E+00 0.  1.
         22    1    3    3    0    0  0.75148072945E+03  0.46558832929E+03  0.20586940933E+03  0.90767725145E+03  0.00000000000E+00 0.  1.
</event>
<event>
 7    1  0.4822463E-005  0.4018499E+03  0.7818608E-02  0.1268101E+00
          2   -1    0    0  502    0  0.00000000000E+00  0.00000000000E+00  0.77316317240E+03  0.77316317240E+03  0.00000000000E+00 0. -1.
          1   -1    0    0  501    0 -0.00000000000E+00 -0.00000000000E+00 -0.12736023755E+04  0.12736023755E+04  0.00000000000E+00 0. -1.
         25    2    1    2    0    0  0.13005941308E+03 -0.37631152976E+03 -0.15862217066E+03  0.44644295575E+03  0.12499800540E+03 0.  0.
          2    1    1    2  501    0  0.27417925765E+02  0.55661269166E+01 -0.90636997033E+03  0.90680165832E+03  0.00000000000E+00 0. -1.
          1    1    1    2  502    0 -0.15747733885E+03  0.37074540284E+03  0.56455293789E+03  0.69352093383E+03  0.00000000000E+00 0. -1.
         22    1    3    3    0    0  0.21789850935E+02 -0.21262144911E+03 -0.12416758723E+03  0.24718468388E+03  0.00000000000E+00 0.  1.
         22    1    3    3    0    0  0.10826956215E+03 -0.16369008065E+03 -0.34454583435E+02  0.19925827187E+03  0.00000000000E+00 0.  1.
</event>
<event>
 7    1  0.4822463E-005  0.9992998E+02  0.7818608E-02  0.1292947E+00
          2   -1    0    0  502    0  0.00000000000E+00  0.00000000000E+00  0.58718640528E+03  0.58718640528E+03  0.00000000000E+00 0. -1.
          1   -1    0    0  501    0 -0.00000000000E+00 -0.00000000000E+00 -0.60782562460E+02  0.60782562460E+02  0.00000000000E+00 0. -1.
         25    2    1    2    0    0 -0.17448501708E+02  0.25831364429E+02  0.33349552062E+03  0.35751515555E+03  0.12500445821E+03 0.  0.
          2    1    1    2  501    0 -0.56478166661E+02 -0.93068619326E+02  0.60429539167E+02  0.12451216975E+03  0.00000000000E+00 0. -1.
          1    1    1    2  502    0  0.73926668369E+02  0.67237254897E+02  0.13247878303E+03  0.16594164244E+03  0.00000000000E+00 0. -1.
         22    1    3    3    0    0 -0.17909710599E+02  0.53750388284E+02  0.59716880928E+02  0.82316267179E+02  0.00000000000E+00 0. -1.
         22    1    3    3    0    0  0.46120889104E+00 -0.27919023855E+02  0.27377863970E+03  0.27519888837E+03  0.00000000000E+00 0. -1.
</event>
<event>
 7    1  0.4822463E-005  0.2399086E+03  0.7818608E-02  0.1209785E+00
          2   -1    0    0  502    0  0.00000000000E+00  0.00000000000E+00  0.46098936178E+03  0.46098936178E+03  0.00000000000E+00 0. -1.
          1   -1    0    0  501    0 -0.00000000000E+00 -0.00000000000E+00 -0.45392622188E+03  0.45392622188E+03  0.00000000000E+00 0. -1.
         25    2    1    2    0    0  0.14247144018E+03  0.26114674982E+03 -0.12210057571E+03  0.34501011982E+03  0.12501078346E+03 0.  0.
          2    1    1    2  501    0 -0.10306950298E+03 -0.18601177617E+03 -0.16155203526E+03  0.26706321988E+03  0.00000000000E+00 0. -1.
          1    1    1    2  502    0 -0.39401937208E+02 -0.75134973645E+02  0.29071575086E+03  0.30284224395E+03  0.00000000000E+00 0. -1.
         22    1    3    3    0    0 -0.17931165279E+02  0.23292867152E+02  0.73046762368E+01  0.30289315663E+02  0.00000000000E+00 0.  1.
         22    1    3    3    0    0  0.16040260546E+03  0.23785388267E+03 -0.12940525194E+03  0.31472080416E+03  0.00000000000E+00 0.  1.
</event>
<event>
 7    1  0.4822463E-005  0.6656910E+03  0.7818608E-02  0.9852978E-01
          2   -1    0    0  502    0  0.00000000000E+00  0.00000000000E+00  0.21925495924E+04  0.21925495924E+04  0.00000000000E+00 0. -1.
          1   -1    0    0  501    0 -0.00000000000E+00 -0.00000000000E+00 -0.94728862632E+03  0.94728862632E+03  0.00000000000E+00 0. -1.
         25    2    1    2    0    0 -0.50844499339E+03  0.10560535534E+04 -0.34929739082E+02  0.11792409879E+04  0.12499520825E+03 0.  0.
          2    1    1    2  501    0  0.35943878501E+03 -0.46608866756E+03  0.53170213180E+02  0.59098388960E+03  0.00000000000E+00 0. -1.
          1    1    1    2  502    0  0.14900620838E+03 -0.58996488580E+03  0.12270204920E+04  0.13696133412E+04  0.00000000000E+00 0. -1.
         22    1    3    3    0    0 -0.57696760307E+01  0.75124624216E+02 -0.15053543359E+02  0.76834936668E+02  0.00000000000E+00 0. -1.
         22    1    3    3    0    0 -0.50267531736E+03  0.98092892915E+03 -0.19876195723E+02  0.11024060513E+04  0.00000000000E+00 0. -1.
</event>
<event>
 7    1  0.4822463E-005  0.3602319E+03  0.7818608E-02  0.1240617E+00
          2   -1    0    0  502    0  0.00000000000E+00  0.00000000000E+00  0.48233615643E+03  0.48233615643E+03  0.00000000000E+00 0. -1.
          1   -1    0    0  501    0 -0.00000000000E+00 -0.00000000000E+00 -0.10234062297E+04  0.10234062297E+04  0.00000000000E+00 0. -1.
         25    2    1    2    0    0  0.32299832021E+03 -0.16725165534E+03  0.12369958047E+03  0.40401601792E+03  0.12500530169E+03 0.  0.
          2    1    1    2  501    0  0.11126526039E+02  0.39451781969E+02 -0.73585848452E+03  0.73699928896E+03  0.00000000000E+00 0. -1.
          1    1    1    2  502    0 -0.33412484625E+03  0.12779987337E+03  0.71088830744E+02  0.36472707930E+03  0.00000000000E+00 0. -1.
         22    1    3    3    0    0  0.26698384847E+03 -0.11366195930E+03  0.45163947158E+02  0.29366511277E+03  0.00000000000E+00 0.  1.
         22    1    3    3    0    0  0.56014471740E+02 -0.53589696038E+02  0.78535633313E+02  0.11035090514E+03  0.00000000000E+00 0.  1.
</event>
<event>
 7    1  0.4822463E-005  0.5270928E+03  0.7818608E-02  0.1102028E+00
          2   -1    0    0  502    0  0.00000000000E+00  0.00000000000E+00  0.43864306223E+03  0.43864306223E+03  0.00000000000E+00 0. -1.
          1   -1    0    0  501    0 -0.00000000000E+00 -0.00000000000E+00 -0.13377386570E+04  0.13377386570E+04  0.00000000000E+00 0. -1.
         25    2    1    2    0    0  0.51348753718E+03 -0.43739522025E+02 -0.60411746755E+03  0.80384415862E+03  0.12499968048E+03 0.  0.
          2    1    1    2  501    0 -0.99591337195E+01 -0.13661084461E+03 -0.40408589484E+03  0.42666979929E+03  0.00000000000E+00 0. -1.
          1    1    1    2  502    0 -0.50352840346E+03  0.18035036664E+03  0.10910776767E+03  0.54586776128E+03  0.00000000000E+00 0. -1.
         22    1    3    3    0    0  0.12666204705E+03  0.43034832118E+02 -0.14647569294E+03  0.19836935136E+03  0.00000000000E+00 0. -1.
         22    1    3    3    0    0  0.38682549012E+03 -0.86774354143E+02 -0.45764177461E+03  0.60547480725E+03  0.00000000000E+00 0. -1.
</event>
<event>
 7    1  0.4822463E-005  0.5133863E+03  0.7818608E-02  0.1150945E+00
          2   -1    0    0  502    0  0.00000000000E+00  0.00000000000E+00  0.38603719667E+03  0.38603719667E+03  0.00000000000E+00 0. -1.
          1   -1    0    0  501    0 -0.00000000000E+00 -0.00000000000E+00 -0.92808666879E+03  0.92808666879E+03  0.00000000000E+00 0. -1.
         25    2    1    2    0    0 -0.46045081454E+03  0.22336538200E+03 -0.36415179513E+03  0.64042046120E+03  0.12499916300E+03 0.  0.
          2    1    1    2  501    0  0.49480193009E+03 -0.15466549383E+03 -0.24344581361E+03  0.57272701104E+03  0.00000000000E+00 0. -1.
          1    1    1    2  502    0 -0.34351115557E+02 -0.68699888168E+02  0.65548136624E+02  0.10097639323E+03  0.00000000000E+00 0. -1.
         22    1    3    3    0    0 -0.29526010183E+03  0.14127678164E+03 -0.30314024549E+03  0.44612965066E+03  0.00000000000E+00 0. -1.
         22    1    3    3    0    0 -0.16519071271E+03  0.82088600352E+02 -0.61011549645E+02  0.19429081055E+03  0.00000000000E+00 0. -1.
</event>
<event>
 7    1  0.4822463E-005  0.4596186E+03  0.7818608E-02  0.1179530E+00
          2   -1    0    0  502    0  0.00000000000E+00  0.00000000000E+00  0.11238169070E+04  0.11238169070E+04  0.00000000000E+00 0. -1.
          1   -1    0    0  501    0 -0.00000000000E+00 -0.00000000000E+00 -0.38310353294E+03  0.38310353294E+03  0.00000000000E+00 0. -1.
         25    2    1    2    0    0  0.37576099242E+03  0.31087614440E+03  0.30237807569E+03  0.58727967517E+03  0.12499846248E+03 0.  0.
          2    1    1    2  501    0 -0.62723241890E+01 -0.61378116194E+02 -0.16114240753E+03  0.17254996581E+03  0.00000000000E+00 0. -1.
          1    1    1    2  502    0 -0.36948866823E+03 -0.24949802821E+03  0.59947770595E+03  0.74709079901E+03  0.00000000000E+00 0. -1.
         22    1    3    3    0    0  0.28248316998E+03  0.18688505276E+03  0.25836247686E+03  0.42599757477E+03  0.00000000000E+00 0.  1.
         22    1    3    3    0    0  0.93277822441E+02  0.12399109164E+03  0.44015598833E+02  0.16128210039E+03  0.00000000000E+00 0.  1.
</event>
<event>
 7    1  0.4822463E-005  0.1414019E+03  0.7818608E-02  0.1278978E+00
          2   -1    0    0  502    0  0.00000000000E+00  0.00000000000E+00  0.18220532058E+04  0.18220532058E+04  0.00000000000E+00 0. -1.
          1   -1    0    0  501    0 -0.00000000000E+00 -0.00000000000E+00 -0.25272131873E+02  0.25272131873E+02  0.00000000000E+00 0. -1.
         25    2    1    2    0    0 -0.20495868345E+02  0.93257403793E+02  0.38532621099E+03  0.41619403922E+03  0.12499666168E+03 0.  0.
          2    1    1    2  501    0  0.27756773992E+02  0.66015514406E+02  0.30790983760E+03  0.31612806699E+03  0.00000000000E+00 0. -1.
          1    1    1    2  502    0 -0.72609056471E+01 -0.15927291820E+03  0.11035450253E+04  0.11150032314E+04  0.00000000000E+00 0. -1.
         22    1    3    3    0    0  0.48427507958E+02  0.11447582159E+02  0.10652355534E+03  0.11757354510E+03  0.00000000000E+00 0.  1.
         22    1    3    3    0    0 -0.68923376303E+02  0.81809821634E+02  0.27880265565E+03  0.29862049413E+03  0.00000000000E+00 0.  1.
</event>
<event>
 7    1  0.4822463E-005  0.1109469E+04  0.7818608E-02  0.1195454E+00
          2   -1    0    0  502    0  0.00000000000E+00  0.00000000000E+00  0.48297579400E+03  0.48297579400E+03  0.00000000000E+00 0. -1.
          1   -1    0    0  501    0 -0.00000000000E+00 -0.00000000000E+00 -0.27258880076E+04  0.27258880076E+04  0.00000000000E+00 0. -1.
         25    2    1    2    0    0  0.14220629506E+03 -0.11078909386E+04 -0.10487247515E+04  0.15372356498E+04  0.12499950593E+03 0.  0.
          2    1    1    2  501    0 -0.17095689398E+02  0.12905699115E+02 -0.15623317099E+03  0.15769471577E+03  0.00000000000E+00 0. -1.
          1    1    1    2  502    0 -0.12511060566E+03  0.10949852395E+04 -0.10379542911E+04  0.15139334360E+04  0.00000000000E+00 0. -1.
         22    1    3    3    0    0  0.92849975553E+01 -0.34117426602E+03 -0.38467181903E+03  0.51425528615E+03  0.00000000000E+00 0.  1.
         22    1    3    3    0    0  0.13292129750E+03 -0.76671667255E+03 -0.66405293248E+03  0.10229803637E+04  0.00000000000E+00 0.  1.
</event>
<event>
 7    1  0.4822463E-005  0.2667610E+03  0.7818608E-02  0.1213765E+00
          2   -1    0    0  502    0  0.00000000000E+00  0.00000000000E+00  0.14154465765E+04  0.14154465765E+04  0.00000000000E+00 0. -1.
          1   -1    0    0  501    0 -0.00000000000E+00 -0.00000000000E+00 -0.50865701912E+03  0.50865701912E+03  0.00000000000E+00 0. -1.
         25    2    1    2    0    0 -0.23412215784E+03  0.17594826702E+03  0.48824044592E+03  0.58289978181E+03  0.12498978016E+03 0.  0.
          2    1    1    2  501    0  0.24444127247E+03 -0.10354541918E+03 -0.42141599079E+03  0.49806086657E+03  0.00000000000E+00 0. -1.
          1    1    1    2  502    0 -0.10319114631E+02 -0.72402847848E+02  0.83996510228E+03  0.84314294729E+03  0.00000000000E+00 0. -1.
         22    1    3    3    0    0 -0.15890134296E+03  0.11069734584E+03  0.41907554530E+03  0.46165772152E+03  0.00000000000E+00 0. -1.
         22    1    3    3    0    0 -0.75220814875E+02  0.65250921181E+02  0.69164900618E+02  0.12124206029E+03  0.00000000000E+00 0. -1.
</event>
<event>
 7    1  0.4822463E-005  0.2201577E+03  0.7818608E-02  0.1192352E+00
          2   -1    0    0  502    0  0.00000000000E+00  0.00000000000E+00  0.12348132995E+03  0.12348132995E+03  0.00000000000E+00 0. -1.
          1   -1    0    0  501    0 -0.00000000000E+00 -0.00000000000E+00 -0.75704922381E+03  0.75704922381E+03  0.00000000000E+00 0. -1.
         25    2    1    2    0    0 -0.10292604112E+03 -0.18879678849E+03 -0.26959014149E+03  0.36680000712E+03  0.12500161418E+03 0.  0.
          2    1    1    2  501    0  0.19773650182E+03  0.12977104879E+03 -0.30934021372E+03  0.38939904607E+03  0.00000000000E+00 0. -1.
          1    1    1    2  502    0 -0.94810460694E+02  0.59025739697E+02 -0.54637538658E+02  0.12433150057E+03  0.00000000000E+00 0. -1.
         22    1    3    3    0    0 -0.22552282721E+02  0.54334024787E+01 -0.81477583200E+02  0.84715546876E+02  0.00000000000E+00 0.  1.
         22    1    3    3    0    0 -0.80373758403E+02 -0.19423019097E+03 -0.18811255829E+03  0.28208446024E+03  0.00000000000E+00 0.  1.
</event>
<event>
 7    1  0.4822463E-005  0.3858054E+03  0.7818608E-02  0.1086351E+00
          2   -1    0    0  502    0  0.00000000000E+00  0.00000000000E+00  0.90150171850E+03  0.90150171850E+03  0.00000000000E+00 0. -1.
          1   -1    0    0  501    0 -0.00000000000E+00 -0.00000000000E+00 -0.33721370200E+04  0.33721370200E+04  0.00000000000E+00 0. -1.
         25    2    1    2    0    0  0.88329169836E+02 -0.45241154908E+03 -0.34371869643E+02  0.47883405303E+03  0.12498949128E+03 0.  0.
          2    1    1    2  501    0 -0.25192305113E+03  0.29095364103E+03 -0.30837797436E+04  0.31077028095E+04  0.00000000000E+00 0. -1.
          1    1    1    2  502    0  0.16359388129E+03  0.16145790805E+03  0.64751631173E+03  0.68710187601E+03  0.00000000000E+00 0. -1.
         22    1    3    3    0    0 -0.29638452003E+02 -0.13865462356E+03 -0.21302239820E+02  0.14337826855E+03  0.00000000000E+00 0.  1.
         22    1    3    3    0    0  0.11796762184E+03 -0.31375692552E+03 -0.13069629823E+02  0.33545578448E+03  0.00000000000E+00 0.  1.
</event>
<event>
 7    1  0.4822463E-005  0.5982168E+03  0.7818608E-02  0.1076142E+00
          2   -1    0    0  502    0  0.00000000000E+00  0.00000000000E+00  0.91079253198E+03  0.91079253198E+03  0.00000000000E+00 0. -1.
          1   -1    0    0  501    0 -0.00000000000E+00 -0.00000000000E+00 -0.81673945137E+03  0.81673945137E+03  0.00000000000E+00 0. -1.
         25    2    1    2    0    0  0.40671609061E+03 -0.29196761392E+03  0.84667110824E+02  0.52293124441E+03  0.12500200312E+03 0.  0.
          2    1    1    2  501    0 -0.57328367246E+03  0.32612838014E+03 -0.39299951592E+03  0.76776461820E+03  0.00000000000E+00 0. -1.
          1    1    1    2  502    0  0.16656758185E+03 -0.34160766220E+02  0.40238548571E+03  0.43683612074E+03  0.00000000000E+00 0. -1.
         22    1    3    3    0    0  0.83018888591E+01 -0.27293105098E+02 -0.17984984903E+02  0.33723799111E+02  0.00000000000E+00 0. -1.
         22    1    3    3    0    0  0.39841420175E+03 -0.26467450882E+03  0.10265209573E+03  0.48920744530E+03  0.00000000000E+00 0. -1.
</event>
<event>
 7    1  0.4822463E-005  0.2602045E+03  0.7818608E-02  0.1241828E+00
          2   -1    0    0  502    0  0.00000000000E+00  0.00000000000E+00  0.35677557260E+03  0.35677557260E+03  0.00000000000E+00 0. -1.
          1   -1    0    0  501    0 -0.00000000000E+00 -0.00000000000E+00 -0.12042555806E+04  0.12042555806E+04  0.00000000000E+00 0. -1.
         25    2    1    2    0    0  0.28366849574E+03  0.44538853469E+02 -0.20981244648E+03  0.37696268742E+03  0.12501231966E+03 0.  0.
          2    1    1    2  501    0 -0.24170701428E+03 -0.81707503480E+02 -0.88986294298E+03  0.92571834495E+03  0.00000000000E+00 0. -1.
          1    1    1    2  502    0 -0.41961481462E+02  0.37168650011E+02  0.25219538149E+03  0.25835012079E+03  0.00000000000E+00 0. -1.
         22    1    3    3    0    0  0.21338777334E+02  0.31263156037E+02  0.42883862269E+01  0.38093550635E+02  0.00000000000E+00 0. -1.
         22    1    3    3    0    0  0.26232971841E+03  0.13275697431E+02 -0.21410083270E+03  0.33886913679E+03  0.00000000000E+00 0. -1.
</event>
<event>
 7    1  0.4822463E-005  0.1900381E+03  0.7818608E-02  0.1225851E+00
          2   -1    0    0  502    0  0.00000000000E+00  0.00000000000E+00  0.55133099041E+03  0.55133099041E+03  0.00000000000E+00 0. -1.
          1   -1    0    0  501    0 -0.00000000000E+00 -0.00000000000E+00 -0.19894280166E+04  0.19894280166E+04  0.00000000000E+00 0. -1.
         25    2    1    2    0    0  0.14501910680E+03  0.12874748942E+03 -0.12662999371E+04  0.12871467757E+04  0.12499933706E+03 0.  0.
          2    1    1    2  501    0 -0.72719463616E+02 -0.18305418403E+03 -0.69514403886E+03  0.72251103068E+03  0.00000000000E+00 0. -1.
          1    1    1    2  502    0 -0.72299643184E+02  0.54306694616E+02  0.52334694974E+03  0.53110120061E+03  0.00000000000E+00 0. -1.
         22    1    3    3    0    0  0.12535883196E+03  0.61323352091E+02 -0.55064656249E+03  0.56805547884E+03  0.00000000000E+00 0. -1.
         22    1    3    3    0    0  0.19660274838E+02  0.67424137327E+02 -0.71565337457E+03  0.71909129687E+03  0.00000000000E+00 0. -1.
</event>
<event>
 7    1  0.4822463E-005  0.1273462E+03  0.7818608E-02  0.1288623E+00
          2   -1    0    0  502    0  0.00000000000E+00  0.00000000000E+00  0.99875933887E+02  0.99875933887E+02  0.00000000000E+00 0. -1.
          1   -1    0    0  501    0 -0.00000000000E+00 -0.00000000000E+00 -0.25418682021E+04  0.25418682021E+04  0.00000000000E+00 0. -1.
         25    2    1    2    0    0 -0.24625170108E+02 -0.13033487054E+03 -0.38779605818E+03  0.42849045131E+03  0.12499882656E+03 0.  0.
          2    1    1    2  501    0 -0.63146384932E+02  0.35792783768E+02 -0.20803577239E+04  0.20816236088E+04  0.00000000000E+00 0. -1.
          1    1    1    2  502    0  0.87771555040E+02  0.94542086776E+02  0.26161513942E+02  0.13163007581E+03  0.00000000000E+00 0. -1.
         22    1    3    3    0    0  0.32498963156E+01 -0.13249498428E+03 -0.37502091810E+03  0.39775139434E+03  0.00000000000E+00 0. -1.
         22    1    3    3    0    0 -0.27875066423E+02  0.21601137333E+01 -0.12775140080E+02  0.30739056972E+02  0.00000000000E+00 0. -1.
</event>
<event>
 7    1  0.6141386E-005  0.1941987E+03  0.7818608E-02  0.1181579E+00
          2   -1    0    0  502    0  0.00000000000E+00  0.00000000000E+00  0.16983944063E+04  0.16983944063E+04  0.00000000000E+00 0. -1.
          1   -1    0    0  501    0 -0.00000000000E+00 -0.00000000000E+00 -0.13158180818E+04  0.13158180818E+04  0.00000000000E+00 0. -1.
         25    2    1    2    0    0 -0.24856098888E+03  0.10743001501E+03 -0.27260175796E+03  0.40404354996E+03  0.12496278847E+03 0.  0.
          2    1    1    2  501    0  0.18662147559E+03  0.21129189403E+02 -0.96530928969E+03  0.98341041410E+03  0.00000000000E+00 0. -1.
          1    1    1    2  502    0  0.61939513288E+02 -0.12855920441E+03  0.16204873721E+04  0.16267585241E+04  0.00000000000E+00 0. -1.
         22    1    3    3    0    0 -0.24634608585E+03  0.12301685547E+03 -0.27372664996E+03  0.38825998975E+03  0.00000000000E+00 0.  1.
         22    1    3    3    0    0 -0.22149030326E+01 -0.15586840461E+02  0.11248919943E+01  0.15783560213E+02  0.00000000000E+00 0.  1.
</event>
<event>
 7    1  0.4822463E-005  0.4638567E+03  0.7818608E-02  0.1046932E+00
          2   -1    0    0  502    0  0.00000000000E+00  0.00000000000E+00  0.23315538938E+04  0.23315538938E+04  0.00000000000E+00 0. -1.
          1   -1    0    0  501    0 -0.00000000000E+00 -0.00000000000E+00 -0.25574500487E+03  0.25574500487E+03  0.00000000000E+00 0. -1.
         25    2    1    2    0    0  0.55252093440E+03  0.34484047246E+03  0.51951711601E+03  0.84244686685E+03  0.12499742091E+03 0.  0.
          2    1    1    2  501    0 -0.23259278976E+03 -0.26545792059E+03  0.36069136327E+03  0.50464400620E+03  0.00000000000E+00 0. -1.
          1    1    1    2  502    0 -0.31992814465E+03 -0.79382551869E+02  0.11956004097E+04  0.12402080257E+04  0.00000000000E+00 0. -1.
         22    1    3    3    0    0  0.34856340689E+03  0.16878618017E+03  0.24767592598E+03  0.45970489180E+03  0.00000000000E+00 0. -1.
         22    1    3    3    0    0  0.20395752752E+03  0.17605429229E+03  0.27184119003E+03  0.38274197505E+03  0.00000000000E+00 0. -1.
</event>
<event>
 7    1  0.4822463E-005  0.5726169E+03  0.7818608E-02  0.1202587E+00
          2   -1    0    0  502    0  0.00000000000E+00  0.00000000000E+00  0.12136410261E+04  0.12136410261E+04  0.00000000000E+00 0. -1.
          1   -1    0    0  501    0 -0.00000000000E+00 -0.00000000000E+00 -0.46130432607E+03  0.46130432607E+03  0.00000000000E+00 0. -1.
         25    2    1    2    0    0 -0.37911678059E+03 -0.44846326023E+03  0.15061463225E+01  0.60039763889E+03  0.12500490877E+03 0.  0.
          2    1    1    2  501    0  0.34844580484E+03  0.42535168263E+03  0.30836472611E+03  0.63041838261E+03  0.00000000000E+00 0. -1.
          1    1    1    2  502    0  0.30670975746E+02  0.23111577597E+02  0.44246582763E+03  0.44412933070E+03  0.00000000000E+00 0. -1.
         22    1    3    3    0    0 -0.85333115492E+02 -0.69386189737E+02  0.45010881674E+02  0.11883670895E+03  0.00000000000E+00 0. -1.
         22    1    3    3    0    0 -0.29378366509E+03 -0.37907707049E+03 -0.43504735351E+02  0.48156092994E+03  0.00000000000E+00 0. -1.
</event>
<event>
 7    1  0.4822463E-005  0.1012322E+03  0.7818608E-02  0.1295614E+00
          2   -1    0    0  502    0  0.00000000000E+00  0.00000000000E+00  0.23020590922E+03  0.23020590922E+03  0.00000000000E+00 0. -1.
          1   -1    0    0  501    0 -0.00000000000E+00 -0.00000000000E+00 -0.11581461549E+04  0.11581461549E+04  0.00000000000E+00 0. -1.
         25    2    1    2    0    0 -0.71772528029E+02  0.19989935611E+02  0.16142659270E+03  0.21733416105E+03  0.12499879769E+03 0.  0.
          2    1    1    2  501    0 -0.59874517892E+02  0.81627236213E+02 -0.94613676697E+03  0.95153704363E+03  0.00000000000E+00 0. -1.
          1    1    1    2  502    0  0.13164704592E+03 -0.10161717182E+03 -0.14323007142E+03  0.21948085946E+03  0.00000000000E+00 0. -1.
         22    1    3    3    0    0  0.26510028641E+02  0.37223391128E+02  0.53020192337E+02  0.69996451775E+02  0.00000000000E+00 0. -1.
         22    1    3    3    0    0 -0.98282556670E+02 -0.17233455518E+02  0.10840640037E+03  0.14733770928E+03  0.00000000000E+00 0. -1.
</event>
<event>
 7    1  0.4822463E-005  0.3746352E+02  0.7818608E-02  0.1540580E+00
          2   -1    0    0  502    0  0.00000000000E+00  0.00000000000E+00  0.58913237838E+03  0.58913237838E+03  0.00000000000E+00 0. -1.
          1   -1    0    0  501    0 -0.00000000000E+00 -0.00000000000E+00 -0.67071720158E+03  0.67071720158E+03  0.00000000000E+00 0. -1.
         25    2    1    2    0    0 -0.33899785391E+02 -0.44332894798E+00 -0.27235840981E+02  0.13234835591E+03  0.12499961715E+03 0.  0.
          2    1    1    2  501    0  0.20811063205E+02 -0.31412378119E+02 -0.58977061132E+03  0.59097310584E+03  0.00000000000E+00 0. -1.
          1    1    1    2  502    0  0.13088722187E+02  0.31855707067E+02  0.53542162910E+03  0.53652811821E+03  0.00000000000E+00 0. -1.
         22    1    3    3    0    0  0.24800832407E+02 -0.10103035368E+01 -0.60133865118E+02  0.65055236033E+02  0.00000000000E+00 0.  1.
         22    1    3    3    0    0 -0.58700617798E+02  0.56697458878E+00  0.32898024137E+02  0.67293119872E+02  0.00000000000E+00 0.  1.
</event>
<event>
 7    1  0.4822463E-005  0.8263417E+02  0.7818608E-02  0.1412819E+00
          2   -1    0    0  502    0  0.00000000000E+00  0.00000000000E+00  0.16516372535E+02  0.16516372535E+02  0.00000000000E+00 0. -1.
          1   -1    0    0  501    0 -0.00000000000E+00 -0.00000000000E+00 -0.21831676668E+04  0.21831676668E+04  0.00000000000E+00 0. -1.
         25    2    1    2    0    0 -0.55424428519E+02 -0.10185754629E+03 -0.18976307705E+04  0.19052753099E+04  0.12499855356E+03 0.  0.
          2    1    1    2  501    0  0.26348117163E+02  0.28381107372E+02 -0.65581552268E+02  0.76162001888E+02  0.00000000000E+00 0. -1.
          1    1    1    2  502    0  0.29076311356E+02  0.73476438916E+02 -0.20343897153E+03  0.21824672757E+03  0.00000000000E+00 0. -1.
         22    1    3    3    0    0 -0.47758547554E+02 -0.34403333190E+02 -0.15477672931E+04  0.15488860713E+04  0.00000000000E+00 0. -1.
         22    1    3    3    0    0 -0.76658809650E+01 -0.67454213098E+02 -0.34986347733E+03  0.35638923857E+03  0.00000000000E+00 0. -1.
</event>
<event>
 7    1  0.4822463E-005  0.4737784E+03  0.7818608E-02  0.1107737E+00
          2   -1    0    0  502    0  0.00000000000E+00  0.00000000000E+00  0.26159611604E+04  0.26159611604E+04  0.00000000000E+00 0. -1.
          1   -1    0    0  501    0 -0.00000000000E+00 -0.00000000000E+00 -0.73078170988E+03  0.73078170988E+03  0.00000000000E+00 0. -1.
         25    2    1    2    0    0 -0.15538454776E+02 -0.51699415643E+03  0.28681311378E+03  0.60449418326E+03  0.12500821572E+03 0.  0.
          2    1    1    2  501    0 -0.12378977824E+03  0.68756563499E+02 -0.53728006823E+03  0.55562689454E+03  0.00000000000E+00 0. -1.
          1    1    1    2  502    0  0.13932823302E+03  0.44823759293E+03  0.21356464049E+04  0.21866217924E+04  0.00000000000E+00 0. -1.
         22    1    3    3    0    0  0.24076456394E+02 -0.45388268632E+03  0.22247702991E+03  0.50604861183E+03  0.00000000000E+00 0.  1.
         22    1    3    3    0    0 -0.39614911170E+02 -0.63111470107E+02  0.64336083875E+02  0.98445571431E+02  0.00000000000E+00 0.  1.
</event>
<event>
 7    1  0.4822463E-005  0.2121568E+03  0.7818608E-02  0.1276551E+00
          2   -1    0    0  502    0  0.00000000000E+00  0.00000000000E+00  0.18950873035E+03  0.18950873035E+03  0.00000000000E+00 0. -1.
          1   -1    0    0  501    0 -0.00000000000E+00 -0.00000000000E+00 -0.15597335473E+04  0.15597335473E+04  0.00000000000E+00 0. -1.
         25    2    1    2    0    0 -0.88536428672E+01 -0.24029524952E+03 -0.90125571724E+03  0.94112180251E+03  0.12501274080E+03 0.  0.
          2    1    1    2  501    0  0.80915159079E+01  0.19145187253E+03 -0.62023550104E+03  0.64916205132E+03  0.00000000000E+00 0. -1.
          1    1    1    2  502    0  0.76212695930E+00  0.48843376984E+02  0.15126640137E+03  0.15895842380E+03  0.00000000000E+00 0. -1.
         22    1    3    3    0    0  0.82773665246E+01 -0.12189600773E+03 -0.66688179534E+03  0.67798118001E+03  0.00000000000E+00 0. -1.
         22    1    3    3    0    0 -0.17131009392E+02 -0.11839924179E+03 -0.23437392190E+03  0.26314062250E+03  0.00000000000E+00 0. -1.
</event>
<event>
 7    1  0.4822463E-005  0.2650978E+03  0.7818608E-02  0.1250903E+00
          2   -1    0    0  502    0  0.00000000000E+00  0.00000000000E+00  0.97273217978E+03  0.97273217978E+03  0.00000000000E+00 0. -1.
          1   -1    0    0  501    0 -0.00000000000E+00 -0.00000000000E+00 -0.28129085432E+03  0.28129085432E+03  0.00000000000E+00 0. -1.
         25    2    1    2    0    0  0.31050290908E+03 -0.22432887060E+02 -0.13794616405E+03  0.36272461160E+03  0.12499883485E+03 0.  0.
          2    1    1    2  501    0 -0.49911298721E+02  0.56118006852E+01  0.57046603878E+02  0.76006217252E+02  0.00000000000E+00 0. -1.
          1    1    1    2  502    0 -0.26059161036E+03  0.16821086375E+02  0.77234088563E+03  0.81529220526E+03  0.00000000000E+00 0. -1.
         22    1    3    3    0    0  0.24026544667E+03  0.35341047264E+02 -0.11618010050E+03  0.26921049429E+03  0.00000000000E+00 0.  1.
         22    1    3    3    0    0  0.70237462407E+02 -0.57773934324E+02 -0.21766063555E+02  0.93514117305E+02  0.00000000000E+00 0.  1.
</event>
<event>
 7    1  0.4822463E-005  0.1808570E+03  0.7818608E-02  0.1278072E+00
          2   -1    0    0  502    0  0.00000000000E+00  0.00000000000E+00  0.26434056526E+04  0.26434056526E+04  0.00000000000E+00 0. -1.
          1   -1    0    0  501    0 -0.00000000000E+00 -0.00000000000E+00 -0.33218346068E+03  0.33218346068E+03  0.00000000000E+00 0. -1.
         25    2    1    2    0    0  0.66297467913E+02 -0.18802891548E+03  0.73335755438E+03  0.77018756981E+03  0.12500145122E+03 0.  0.
          2    1    1    2  501    0 -0.10493457782E+03  0.14683717879E+03 -0.28735304671E+03  0.33932903817E+03  0.00000000000E+00 0. -1.
          1    1    1    2  502    0  0.38637109909E+02  0.41191736698E+02  0.18652176842E+04  0.18660725053E+04  0.00000000000E+00 0. -1.
         22    1    3    3    0    0 -0.28149473889E+02 -0.73995260484E+02  0.35869434442E+03  0.36732727121E+03  0.00000000000E+00 0. -1.
         22    1    3    3    0    0  0.94446941802E+02 -0.11403365500E+03  0.37466320996E+03  0.40286029860E+03  0.00000000000E+00 0. -1.
</event>
<event>
 7    1  0.4822463E-005  0.3547478E+03  0.7818608E-02  0.1105624E+00
          2   -1    0    0  502    0  0.00000000000E+00  0.00000000000E+00  0.70924487456E+03  0.70924487456E+03  0.00000000000E+00 0. -1.
          1   -1    0    0  501    0 -0.00000000000E+00 -0.00000000000E+00 -0.14322335648E+04  0.14322335648E+04  0.00000000000E+00 0. -1.
         25    2    1    2    0    0  0.98533241338E+02 -0.13996944944E+03 -0.12167289151E+04  0.12350525717E+04  0.12500142293E+03 0.  0.
          2    1    1    2  501    0  0.14838766705E+03 -0.12544245258E+03 -0.94025147503E+02  0.21585976235E+03  0.00000000000E+00 0. -1.
          1    1    1    2  502    0 -0.24692090839E+03  0.26541190202E+03  0.58776537238E+03  0.69056610524E+03  0.00000000000E+00 0. -1.
         22    1    3    3    0    0  0.11770280655E+02  0.22577845752E+02 -0.21673882726E+03  0.21822927821E+03  0.00000000000E+00 0. -1.
         22    1    3    3    0    0  0.86762960683E+02 -0.16254729519E+03 -0.99999008781E+03  0.10168232935E+04  0.00000000000E+00 0. -1.
</event>
<event>
 7    1  0.4822463E-005  0.1221981E+03  0.7818608E-02  0.1306974E+00
          2   -1    0    0  502    0  0.00000000000E+00  0.00000000000E+00  0.73826301556E+03  0.73826301556E+03  0.00000000000E+00 0. -1.
          1   -1    0    0  501    0 -0.00000000000E+00 -0.00000000000E+00 -0.42924767523E+03  0.42924767523E+03  0.00000000000E+00 0. -1.
         25    2    1    2    0    0 -0.12528945142E+03  0.44699791927E+02 -0.78482809987E+02  0.19870339592E+03  0.12501187965E+03 0.  0.
          2    1    1    2  501    0  0.81828252763E+02 -0.91451986593E+02 -0.27610149691E+03  0.30214461007E+03  0.00000000000E+00 0. -1.
          1    1    1    2  502    0  0.43461198655E+02  0.46752194666E+02  0.66359964723E+03  0.66666268479E+03  0.00000000000E+00 0. -1.
         22    1    3    3    0    0 -0.56614417494E+02 -0.42050569532E+02 -0.18780475648E+02  0.72980469522E+02  0.00000000000E+00 0.  1.
         22    1    3    3    0    0 -0.68675033924E+02  0.86750361459E+02 -0.59702334339E+02  0.12572292640E+03  0.00000000000E+00 0.  1.
</event>
<event>
 7    1  0.4822463E-005  0.1196886E+03  0.7818608E-02  0.1301978E+00
          2   -1    0    0  502    0  0.00000000000E+00  0.00000000000E+00  0.12096551026E+04  0.12096551026E+04  0.00000000000E+00 0. -1.
          1   -1    0    0  501    0 -0.00000000000E+00 -0.00000000000E+00 -0.90886443006E+02  0.90886443006E+02  0.00000000000E+00 0. -1.
         25    2    1    2    0    0  0.66890050750E+02 -0.16353226514E+03  0.19757073878E+03  0.29304753482E+03  0.12500232083E+03 0.  0.
          2    1    1    2  501    0 -0.13402314997E+01  0.68207368956E+02 -0.10164955653E+02  0.68973674136E+02  0.00000000000E+00 0. -1.
          1    1    1    2  502    0 -0.65549819251E+02  0.95324896185E+02  0.93136287651E+03  0.93852033669E+03  0.00000000000E+00 0. -1.
         22    1    3    3    0    0  0.99514210584E+02 -0.93951374508E+02  0.10356119398E+03  0.17162418180E+03  0.00000000000E+00 0. -1.
         22    1    3    3    0    0 -0.32624159834E+02 -0.69580890633E+02  0.94009544796E+02  0.12142335302E+03  0.00000000000E+00 0. -1.
</event>
<event>
 7    1  0.4822463E-005  0.5386972E+03  0.7818608E-02  0.1020371E+00
          2   -1    0    0  502    0  0.00000000000E+00  0.00000000000E+00  0.13590115957E+04  0.13590115957E+04  0.00000000000E+00 0. -1.
          1   -1    0    0  501    0 -0.00000000000E+00 -0.00000000000E+00 -0.74974751387E+03  0.74974751387E+03  0.00000000000E+00 0. -1.
         25    2    1    2    0    0 -0.57745471801E+03 -0.30375090146E+03  0.79471902066E+02  0.66906391015E+03  0.12494867410E+03 0.  0.
          2    1    1    2  501    0  0.51980260937E+03 -0.11204094402E+03 -0.22392711900E+03  0.57696731317E+03  0.00000000000E+00 0. -1.
          1    1    1    2  502    0  0.57652108649E+02  0.41579184547E+03  0.75371929872E+03  0.86272788621E+03  0.00000000000E+00 0. -1.
         22    1    3    3    0    0 -0.12900595232E+03 -0.10553431228E+03  0.63936359663E+02  0.17851578331E+03  0.00000000000E+00 0.  1.
         22    1    3    3    0    0 -0.44844876569E+03 -0.19821658918E+03  0.15535542404E+02  0.49054812685E+03  0.00000000000E+00 0.  1.
</event>
<event>
 7    1  0.4822463E-005  0.3371181E+03  0.7818608E-02  0.1120140E+00
          2   -1    0    0  502    0  0.00000000000E+00  0.00000000000E+00  0.13950770795E+03  0.13950770795E+03  0.00000000000E+00 0. -1.
          1   -1    0    0  501    0 -0.00000000000E+00 -0.00000000000E+00 -0.19623229122E+04  0.19623229122E+04  0.00000000000E+00 0. -1.
         25    2    1    2    0    0  0.42322409473E+03  0.10104439628E+03 -0.10803361728E+04  0.11713569172E+04  0.12498870672E+03 0.  0.
          2    1    1    2  501    0 -0.28140114657E+03 -0.70923182332E+01 -0.70094843104E+03  0.75535793453E+03  0.00000000000E+00 0. -1.
          1    1    1    2  502    0 -0.14182294817E+03 -0.93952078050E+02 -0.41530600447E+02  0.17511576848E+03  0.00000000000E+00 0. -1.
         22    1    3    3    0    0  0.13641509081E+03  0.92080219468E+02 -0.35382578366E+03  0.39023137880E+03  0.00000000000E+00 0.  1.
         22    1    3    3    0    0  0.28680900392E+03  0.89641768152E+01 -0.72651038912E+03  0.78112553838E+03  0.00000000000E+00 0.  1.
</event>
<event>
 7    1  0.4822463E-005  0.6257574E+03  0.7818608E-02  0.1064844E+00
          2   -1    0    0  502    0  0.00000000000E+00  0.00000000000E+00  0.28826911789E+03  0.28826911789E+03  0.00000000000E+00 0. -1.
          1   -1    0    0  501    0 -0.00000000000E+00 -0.00000000000E+00 -0.28602698166E+04  0.28602698166E+04  0.00000000000E+00 0. -1.
         25    2    1    2    0    0  0.32951166637E+03 -0.59004958433E+03 -0.97577224653E+03  0.11935214271E+04  0.12500187800E+03 0.  0.
          2    1    1    2  501    0 -0.43143877927E+03  0.42994756993E+03 -0.16491064391E+04  0.17579949888E+04  0.00000000000E+00 0. -1.
          1    1    1    2  502    0  0.10192711289E+03  0.16010201440E+03  0.52877986913E+02  0.19702251865E+03  0.00000000000E+00 0. -1.
         22    1    3    3    0    0  0.23199641927E+03 -0.29272596629E+03 -0.50099130741E+03  0.62490248839E+03  0.00000000000E+00 0. -1.
         22    1    3    3    0    0  0.97515247109E+02 -0.29732361803E+03 -0.47478093912E+03  0.56861893866E+03  0.00000000000E+00 0. -1.
</event>
<event>
 7    1  0.4822463E-005  0.3024677E+03  0.7818608E-02  0.1114449E+00
          2   -1    0    0  502    0  0.00000000000E+00  0.00000000000E+00  0.18799605552E+03  0.18799605552E+03  0.00000000000E+00 0. -1.
          1   -1    0    0  501    0 -0.00000000000E+00 -0.00000000000E+00 -0.13542094240E+04  0.13542094240E+04  0.00000000000E+00 0. -1.
         25    2    1    2    0    0  0.39961762689E+02  0.34274940523E+03 -0.43639237601E+03  0.57020800631E+03  0.12499906945E+03 0.  0.
          2    1    1    2  501    0 -0.18813490398E+03 -0.78002805540E+02 -0.61459662594E+03  0.64746288880E+03  0.00000000000E+00 0. -1.
          1    1    1    2  502    0  0.14817314129E+03 -0.26474659969E+03 -0.11522436657E+03  0.32453458444E+03  0.00000000000E+00 0. -1.
         22    1    3    3    0    0  0.72001911845E+02  0.14457343282E+03 -0.14969592950E+03  0.22021494975E+03  0.00000000000E+00 0.  1.
         22    1    3    3    0    0 -0.32040149156E+02  0.19817597241E+03 -0.28669644651E+03  0.34999305656E+03  0.00000000000E+00 0.  1.
</event>
<event>
 7    1  0.4822463E-005  0.2702755E+03  0.7818608E-02  0.1232781E+00
          2   -1    0    0  502    0  0.00000000000E+00  0.00000000000E+00  0.16373834372E+04  0.16373834372E+04  0.00000000000E+00 0. -1.
          1   -1    0    0  501    0 -0.00000000000E+00 -0.00000000000E+00 -0.85665595946E+03  0.85665595946E+03  0.00000000000E+00 0. -1.
         25    2    1    2    0    0  0.25254392564E+03 -0.34240480348E+02  0.29854171572E+03  0.41195093541E+03  0.12500228914E+03 0.  0.
          2    1    1    2  501    0  0.67495666330E+01 -0.58798332569E+02 -0.78402569496E+03  0.78625637735E+03  0.00000000000E+00 0. -1.
          1    1    1    2  502    0 -0.25929349227E+03  0.93038812917E+02  0.12662114570E+04  0.12958320839E+04  0.00000000000E+00 0. -1.
         22    1    3    3    0    0  0.23241385925E+02  0.37043099158E+02  0.46597842253E+02  0.63903928812E+02  0.00000000000E+00 0.  1.
         22    1    3    3    0    0  0.22930253971E+03 -0.71283579507E+02  0.25194387346E+03  0.34804700660E+03  0.00000000000E+00 0.  1.
</event>
<event>
 7    1  0.4822463E-005  0.3542610E+03  0.7818608E-02  0.1100018E+00
          2   -1    0    0  502    0  0.00000000000E+00  0.00000000000E+00  0.15643708239E+04  0.15643708239E+04  0.00000000000E+00 0. -1.
          1   -1    0    0  501    0 -0.00000000000E+00 -0.00000000000E+00 -0.20205005927E+03  0.20205005927E+03  0.00000000000E+00 0. -1.
         25    2    1    2    0    0 -0.33488873344E+03 -0.79278559880E+01  0.10118588210E+04  0.10731724690E+04  0.12501023865E+03 0.  0.
          2    1    1    2  501    0  0.31285117265E+03 -0.20007910324E+03  0.14098846571E+03  0.39722191688E+03  0.00000000000E+00 0. -1.
          1    1    1    2  502    0  0.22037560787E+02  0.20800695923E+03  0.20947347783E+03  0.29602649727E+03  0.00000000000E+00 0. -1.
         22    1    3    3    0    0 -0.87071150488E+01  0.67335830112E+01  0.11909649511E+01  0.11071286744E+02  0.00000000000E+00 0.  1.
         22    1    3    3    0    0 -0.32618161839E+03 -0.14661438999E+02  0.10106678561E+04  0.10621011822E+04  0.00000000000E+00 0.  1.
</event>
<event>
 7    1  0.4822463E-005  0.3301437E+03  0.7818608E-02  0.1325409E+00
          2   -1    0    0  502    0  0.00000000000E+00  0.00000000000E+00  0.87195728680E+03  0.87195728680E+03  0.00000000000E+00 0. -1.
          1   -1    0    0  501    0 -0.00000000000E+00 -0.00000000000E+00 -0.15994336829E+03  0.15994336829E+03  0.00000000000E+00 0. -1.
         25    2    1    2    0    0 -0.32843585811E+03 -0.87641839306E+02  0.25764786599E+03  0.44447669950E+03  0.12500363458E+03 0.  0.
          2    1    1    2  501    0  0.18124791135E+02 -0.85013691642E+01 -0.86504955966E+01  0.21808539736E+02  0.00000000000E+00 0. -1.
          1    1    1    2  502    0  0.31031106697E+03  0.96143208470E+02  0.46301654812E+03  0.56561541585E+03  0.00000000000E+00 0. -1.
         22    1    3    3    0    0 -0.24151900418E+03 -0.11965988349E+03  0.19381733619E+03  0.33198656133E+03  0.00000000000E+00 0.  1.
         22    1    3    3    0    0 -0.86916853924E+02  0.32018044185E+02  0.63830529806E+02  0.11249013817E+03  0.00000000000E+00 0.  1.
</event>
<event>
 7    1  0.4822463E-005  0.3882400E+03  0.7818608E-02  0.1102364E+00
          2   -1    0    0  502    0  0.00000000000E+00  0.00000000000E+00  0.19825726383E+04  0.19825726383E+04  0.00000000000E+00 0. -1.
          1   -1    0    0  501    0 -0.00000000000E+00 -0.00000000000E+00 -0.34441163151E+03  0.34441163151E+03  0.00000000000E+00 0. -1.
         25    2    1    2    0    0 -0.48630873159E+03 -0.24386037588E+02 -0.62399085976E+01  0.50274645931E+03  0.12499681850E+03 0.  0.
          2    1    1    2  501    0  0.12209079437E+03  0.13919996411E+03  0.60258086949E+02  0.19471473781E+03  0.00000000000E+00 0. -1.
          1    1    1    2  502    0  0.36421793722E+03 -0.11481392652E+03  0.15841428284E+04  0.16295230727E+04  0.00000000000E+00 0. -1.
         22    1    3    3    0    0 -0.43633468770E+03 -0.17483087073E+02 -0.45182347855E+02  0.43901601631E+03  0.00000000000E+00 0.  1.
         22    1    3    3    0    0 -0.49974043897E+02 -0.69029505153E+01  0.38942439257E+02  0.63730442997E+02  0.00000000000E+00 0.  1.
</event>
<event>
 7    1  0.4822463E-005  0.5957681E+03  0.7818608E-02  0.1037764E+00
          2   -1    0    0  502    0  0.00000000000E+00  0.00000000000E+00  0.29973536479E+04  0.29973536479E+04  0.00000000000E+00 0. -1.
          1   -1    0    0  501    0 -0.00000000000E+00 -0.00000000000E+00 -0.54083678092E+03  0.54083678092E+03  0.00000000000E+00 0. -1.
         25    2    1    2    0    0 -0.14363728503E+03  0.73296505322E+03  0.27690436842E+03  0.80633792017E+03  0.12504148655E+03 0.  0.
          2    1    1    2  501    0  0.26070731097E+03 -0.46427734237E+03 -0.15706866948E+00  0.53246763028E+03  0.00000000000E+00 0. -1.
          1    1    1    2  502    0 -0.11707002594E+03 -0.26868771085E+03  0.21797695672E+04  0.21993848784E+04  0.00000000000E+00 0. -1.
         22    1    3    3    0    0 -0.10787202504E+03  0.25071895170E+03  0.82297283925E+02  0.28507754992E+03  0.00000000000E+00 0. -1.
         22    1    3    3    0    0 -0.35765259989E+02  0.48224610152E+03  0.19460708449E+03  0.52126037025E+03  0.00000000000E+00 0. -1.
</event>
<event>
 7    1  0.4822463E-005  0.4627238E+03  0.7818608E-02  0.1140351E+00
          2   -1    0    0  502    0  0.00000000000E+00  0.00000000000E+00  0.24472397787E+04  0.24472397787E+04  0.00000000000E+00 0. -1.
          1   -1    0    0  501    0 -0.00000000000E+00 -0.00000000000E+00 -0.49400522419E+03  0.49400522419E+03  0.00000000000E+00 0. -1.
         25    2    1    2    0    0 -0.51359709938E+03 -0.11417500955E+03  0.43744528137E+03  0.69555771615E+03  0.12499699597E+03 0.  0.
          2    1    1    2  501    0  0.65551908235E+02  0.71103078156E+02 -0.33099934677E+03  0.34483803148E+03  0.00000000000E+00 0. -1.
          1    1    1    2  502    0  0.44804519115E+03  0.43071931397E+02  0.18467886199E+04  0.19008492552E+04  0.00000000000E+00 0. -1.
         22    1    3    3    0    0 -0.32242787392E+03 -0.79086355598E+02  0.35007886615E+03  0.48246201721E+03  0.00000000000E+00 0. -1.
         22    1    3    3    0    0 -0.19116922546E+03 -0.35088653956E+02  0.87366415227E+02  0.21309569895E+03  0.00000000000E+00 0. -1.
</event>
<event>
 7    1  0.4822463E-005  0.6266920E+03  0.7818608E-02  0.1123264E+00
          2   -1    0    0  502    0  0.00000000000E+00  0.00000000000E+00  0.26870272523E+04  0.26870272523E+04  0.00000000000E+00 0. -1.
          1   -1    0    0  501    0 -0.00000000000E+00 -0.00000000000E+00 -0.36238210129E+03  0.36238210129E+03  0.00000000000E+00 0. -1.
         25    2    1    2    0    0 -0.44912584501E+03  0.44882823831E+03  0.97333605520E+03  0.11688318537E+04  0.12499605516E+03 0.  0.
          2    1    1    2  501    0  0.73101396012E+02  0.49023496896E+02 -0.19456673146E+03  0.21354936277E+03  0.00000000000E+00 0. -1.
          1    1    1    2  502    0  0.37602444900E+03 -0.49785173520E+03  0.15458758273E+04  0.16670281371E+04  0.00000000000E+00 0. -1.
         22    1    3    3    0    0 -0.36805151713E+03  0.39077660076E+03  0.73228115554E+03  0.90796693867E+03  0.00000000000E+00 0. -1.
         22    1    3    3    0    0 -0.81074327875E+02  0.58051637550E+02  0.24105489965E+03  0.26086491506E+03  0.00000000000E+00 0. -1.
</event>
<event>
 7    1  0.4822463E-005  0.5229994E+03  0.7818608E-02  0.1079083E+00
          2   -1    0    0  502    0  0.00000000000E+00  0.00000000000E+00  0.66529098992E+03  0.66529098992E+03  0.00000000000E+00 0. -1.
          1   -1    0    0  501    0 -0.00000000000E+00 -0.00000000000E+00 -0.88828977043E+03  0.88828977043E+03  0.00000000000E+00 0. -1.
         25    2    1    2    0    0 -0.47022265610E+03 -0.33764057039E+03 -0.27896337958E+03  0.65464085948E+03  0.12499434653E+03 0.  0.
          2    1    1    2  501    0  0.29166769427E+03  0.39286731071E+03 -0.24303317153E+03  0.54633313113E+03  0.00000000000E+00 0. -1.
          1    1    1    2  502    0  0.17855496184E+03 -0.55226740325E+02  0.29899777060E+03  0.35260676974E+03  0.00000000000E+00 0. -1.
         22    1    3    3    0    0 -0.17237634562E+03 -0.11212588775E+03 -0.35380511667E+02  0.20865665539E+03  0.00000000000E+00 0.  1.
         22    1    3    3    0    0 -0.29784631049E+03 -0.22551468263E+03 -0.24358286791E+03  0.44598420409E+03  0.00000000000E+00 0.  1.
</event>
<event>
 7    1  0.4822463E-005  0.1369435E+04  0.7818608E-02  0.1080059E+00
          2   -1    0    0  502    0  0.00000000000E+00  0.00000000000E+00  0.21225214584E+04  0.21225214584E+04  0.00000000000E+00 0. -1.
          1   -1    0    0  501    0 -0.00000000000E+00 -0.00000000000E+00 -0.24884315417E+04  0.24884315417E+04  0.00000000000E+00 0. -1.
         25    2    1    2    0    0  0.82571378116E+03 -0.11194126091E+04  0.35494009221E+03  0.14410048618E+04  0.12499881916E+03 0.  0.
          2    1    1    2  501    0 -0.70229290990E+02 -0.55298309765E+01 -0.15694836184E+04  0.15710638309E+04  0.00000000000E+00 0. -1.
          1    1    1    2  502    0 -0.75548449017E+03  0.11249424401E+04  0.84863344284E+03  0.15988843075E+04  0.00000000000E+00 0. -1.
         22    1    3    3    0    0  0.12274670214E+03 -0.10361311045E+03  0.26849745684E+02  0.16285987347E+03  0.00000000000E+00 0.  1.
         22    1    3    3    0    0  0.70296707902E+03 -0.10157994987E+04  0.32809034652E+03  0.12781449883E+04  0.00000000000E+00 0.  1.
</event>
<event>
 7    1  0.4822463E-005  0.4769789E+03  0.7818608E-02  0.1162127E+00
          2   -1    0    0  502    0  0.00000000000E+00  0.00000000000E+00  0.19083762209E+04  0.19083762209E+04  0.00000000000E+00 0. -1.
          1   -1    0    0  501    0 -0.00000000000E+00 -0.00000000000E+00 -0.17838862093E+04  0.17838862093E+04  0.00000000000E+00 0. -1.
         25    2    1    2    0    0 -0.31078539738E+03  0.43251591887E+03 -0.13151873001E+04  0.14244297153E+04  0.12499918394E+03 0.  0.
          2    1    1    2  501    0  0.68832893358E+02 -0.22846459019E+02 -0.38006357698E+03  0.38692150424E+03  0.00000000000E+00 0. -1.
          1    1    1    2  502    0  0.24195250402E+03 -0.40966945985E+03  0.18197408887E+04  0.18809112107E+04  0.00000000000E+00 0. -1.
         22    1    3    3    0    0 -0.20779516771E+03  0.27135185412E+03 -0.67979910771E+03  0.76087941705E+03  0.00000000000E+00 0. -1.
         22    1    3    3    0    0 -0.10299022966E+03  0.16116406475E+03 -0.63538819242E+03  0.66355029820E+03  0.00000000000E+00 0. -1.
</event>
<event>
 7    1  0.4822463E-005  0.9915402E+03  0.7818608E-02  0.1106919E+00
          2   -1    0    0  502    0  0.00000000000E+00  0.00000000000E+00  0.41939767710E+04  0.41939767710E+04  0.00000000000E+00 0. -1.
          1   -1    0    0  501    0 -0.00000000000E+00 -0.00000000000E+00 -0.11515385328E+04  0.11515385328E+04  0.00000000000E+00 0. -1.
         25    2    1    2    0    0  0.80927344525E+03 -0.54074081782E+03 -0.41968618241E+03  0.10672791057E+04  0.12499622579E+03 0.  0.
          2    1    1    2  501    0 -0.87752469785E+03  0.53666694365E+03  0.24111665654E+03  0.10565028376E+04  0.00000000000E+00 0. -1.
          1    1    1    2  502    0  0.68251252592E+02  0.40738741721E+01  0.32210077641E+04  0.32217333605E+04  0.00000000000E+00 0. -1.
         22    1    3    3    0    0  0.69174740064E+03 -0.44210827426E+03 -0.30524694501E+03  0.87587093222E+03  0.00000000000E+00 0. -1.
         22    1    3    3    0    0  0.11752604461E+03 -0.98632543568E+02 -0.11443923740E+03  0.19140817346E+03  0.00000000000E+00 0. -1.
</event>
<event>
 7    1  0.4822463E-005  0.7427754E+03  0.7818608E-02  0.1161484E+00
          2   -1    0    0  502    0  0.00000000000E+00  0.00000000000E+00  0.11812053090E+04  0.11812053090E+04  0.00000000000E+00 0. -1.
          1   -1    0    0  501    0 -0.00000000000E+00 -0.00000000000E+00 -0.96940061758E+03  0.96940061758E+03  0.00000000000E+00 0. -1.
         25    2    1    2    0    0 -0.32079496073E+02  0.76584642816E+03 -0.21788998908E+03  0.80662904008E+03  0.12499806149E+03 0.  0.
          2    1    1    2  501    0  0.35113887167E+02 -0.71902315155E+03 -0.17225433908E+03  0.74020188791E+03  0.00000000000E+00 0. -1.
          1    1    1    2  502    0 -0.30343910941E+01 -0.46823276604E+02  0.60194901952E+03  0.60377499854E+03  0.00000000000E+00 0. -1.
         22    1    3    3    0    0  0.41278727519E+02  0.33058218103E+03 -0.12308633262E+03  0.35516018504E+03  0.00000000000E+00 0. -1.
         22    1    3    3    0    0 -0.73358223592E+02  0.43526424713E+03 -0.94803656459E+02  0.45146885504E+03  0.00000000000E+00 0. -1.
</event>
<event>
 7    1  0.4822463E-005  0.4747857E+03  0.7818608E-02  0.1186633E+00
          2   -1    0    0  502    0  0.00000000000E+00  0.00000000000E+00  0.14282095770E+04  0.14282095770E+04  0.00000000000E+00 0. -1.
          1   -1    0    0  501    0 -0.00000000000E+00 -0.00000000000E+00 -0.47465686912E+03  0.47465686912E+03  0.00000000000E+00 0. -1.
         25    2    1    2    0    0 -0.25229088291E+03  0.45176625533E+03  0.47839245571E+03  0.71569954063E+03  0.12499220668E+03 0.  0.
          2    1    1    2  501    0  0.21484674015E+03 -0.41125212356E+03 -0.20322299073E+03  0.50654418845E+03  0.00000000000E+00 0. -1.
          1    1    1    2  502    0  0.37444142753E+02 -0.40514131765E+02  0.67838324287E+03  0.68062271701E+03  0.00000000000E+00 0. -1.
         22    1    3    3    0    0 -0.64178902062E+02  0.51123177986E+02  0.35005831047E+02  0.89207169020E+02  0.00000000000E+00 0.  1.
         22    1    3    3    0    0 -0.18811198085E+03  0.40064307734E+03  0.44338662466E+03  0.62649237161E+03  0.00000000000E+00 0.  1.
</event>
<event>
 7    1  0.4822463E-005  0.4276237E+03  0.7818608E-02  0.1135820E+00
          2   -1    0    0  502    0  0.00000000000E+00  0.00000000000E+00  0.12360381836E+04  0.12360381836E+04  0.00000000000E+00 0. -1.
          1   -1    0    0  501    0 -0.00000000000E+00 -0.00000000000E+00 -0.44482944319E+03  0.44482944319E+03  0.00000000000E+00 0. -1.
         25    2    1    2    0    0  0.36619548422E+03  0.17609357690E+03  0.98783959581E+02  0.43645317751E+03  0.12500009998E+03 0.  0.
          2    1    1    2  501    0 -0.34501743019E+03 -0.28459194878E+03 -0.88318814464E+02  0.45588355688E+03  0.00000000000E+00 0. -1.
          1    1    1    2  502    0 -0.21178054034E+02  0.10849837188E+03  0.78074359534E+03  0.78853089245E+03  0.00000000000E+00 0. -1.
         22    1    3    3    0    0  0.16941935772E+03  0.16690507388E+02  0.20957724115E+02  0.17152468629E+03  0.00000000000E+00 0. -1.
         22    1    3    3    0    0  0.19677612650E+03  0.15940306951E+03  0.77826235466E+02  0.26492849121E+03  0.00000000000E+00 0. -1.
</event>
<event>
 7    1  0.4822463E-005  0.5689672E+02  0.7818608E-02  0.1468635E+00
          2   -1    0    0  502    0  0.00000000000E+00  0.00000000000E+00  0.17816533125E+04  0.17816533125E+04  0.00000000000E+00 0. -1.
          1   -1    0    0  501    0 -0.00000000000E+00 -0.00000000000E+00 -0.26675675670E+03  0.26675675670E+03  0.00000000000E+00 0. -1.
         25    2    1    2    0    0 -0.73329960685E+02  0.37780891138E+02  0.14237817346E+01  0.14977361660E+03  0.12500172081E+03 0.  0.
          2    1    1    2  501    0  0.36523553556E+02 -0.42214398788E+02 -0.18833065325E+03  0.19642927578E+03  0.00000000000E+00 0. -1.
          1    1    1    2  502    0  0.36806407129E+02  0.44335076492E+01  0.17018034273E+04  0.17022071768E+04  0.00000000000E+00 0. -1.
         22    1    3    3    0    0 -0.21661357428E+02  0.24789468003E-01  0.59522089010E+02  0.63341093299E+02  0.00000000000E+00 0. -1.
         22    1    3    3    0    0 -0.51668603257E+02  0.37756101670E+02 -0.58098307276E+02  0.86432523301E+02  0.00000000000E+00 0. -1.
</event>
<event>
 7    1  0.4822463E-005  0.1236766E+04  0.7818608E-02  0.1158647E+00
          2   -1    0    0  502    0  0.00000000000E+00  0.00000000000E+00  0.21970794548E+04  0.21970794548E+04  0.00000000000E+00 0. -1.
          1   -1    0    0  501    0 -0.00000000000E+00 -0.00000000000E+00 -0.18055915888E+04  0.18055915888E+04  0.00000000000E+00 0. -1.
         25    2    1    2    0    0 -0.25061497634E+01 -0.12427209786E+04  0.33957073064E+03  0.12943320433E+04  0.12500178376E+03 0.  0.
          2    1    1    2  501    0 -0.25433468278E+02  0.12344937486E+04 -0.10410059550E+04  0.16150278867E+04  0.00000000000E+00 0. -1.
          1    1    1    2  502    0  0.27939618041E+02  0.82272300007E+01  0.10929230904E+04  0.10933111136E+04  0.00000000000E+00 0. -1.
         22    1    3    3    0    0 -0.33577554965E+02 -0.27291955081E+03  0.34095269210E+02  0.27708305757E+03  0.00000000000E+00 0.  1.
         22    1    3    3    0    0  0.31071405201E+02 -0.96980142775E+03  0.30547546143E+03  0.10172489858E+04  0.00000000000E+00 0.  1.
</event>
<event>
 7    1  0.4822463E-005  0.7353374E+03  0.7818608E-02  0.1039823E+00
          2   -1    0    0  502    0  0.00000000000E+00  0.00000000000E+00  0.19824640743E+04  0.19824640743E+04  0.00000000000E+00 0. -1.
          1   -1    0    0  501    0 -0.00000000000E+00 -0.00000000000E+00 -0.28101963783E+04  0.28101963783E+04  0.00000000000E+00 0. -1.
         25    2    1    2    0    0  0.35414474653E+03  0.78754145173E+03  0.76979283897E+02  0.87589440764E+03  0.12500065397E+03 0.  0.
          2    1    1    2  501    0  0.73393669023E+02 -0.21843181235E+03 -0.23206047019E+04  0.23320174249E+04  0.00000000000E+00 0. -1.
          1    1    1    2  502    0 -0.42753841555E+03 -0.56910963938E+03  0.14158931140E+04  0.15847486201E+04  0.00000000000E+00 0. -1.
         22    1    3    3    0    0  0.33357498025E+03  0.75063435632E+03  0.10049249131E+03  0.82754029820E+03  0.00000000000E+00 0. -1.
         22    1    3    3    0    0  0.20569766276E+02  0.36907095412E+02 -0.23513207415E+02  0.48354109437E+02  0.00000000000E+00 0. -1.
</event>
<event>
 7    1  0.4822463E-005  0.9254586E+03  0.7818608E-02  0.1123812E+00
          2   -1    0    0  502    0  0.00000000000E+00  0.00000000000E+00  0.19213852517E+04  0.19213852517E+04  0.00000000000E+00 0. -1.
          1   -1    0    0  501    0 -0.00000000000E+00 -0.00000000000E+00 -0.31560320303E+04  0.31560320303E+04  0.00000000000E+00 0. -1.
         25    2    1    2    0    0  0.73512566518E+03  0.55038530497E+03 -0.25250019155E+04  0.26897198619E+04  0.12499813868E+03 0.  0.
          2    1    1    2  501    0 -0.79402245514E+03 -0.54441677066E+03 -0.12525486039E+03  0.97085017355E+03  0.00000000000E+00 0. -1.
          1    1    1    2  502    0  0.58896789956E+02 -0.59685343090E+01  0.14156099973E+04  0.14168472464E+04  0.00000000000E+00 0. -1.
         22    1    3    3    0    0  0.55190006927E+03  0.42796856193E+03 -0.20595635979E+04  0.21747535470E+04  0.00000000000E+00 0.  1.
         22    1    3    3    0    0  0.18322559591E+03  0.12241674305E+03 -0.46543831762E+03  0.51496631490E+03  0.00000000000E+00 0.  1.
</event>
<event>
 7    1  0.4822463E-005  0.9098167E+03  0.7818608E-02  0.1044807E+00
          2   -1    0    0  502    0  0.00000000000E+00  0.00000000000E+00  0.20060178385E+04  0.20060178385E+04  0.00000000000E+00 0. -1.
          1   -1    0    0  501    0 -0.00000000000E+00 -0.00000000000E+00 -0.17688580467E+04  0.17688580467E+04  0.00000000000E+00 0. -1.
         25    2    1    2    0    0  0.88053699240E+03  0.49569749180E+02 -0.64134851132E+03  0.10976130469E+04  0.12499573061E+03 0.  0.
          2    1    1    2  501    0 -0.92256112394E+03 -0.21766797912E+03 -0.64333271783E+03  0.11455895261E+04  0.00000000000E+00 0. -1.
          1    1    1    2  502    0  0.42024131533E+02  0.16809822994E+03  0.15218410210E+04  0.15316733123E+04  0.00000000000E+00 0. -1.
         22    1    3    3    0    0  0.76845238460E+03  0.59295009922E+02 -0.60353528176E+03  0.97892277628E+03  0.00000000000E+00 0.  1.
         22    1    3    3    0    0  0.11208460780E+03 -0.97252607412E+01 -0.37813229561E+02  0.11869027059E+03  0.00000000000E+00 0.  1.
</event>
<event>
 7    1  0.4822463E-005  0.4792880E+03  0.7818608E-02  0.1166279E+00
          2   -1    0    0  502    0  0.00000000000E+00  0.00000000000E+00  0.44590048038E+03  0.44590048038E+03  0.00000000000E+00 0. -1.
          1   -1    0    0  501    0 -0.00000000000E+00 -0.00000000000E+00 -0.12197589304E+04  0.12197589304E+04  0.00000000000E+00 0. -1.
         25    2    1    2    0    0 -0.37960766958E+03 -0.34108675499E+03  0.90209718822E+02  0.53310940982E+03  0.12500276888E+03 0.  0.
          2    1    1    2  501    0  0.31256896097E+03  0.35653103628E+03 -0.92577768168E+03  0.10401336698E+04  0.00000000000E+00 0. -1.
          1    1    1    2  502    0  0.67038708617E+02 -0.15444281288E+02  0.61709512873E+02  0.92416331114E+02  0.00000000000E+00 0. -1.
         22    1    3    3    0    0  0.96878541999E+00 -0.34387867474E+02  0.18621238547E+02  0.39117956230E+02  0.00000000000E+00 0. -1.
         22    1    3    3    0    0 -0.38057645500E+03 -0.30669888752E+03  0.71588480275E+02  0.49399145359E+03  0.00000000000E+00 0. -1.
</event>
<event>
 7    1  0.4822463E-005  0.1576980E+03  0.7818608E-02  0.1299580E+00
          2   -1    0    0  502    0  0.00000000000E+00  0.00000000000E+00  0.24952948763E+04  0.24952948763E+04  0.00000000000E+00 0. -1.
          1   -1    0    0  501    0 -0.00000000000E+00 -0.00000000000E+00 -0.21282393657E+02  0.21282393657E+02  0.00000000000E+00 0. -1.
         25    2    1    2    0    0  0.11358569863E+03  0.14331785414E+03  0.12905404314E+04  0.13094132410E+04  0.12500684901E+03 0.  0.
          2    1    1    2  501    0 -0.61142616733E+02 -0.13612756421E+03  0.50387161676E+03  0.52550522309E+03  0.00000000000E+00 0. -1.
          1    1    1    2  502    0 -0.52443081896E+02 -0.71902899231E+01  0.67960043446E+03  0.68165880588E+03  0.00000000000E+00 0. -1.
         22    1    3    3    0    0  0.10180876015E+01  0.21999147405E+02  0.55699210880E+03  0.55742731208E+03  0.00000000000E+00 0. -1.
         22    1    3    3    0    0  0.11256761103E+03  0.12131870673E+03  0.73354832262E+03  0.75198592891E+03  0.00000000000E+00 0. -1.
</event>
<event>
 7    1  0.4822463E-005  0.5168740E+03  0.7818608E-02  0.1121253E+00
          2   -1    0    0  502    0  0.00000000000E+00  0.00000000000E+00  0.56021735283E+03  0.56021735283E+03  0.00000000000E+00 0. -1.
          1   -1    0    0  501    0 -0.00000000000E+00 -0.00000000000E+00 -0.97547928620E+03  0.97547928620E+03  0.00000000000E+00 0. -1.
         25    2    1    2    0    0  0.74227578763E+01 -0.54883141818E+03 -0.56873420207E+03  0.80022254464E+03  0.12500602155E+03 0.  0.
          2    1    1    2  501    0 -0.72060145408E+02  0.46053844927E+03 -0.84325768762E+02  0.47370788793E+03  0.00000000000E+00 0. -1.
          1    1    1    2  502    0  0.64637387532E+02  0.88292968913E+02  0.23779803746E+03  0.26176620646E+03  0.00000000000E+00 0. -1.
         22    1    3    3    0    0 -0.55402563803E+02 -0.17306352312E+03 -0.19462145304E+03  0.26626666538E+03  0.00000000000E+00 0.  1.
         22    1    3    3    0    0  0.62825321679E+02 -0.37576789506E+03 -0.37411274903E+03  0.53395587926E+03  0.00000000000E+00 0.  1.
</event>
<event>
 7    1  0.4822463E-005  0.1345165E+03  0.7818608E-02  0.1225613E+00
          2   -1    0    0  502    0  0.00000000000E+00  0.00000000000E+00  0.34817729536E+03  0.34817729536E+03  0.00000000000E+00 0. -1.
          1   -1    0    0  501    0 -0.00000000000E+00 -0.00000000000E+00 -0.24988511421E+03  0.24988511421E+03  0.00000000000E+00 0. -1.
         25    2    1    2    0    0  0.87792716944E+02 -0.11328085053E+03  0.17066472700E+03  0.25551650701E+03  0.12498849573E+03 0.  0.
          2    1    1    2  501    0  0.38389613830E+02  0.13514639176E+03 -0.13947429250E+03  0.19796814876E+03  0.00000000000E+00 0. -1.
          1    1    1    2  502    0 -0.12618233077E+03 -0.21865541222E+02  0.67101746648E+02  0.14457775381E+03  0.00000000000E+00 0. -1.
         22    1    3    3    0    0 -0.12735215933E+02 -0.35203454340E+02 -0.58539898773E+01  0.37891135109E+02  0.00000000000E+00 0. -1.
         22    1    3    3    0    0  0.10052793288E+03 -0.78077396194E+02  0.17651871688E+03  0.21762537190E+03  0.00000000000E+00 0. -1.
</event>
<event>
 7    1  0.4822463E-005  0.1701225E+03  0.7818608E-02  0.1198694E+00
          2   -1    0    0  502    0  0.00000000000E+00  0.00000000000E+00  0.12808562394E+04  0.12808562394E+04  0.00000000000E+00 0. -1.
          1   -1    0    0  501    0 -0.00000000000E+00 -0.00000000000E+00 -0.39002802819E+03  0.39002802819E+03  0.00000000000E+00 0. -1.
         25    2    1    2    0    0  0.70330855674E+02 -0.71412143177E+02 -0.85571265690E+02  0.18163964717E+03  0.12499758581E+03 0.  0.
          2    1    1    2  501    0 -0.18449902344E+03 -0.54711918461E+02 -0.21339386127E+03  0.28735035010E+03  0.00000000000E+00 0. -1.
          1    1    1    2  502    0  0.11416816777E+03  0.12612406164E+03  0.11897933381E+04  0.12018942703E+04  0.00000000000E+00 0. -1.
         22    1    3    3    0    0 -0.21242247875E+02 -0.12678706712E+02  0.18652024810E+02  0.30981941969E+02  0.00000000000E+00 0.  1.
         22    1    3    3    0    0  0.91573103549E+02 -0.58733436466E+02 -0.10422329050E+03  0.15065770520E+03  0.00000000000E+00 0.  1.
</event>
<event>
 7    1  0.4822463E-005  0.4141582E+03  0.7818608E-02  0.1161867E+00
          2   -1    0    0  502    0  0.00000000000E+00  0.00000000000E+00  0.37819521777E+03  0.37819521777E+03  0.00000000000E+00 0. -1.
          1   -1    0    0  501    0 -0.00000000000E+00 -0.00000000000E+00 -0.35721815253E+04  0.35721815253E+04  0.00000000000E+00 0. -1.
         25    2    1    2    0    0  0.33959103592E+03  0.25035992762E+03 -0.32196135728E+04  0.32495444189E+04  0.12500082942E+03 0.  0.
          2    1    1    2  501    0 -0.25648476158E+03 -0.26094819007E+03 -0.22976250061E+03  0.43205230877E+03  0.00000000000E+00 0. -1.
          1    1    1    2  502    0 -0.83106274337E+02  0.10588262451E+02  0.25538976589E+03  0.26878001536E+03  0.00000000000E+00 0. -1.
         22    1    3    3    0    0  0.21693062703E+03  0.22089669269E+03 -0.24798687771E+04  0.24991205248E+04  0.00000000000E+00 0.  1.
         22    1    3    3    0    0  0.12266040889E+03  0.29463234927E+02 -0.73974479576E+03  0.75042389419E+03  0.00000000000E+00 0.  1.
</event>
<event>
 7    1  0.4822463E-005  0.2785625E+03  0.7818608E-02  0.1195065E+00
          2   -1    0    0  502    0  0.00000000000E+00  0.00000000000E+00  0.18838224457E+04  0.18838224457E+04  0.00000000000E+00 0. -1.
          1   -1    0    0  501    0 -0.00000000000E+00 -0.00000000000E+00 -0.11404057028E+03  0.11404057028E+03  0.00000000000E+00 0. -1.
         25    2    1    2    0    0 -0.10618125005E+03  0.23414533938E+03  0.16556769518E+03  0.33035806804E+03  0.12500117447E+03 0.  0.
          2    1    1    2  501    0  0.71426412261E+02  0.47316263225E+02  0.80295028282E+02  0.11742168752E+03  0.00000000000E+00 0. -1.
          1    1    1    2  502    0  0.34754837785E+02 -0.28146160260E+03  0.15239191520E+04  0.15500832604E+04  0.00000000000E+00 0. -1.
         22    1    3    3    0    0  0.12015559925E+02  0.54611037282E+02  0.83037478927E+02  0.10010974967E+03  0.00000000000E+00 0.  1.
         22    1    3    3    0    0 -0.11819680997E+03  0.17953430210E+03  0.82530216254E+02  0.23024831837E+03  0.00000000000E+00 0.  1.
</event>
<event>
 7    1  0.4822463E-005  0.3152005E+03  0.7818608E-02  0.1275564E+00
          2   -1    0    0  502    0  0.00000000000E+00  0.00000000000E+00  0.21584886756E+04  0.21584886756E+04  0.00000000000E+00 0. -1.
          1   -1    0    0  501    0 -0.00000000000E+00 -0.00000000000E+00 -0.19858677359E+03  0.19858677359E+03  0.00000000000E+00 0. -1.
         25    2    1    2    0    0 -0.26969971265E+03 -0.17029525869E+03  0.10335229336E+03  0.35783367763E+03  0.12499933668E+03 0.  0.
          2    1    1    2  501    0  0.24438606914E+03  0.19176454484E+03  0.26778495039E+03  0.41013043181E+03  0.00000000000E+00 0. -1.
          1    1    1    2  502    0  0.25313643512E+02 -0.21469286150E+02  0.15887646582E+04  0.15891113397E+04  0.00000000000E+00 0. -1.
         22    1    3    3    0    0 -0.25860758743E+03 -0.14045881443E+03  0.12458048146E+03  0.31957293250E+03  0.00000000000E+00 0.  1.
         22    1    3    3    0    0 -0.11092125222E+02 -0.29836444257E+02 -0.21228188101E+02  0.38260745130E+02  0.00000000000E+00 0.  1.
</event>
<event>
 7    1  0.4822463E-005  0.1381520E+03  0.7818608E-02  0.1263012E+00
          2   -1    0    0  502    0  0.00000000000E+00  0.00000000000E+00  0.27954432774E+04  0.27954432774E+04  0.00000000000E+00 0. -1.
          1   -1    0    0  501    0 -0.00000000000E+00 -0.00000000000E+00 -0.10666214771E+04  0.10666214771E+04  0.00000000000E+00 0. -1.
         25    2    1    2    0    0 -0.12173792429E+03 -0.67388787582E+02  0.27411719187E+04  0.27475461081E+04  0.12499903016E+03 0.  0.
          2    1    1    2  501    0 -0.11963936279E+02  0.84672425169E+02 -0.96920279077E+03  0.97296793626E+03  0.00000000000E+00 0. -1.
          1    1    1    2  502    0  0.13370186057E+03 -0.17283637586E+02 -0.43147327580E+02  0.14155071008E+03  0.00000000000E+00 0. -1.
         22    1    3    3    0    0 -0.49158362253E+02 -0.64065208375E+02  0.22044874365E+04  0.22059659456E+04  0.00000000000E+00 0. -1.
         22    1    3    3    0    0 -0.72579562034E+02 -0.33235792075E+01  0.53668448221E+03  0.54158016253E+03  0.00000000000E+00 0. -1.
</event>
<event>
 7    1  0.4822463E-005  0.2639185E+03  0.7818608E-02  0.1140416E+00
          2   -1    0    0  502    0  0.00000000000E+00  0.00000000000E+00  0.40404177383E+03  0.40404177383E+03  0.00000000000E+00 0. -1.
          1   -1    0    0  501    0 -0.00000000000E+00 -0.00000000000E+00 -0.10033185771E+04  0.10033185771E+04  0.00000000000E+00 0. -1.
         25    2    1    2    0    0 -0.22464421132E+03  0.35224933803E+03  0.16087572020E+03  0.46481231055E+03  0.12499947548E+03 0.  0.
          2    1    1    2  501    0  0.10790009519E+03 -0.22946380429E+03 -0.72694243508E+03  0.76989698788E+03  0.00000000000E+00 0. -1.
          1    1    1    2  502    0  0.11674411613E+03 -0.12278553374E+03 -0.33210088354E+02  0.17265105246E+03  0.00000000000E+00 0. -1.
         22    1    3    3    0    0  0.41325523887E+01  0.79704963227E+02  0.21528701384E+02  0.82664648644E+02  0.00000000000E+00 0.  1.
         22    1    3    3    0    0 -0.22877676371E+03  0.27254437481E+03  0.13934701881E+03  0.38214766191E+03  0.00000000000E+00 0.  1.
</event>
<event>
 7    1  0.4822463E-005  0.1473254E+03  0.7818608E-02  0.1300170E+00
          2   -1    0    0  502    0  0.00000000000E+00  0.00000000000E+00  0.19359825610E+04  0.19359825610E+04  0.00000000000E+00 0. -1.
          1   -1    0    0  501    0 -0.00000000000E+00 -0.00000000000E+00 -0.69221086713E+03  0.69221086713E+03  0.00000000000E+00 0. -1.
         25    2    1    2    0    0  0.21163329279E+02 -0.16864445334E+03  0.56210038450E+03  0.60039223011E+03  0.12500059830E+03 0.  0.
          2    1    1    2  501    0 -0.64275156258E+02  0.13235322704E+03 -0.66442728074E+03  0.68052353656E+03  0.00000000000E+00 0. -1.
          1    1    1    2  502    0  0.43111826979E+02  0.36291226301E+02  0.13460985902E+04  0.13472776615E+04  0.00000000000E+00 0. -1.
         22    1    3    3    0    0 -0.35821784077E+02 -0.10351934806E+03  0.19936351030E+03  0.22747585559E+03  0.00000000000E+00 0. -1.
         22    1    3    3    0    0  0.56985113356E+02 -0.65125105279E+02  0.36273687419E+03  0.37291637452E+03  0.00000000000E+00 0. -1.
</event>
<event>
 7    1  0.4822463E-005  0.5152085E+03  0.7818608E-02  0.1236468E+00
          2   -1    0    0  502    0  0.00000000000E+00  0.00000000000E+00  0.20208665467E+04  0.20208665467E+04  0.00000000000E+00 0. -1.
          1   -1    0    0  501    0 -0.00000000000E+00 -0.00000000000E+00 -0.75718402978E+03  0.75718402978E+03  0.00000000000E+00 0. -1.
         25    2    1    2    0    0 -0.50840621312E+03 -0.16289182456E+03 -0.68359974844E+02  0.55254895899E+03  0.12500656732E+03 0.  0.
          2    1    1    2  501    0  0.48139519524E+03  0.15007657652E+03 -0.30425742600E+03  0.58892859847E+03  0.00000000000E+00 0. -1.
          1    1    1    2  502    0  0.27011017882E+02  0.12815248044E+02  0.16362999178E+04  0.16365730190E+04  0.00000000000E+00 0. -1.
         22    1    3    3    0    0 -0.47585986436E+03 -0.18323904394E+03 -0.63577876155E+02  0.51386895612E+03  0.00000000000E+00 0. -1.
         22    1    3    3    0    0 -0.32546348762E+02  0.20347219375E+02 -0.47820986886E+01  0.38680002869E+02  0.00000000000E+00 0. -1.
</event>
<event>
 7    1  0.4822463E-005  0.6716778E+03  0.7818608E-02  0.1098613E+00
          2   -1    0    0  502    0  0.00000000000E+00  0.00000000000E+00  0.30704888460E+04  0.30704888460E+04  0.00000000000E+00 0. -1.
          1   -1    0    0  501    0 -0.00000000000E+00 -0.00000000000E+00 -0.12177457607E+04  0.12177457607E+04  0.00000000000E+00 0. -1.
         25    2    1    2    0    0  0.63142911623E+03 -0.71075521831E+02  0.18167582516E+04  0.19287276963E+04  0.12500209139E+03 0.  0.
          2    1    1    2  501    0  0.11019333301E+03 -0.21931123284E+02 -0.10418405540E+04  0.10478813314E+04  0.00000000000E+00 0. -1.
          1    1    1    2  502    0 -0.74162244924E+03  0.93006645115E+02  0.10778253877E+04  0.13116255790E+04  0.00000000000E+00 0. -1.
         22    1    3    3    0    0  0.15924712457E+01  0.11593262858E+01  0.77589717473E+02  0.77614716772E+02  0.00000000000E+00 0.  1.
         22    1    3    3    0    0  0.62983664499E+03 -0.72234848117E+02  0.17391685342E+04  0.18511129795E+04  0.00000000000E+00 0.  1.
</event>
<event>
 7    1  0.4822463E-005  0.1332711E+04  0.7818608E-02  0.1148051E+00
          2   -1    0    0  502    0  0.00000000000E+00  0.00000000000E+00  0.15528363500E+04  0.15528363500E+04  0.00000000000E+00 0. -1.
          1   -1    0    0  501    0 -0.00000000000E+00 -0.00000000000E+00 -0.22627489914E+04  0.22627489914E+04  0.00000000000E+00 0. -1.
         25    2    1    2    0    0  0.10505979946E+04 -0.81563771684E+03 -0.11751074367E+04  0.17791918188E+04  0.12500003551E+03 0.  0.
          2    1    1    2  501    0 -0.10383907988E+04  0.84372068590E+03 -0.21533833880E+03  0.13551718146E+04  0.00000000000E+00 0. -1.
          1    1    1    2  502    0 -0.12207195756E+02 -0.28082969055E+02  0.68053313419E+03  0.68122170804E+03  0.00000000000E+00 0. -1.
         22    1    3    3    0    0  0.78482095309E+03 -0.62795302653E+03 -0.81639889450E+03  0.12949038910E+04  0.00000000000E+00 0.  1.
         22    1    3    3    0    0  0.26577704146E+03 -0.18768469031E+03 -0.35870854224E+03  0.48428792781E+03  0.00000000000E+00 0.  1.
</event>
<event>
 7    1  0.4822463E-005  0.6281351E+03  0.7818608E-02  0.1054014E+00
          2   -1    0    0  502    0  0.00000000000E+00  0.00000000000E+00  0.15395463148E+04  0.15395463148E+04  0.00000000000E+00 0. -1.
          1   -1    0    0  501    0 -0.00000000000E+00 -0.00000000000E+00 -0.57873172452E+03  0.57873172452E+03  0.00000000000E+00 0. -1.
         25    2    1    2    0    0  0.52001697775E+03  0.49242348191E+03  0.37478992302E+03  0.81791938047E+03  0.12500433537E+03 0.  0.
          2    1    1    2  501    0  0.11117665080E+02 -0.21976952767E+03 -0.21076888010E+03  0.30470603635E+03  0.00000000000E+00 0. -1.
          1    1    1    2  502    0 -0.53113464283E+03 -0.27265395424E+03  0.79679354735E+03  0.99565262249E+03  0.00000000000E+00 0. -1.
         22    1    3    3    0    0  0.29805672958E+03  0.19627319676E+03  0.18067258069E+03  0.40000445401E+03  0.00000000000E+00 0.  1.
         22    1    3    3    0    0  0.22196024817E+03  0.29615028515E+03  0.19411734232E+03  0.41791492646E+03  0.00000000000E+00 0.  1.
</event>
<event>
 7    1  0.4822463E-005  0.1008604E+03  0.7818608E-02  0.1332631E+00
          2   -1    0    0  502    0  0.00000000000E+00  0.00000000000E+00  0.19296441583E+03  0.19296441583E+03  0.00000000000E+00 0. -1.
          1   -1    0    0  501    0 -0.00000000000E+00 -0.00000000000E+00 -0.63811549462E+03  0.63811549462E+03  0.00000000000E+00 0. -1.
         25    2    1    2    0    0  0.11923587076E+03  0.27314006294E+02  0.13368967826E+03  0.22013734336E+03  0.12499708819E+03 0.  0.
          2    1    1    2  501    0 -0.53957286564E+02 -0.29488466162E+02 -0.51814185052E+03  0.52177766881E+03  0.00000000000E+00 0. -1.
          1    1    1    2  502    0 -0.65278584193E+02  0.21744598690E+01 -0.60698906526E+02  0.89164898270E+02  0.00000000000E+00 0. -1.
         22    1    3    3    0    0 -0.43205962866E+01 -0.33487054160E+02  0.10469643500E+02  0.35350583921E+02  0.00000000000E+00 0.  1.
         22    1    3    3    0    0  0.12355646704E+03  0.60801060453E+02  0.12322003476E+03  0.18478675944E+03  0.00000000000E+00 0.  1.
</event>
<event>
 7    1  0.4822463E-005  0.1152085E+04  0.7818608E-02  0.1104705E+00
          2   -1    0    0  502    0  0.00000000000E+00  0.00000000000E+00  0.28094124451E+04  0.28094124451E+04  0.00000000000E+00 0. -1.
          1   -1    0    0  501    0 -0.00000000000E+00 -0.00000000000E+00 -0.13148253701E+04  0.13148253701E+04  0.00000000000E+00 0. -1.
         25    2    1    2    0    0 -0.98896371082E+03  0.58403503719E+03 -0.14540819465E+03  0.11644376619E+04  0.12500151739E+03 0.  0.
          2    1    1    2  501    0  0.10249912731E+04 -0.53538054279E+03 -0.15239373402E+03  0.11663889941E+04  0.00000000000E+00 0. -1.
          1    1    1    2  502    0 -0.36027562262E+02 -0.48654494407E+02  0.17923890037E+04  0.17934111591E+04  0.00000000000E+00 0. -1.
         22    1    3    3    0    0 -0.53175883164E+03  0.38436656723E+03 -0.95555381500E+02  0.66305048372E+03  0.00000000000E+00 0.  1.
         22    1    3    3    0    0 -0.45720487918E+03  0.19966846996E+03 -0.49852813152E+02  0.50138717816E+03  0.00000000000E+00 0.  1.
</event>
<event>
 7    1  0.4822463E-005  0.2596703E+03  0.7818608E-02  0.1212935E+00
          2   -1    0    0  502    0  0.00000000000E+00  0.00000000000E+00  0.61468536468E+03  0.61468536468E+03  0.00000000000E+00 0. -1.
          1   -1    0    0  501    0 -0.00000000000E+00 -0.00000000000E+00 -0.34525157452E+04  0.34525157452E+04  0.00000000000E+00 0. -1.
         25    2    1    2    0    0 -0.68510093516E+02 -0.32146469791E+03 -0.22749344092E+03  0.41882177998E+03  0.12500093121E+03 0.  0.
          2    1    1    2  501    0  0.11126191879E+02  0.74975501972E+02 -0.30980157510E+04  0.30989428377E+04  0.00000000000E+00 0. -1.
          1    1    1    2  502    0  0.57383901637E+02  0.24648919594E+03  0.48767881138E+03  0.54943649219E+03  0.00000000000E+00 0. -1.
         22    1    3    3    0    0  0.26810284754E+02 -0.17269345183E+03 -0.10605848478E+03  0.20442656840E+03  0.00000000000E+00 0.  1.
         22    1    3    3    0    0 -0.95320378269E+02 -0.14877124608E+03 -0.12143495613E+03  0.21439521157E+03  0.00000000000E+00 0.  1.
</event>
<event>
 7    1  0.4822463E-005  0.2620974E+03  0.7818608E-02  0.1257257E+00
          2   -1    0    0  502    0  0.00000000000E+00  0.00000000000E+00  0.16510574294E+04  0.16510574294E+04  0.00000000000E+00 0. -1.
          1   -1    0    0  501    0 -0.00000000000E+00 -0.00000000000E+00 -0.73745765114E+03  0.73745765114E+03  0.00000000000E+00 0. -1.
         25    2    1    2    0    0 -0.27565759416E+03  0.45160826775E+02  0.11645436970E+04  0.12040820154E+04  0.12499947210E+03 0.  0.
          2    1    1    2  501    0  0.39990006322E+02 -0.25995777391E+02 -0.68686338326E+03  0.68851745679E+03  0.00000000000E+00 0. -1.
          1    1    1    2  502    0  0.23566758784E+03 -0.19165049384E+02  0.43591946450E+03  0.49591560835E+03  0.00000000000E+00 0. -1.
         22    1    3    3    0    0 -0.16744090525E+03  0.88132309540E+02  0.74934248516E+03  0.77286345547E+03  0.00000000000E+00 0.  1.
         22    1    3    3    0    0 -0.10821668891E+03 -0.42971482765E+02  0.41520121183E+03  0.43121855989E+03  0.00000000000E+00 0.  1.
</event>
<event>
 7    1  0.4822463E-005  0.2306069E+03  0.7818608E-02  0.1189471E+00
          2   -1    0    0  502    0  0.00000000000E+00  0.00000000000E+00  0.91333576032E+03  0.91333576032E+03  0.00000000000E+00 0. -1.
          1   -1    0    0  501    0 -0.00000000000E+00 -0.00000000000E+00 -0.28774255680E+03  0.28774255680E+03  0.00000000000E+00 0. -1.
         25    2    1    2    0    0  0.28091188197E+03  0.13626211905E+03  0.80453064170E+02  0.34579734369E+03  0.12499702737E+03 0.  0.
          2    1    1    2  501    0 -0.17554181559E+03 -0.10445910389E+03 -0.80849379294E+02  0.21968899731E+03  0.00000000000E+00 0. -1.
          1    1    1    2  502    0 -0.10537006638E+03 -0.31803015154E+02  0.62598951864E+03  0.63559197612E+03  0.00000000000E+00 0. -1.
         22    1    3    3    0    0  0.22713166735E+03  0.10997152264E+03  0.11429580682E+03  0.27703079533E+03  0.00000000000E+00 0.  1.
         22    1    3    3    0    0  0.53780214615E+02  0.26290596411E+02 -0.33842742647E+02  0.68766548361E+02  0.00000000000E+00 0.  1.
</event>
<event>
 7    1  0.4822463E-005  0.8686371E+03  0.7818608E-02  0.1065327E+00
          2   -1    0    0  502    0  0.00000000000E+00  0.00000000000E+00  0.19089006420E+04  0.19089006420E+04  0.00000000000E+00 0. -1.
          1   -1    0    0  501    0 -0.00000000000E+00 -0.00000000000E+00 -0.22197566615E+04  0.22197566615E+04  0.00000000000E+00 0. -1.
         25    2    1    2    0    0 -0.78771316334E+03 -0.14106250461E+03 -0.55870083145E+03  0.98395207599E+03  0.12499764352E+03 0.  0.
          2    1    1    2  501    0 -0.91035536578E+02  0.10078556702E+03 -0.13306938145E+04  0.13376065294E+04  0.00000000000E+00 0. -1.
          1    1    1    2  502    0  0.87874869992E+03  0.40276937586E+02  0.15785386265E+04  0.18070986981E+04  0.00000000000E+00 0. -1.
         22    1    3    3    0    0 -0.26341825720E+03 -0.23940983170E+01 -0.23061086120E+03  0.35010895338E+03  0.00000000000E+00 0. -1.
         22    1    3    3    0    0 -0.52429490614E+03 -0.13866840629E+03 -0.32808997025E+03  0.63384312261E+03  0.00000000000E+00 0. -1.
</event>
<event>
 7    1  0.4822463E-005  0.1270894E+04  0.7818608E-02  0.1025524E+00
          2   -1    0    0  502    0  0.00000000000E+00  0.00000000000E+00  0.28305946704E+04  0.28305946704E+04  0.00000000000E+00 0. -1.
          1   -1    0    0  501    0 -0.00000000000E+00 -0.00000000000E+00 -0.23033102374E+04  0.23033102374E+04  0.00000000000E+00 0. -1.
         25    2    1    2    0    0  0.12129933767E+04 -0.51513642886E+03  0.34867339450E+03  0.13689105983E+04  0.12499847163E+03 0.  0.
          2    1    1    2  501    0 -0.12385902369E+03 -0.10849100204E+03 -0.15887989789E+04  0.15973082203E+04  0.00000000000E+00 0. -1.
          1    1    1    2  502    0 -0.10891343530E+04  0.62362743090E+03  0.17674100173E+04  0.21676860891E+04  0.00000000000E+00 0. -1.
         22    1    3    3    0    0  0.11764666825E+04 -0.51781396633E+03  0.35026853127E+03  0.13322511786E+04  0.00000000000E+00 0. -1.
         22    1    3    3    0    0  0.36526694221E+02  0.26775374771E+01 -0.15951367680E+01  0.36659419785E+02  0.00000000000E+00 0. -1.
</event>
<event>
 7    1  0.4822463E-005  0.1863405E+03  0.7818608E-02  0.1186595E+00
          2   -1    0    0  502    0  0.00000000000E+00  0.00000000000E+00  0.16678644108E+03  0.16678644108E+03  0.00000000000E+00 0. -1.
          1   -1    0    0  501    0 -0.00000000000E+00 -0.00000000000E+00 -0.18324069631E+04  0.18324069631E+04  0.00000000000E+00 0. -1.
         25    2    1    2    0    0  0.96737778602E+02 -0.22915794887E+03 -0.48955286287E+03  0.56317175725E+03  0.12501543618E+03 0.  0.
          2    1    1    2  501    0 -0.15154771559E+03  0.99655194818E+02 -0.12595114376E+04  0.12725041963E+04  0.00000000000E+00 0. -1.
          1    1    1    2  502    0  0.54809936984E+02  0.12950275405E+03  0.83443778507E+02  0.16351745066E+03  0.00000000000E+00 0. -1.
         22    1    3    3    0    0  0.93685409650E+02 -0.19110938228E+03 -0.28842171034E+03  0.35845060325E+03  0.00000000000E+00 0. -1.
         22    1    3    3    0    0  0.30523689516E+01 -0.38048566582E+02 -0.20113115253E+03  0.20472115400E+03  0.00000000000E+00 0. -1.
</event>
<event>
 7    1  0.4822463E-005  0.4233663E+03  0.7818608E-02  0.1187756E+00
          2   -1    0    0  502    0  0.00000000000E+00  0.00000000000E+00  0.69980210535E+03  0.69980210535E+03  0.00000000000E+00 0. -1.
          1   -1    0    0  501    0 -0.00000000000E+00 -0.00000000000E+00 -0.98328998733E+03  0.98328998733E+03  0.00000000000E+00 0. -1.
         25    2    1    2    0    0  0.40420291338E+03  0.17135009815E+03  0.13789074125E+03  0.47684710857E+03  0.12501382768E+03 0.  0.
          2    1    1    2  501    0 -0.45031128891E+01 -0.60935360965E+02 -0.70257265526E+03  0.70522459696E+03  0.00000000000E+00 0. -1.
          1    1    1    2  502    0 -0.39969980049E+03 -0.11041473718E+03  0.28119403202E+03  0.50102038715E+03  0.00000000000E+00 0. -1.
         22    1    3    3    0    0  0.33556881381E+03  0.10205996631E+03  0.69070115987E+02  0.35748195262E+03  0.00000000000E+00 0.  1.
         22    1    3    3    0    0  0.68634099561E+02  0.69290131833E+02  0.68820625267E+02  0.11936515595E+03  0.00000000000E+00 0.  1.
</event>
<event>
 7    1  0.4822463E-005  0.1129124E+03  0.7818608E-02  0.1398075E+00
          2   -1    0    0  502    0  0.00000000000E+00  0.00000000000E+00  0.12719709716E+03  0.12719709716E+03  0.00000000000E+00 0. -1.
          1   -1    0    0  501    0 -0.00000000000E+00 -0.00000000000E+00 -0.22547867175E+04  0.22547867175E+04  0.00000000000E+00 0. -1.
         25    2    1    2    0    0 -0.82025773692E+02  0.96292247097E+01 -0.18106500745E+04  0.18168376613E+04  0.12499778414E+03 0.  0.
          2    1    1    2  501    0 -0.29042870086E+02  0.13004597063E+02 -0.41442231379E+03  0.41564222838E+03  0.00000000000E+00 0. -1.
          1    1    1    2  502    0  0.11106864378E+03 -0.22633821772E+02  0.97482767928E+02  0.14950392490E+03  0.00000000000E+00 0. -1.
         22    1    3    3    0    0 -0.45162557435E+02 -0.45190884138E+02 -0.44193876622E+03  0.44653302867E+03  0.00000000000E+00 0. -1.
         22    1    3    3    0    0 -0.36863216257E+02  0.54820108847E+02 -0.13687113082E+04  0.13703046327E+04  0.00000000000E+00 0. -1.
</event>
<event>
 7    1  0.4822463E-005  0.2258812E+03  0.7818608E-02  0.1160798E+00
          2   -1    0    0  502    0  0.00000000000E+00  0.00000000000E+00  0.51800738193E+03  0.51800738193E+03  0.00000000000E+00 0. -1.
          1   -1    0    0  501    0 -0.00000000000E+00 -0.00000000000E+00 -0.21067891845E+04  0.21067891845E+04  0.00000000000E+00 0. -1.
         25    2    1    2    0    0  0.25993522451E+02  0.21333338787E+03 -0.21580394038E+03  0.32921210033E+03  0.12498987450E+03 0.  0.
          2    1    1    2  501    0  0.12843700080E+03 -0.19489195645E+03 -0.18134766892E+04  0.18284355718E+04  0.00000000000E+00 0. -1.
          1    1    1    2  502    0 -0.15443052325E+03 -0.18441431423E+02  0.44049882699E+03  0.46714889434E+03  0.00000000000E+00 0. -1.
         22    1    3    3    0    0  0.15565239493E+02  0.22913080460E+03 -0.19806914494E+03  0.30327312521E+03  0.00000000000E+00 0. -1.
         22    1    3    3    0    0  0.10428282959E+02 -0.15797416729E+02 -0.17734795445E+02  0.25938975120E+02  0.00000000000E+00 0. -1.
</event>
<event>
 7    1  0.4822463E-005  0.1774548E+03  0.7818608E-02  0.1237548E+00
          2   -1    0    0  502    0  0.00000000000E+00  0.00000000000E+00  0.23643871720E+03  0.23643871720E+03  0.00000000000E+00 0. -1.
          1   -1    0    0  501    0 -0.00000000000E+00 -0.00000000000E+00 -0.81146506707E+03  0.81146506707E+03  0.00000000000E+00 0. -1.
         25    2    1    2    0    0  0.76022221275E+02  0.17158617416E+03 -0.30802367547E+03  0.38173878457E+03  0.12499888679E+03 0.  0.
          2    1    1    2  501    0 -0.85597997319E+02  0.65611594008E+01 -0.42150477173E+03  0.43015850398E+03  0.00000000000E+00 0. -1.
          1    1    1    2  502    0  0.95757760443E+01 -0.17814733356E+03  0.15450209733E+03  0.23600649572E+03  0.00000000000E+00 0. -1.
         22    1    3    3    0    0 -0.21815189343E+02 -0.43051467748E+01 -0.48163196301E+02  0.53048376532E+02  0.00000000000E+00 0.  1.
         22    1    3    3    0    0  0.97837410618E+02  0.17589132094E+03 -0.25986047917E+03  0.32869040803E+03  0.00000000000E+00 0.  1.
</event>
<event>
 7    1  0.4822463E-005  0.1018098E+04  0.7818608E-02  0.1200966E+00
          2   -1    0    0  502    0  0.00000000000E+00  0.00000000000E+00  0.10356796074E+04  0.10356796074E+04  0.00000000000E+00 0. -1.
          1   -1    0    0  501    0 -0.00000000000E+00 -0.00000000000E+00 -0.23125363750E+04  0.23125363750E+04  0.00000000000E+00 0. -1.
         25    2    1    2    0    0 -0.91824803624E+03  0.46293763995E+03 -0.30748309650E+03  0.10805805988E+04  0.12497144182E+03 0.  0.
          2    1    1    2  501    0  0.21131490296E+02  0.60560450699E+01 -0.12236745250E+04  0.12238719535E+04  0.00000000000E+00 0. -1.
          1    1    1    2  502    0  0.89711654594E+03 -0.46899368502E+03  0.25430085391E+03  0.10437634300E+04  0.00000000000E+00 0. -1.
         22    1    3    3    0    0 -0.10386699356E+03  0.10029234986E+03 -0.46536731938E+02  0.15169896246E+03  0.00000000000E+00 0.  1.
         22    1    3    3    0    0 -0.81438104268E+03  0.36264529008E+03 -0.26094636456E+03  0.92888163631E+03  0.00000000000E+00 0.  1.
</event>
<event>
 7    1  0.4822463E-005  0.1570267E+03  0.7818608E-02  0.1219428E+00
          2   -1    0    0  502    0  0.00000000000E+00  0.00000000000E+00  0.53178634546E+03  0.53178634546E+03  0.00000000000E+00 0. -1.
          1   -1    0    0  501    0 -0.00000000000E+00 -0.00000000000E+00 -0.55613294691E+03  0.55613294691E+03  0.00000000000E+00 0. -1.
         25    2    1    2    0    0 -0.83981148359E+02 -0.43349330209E+02 -0.15971265313E+03  0.22375251659E+03  0.12500023760E+03 0.  0.
          2    1    1    2  501    0 -0.24487121950E+02  0.15689236949E+03 -0.33367868269E+03  0.36953524599E+03  0.00000000000E+00 0. -1.
          1    1    1    2  502    0  0.10846827031E+03 -0.11354303928E+03  0.46904473437E+03  0.49463152980E+03  0.00000000000E+00 0. -1.
         22    1    3    3    0    0 -0.23300902912E+02 -0.28766306179E+01  0.19337230963E+02  0.30416041517E+02  0.00000000000E+00 0.  1.
         22    1    3    3    0    0 -0.60680245447E+02 -0.40472699591E+02 -0.17904988409E+03  0.19333647507E+03  0.00000000000E+00 0.  1.
</event>
<event>
 7    1  0.4822463E-005  0.2526973E+03  0.7818608E-02  0.1244088E+00
          2   -1    0    0  502    0  0.00000000000E+00  0.00000000000E+00  0.26607165548E+04  0.26607165548E+04  0.00000000000E+00 0. -1.
          1   -1    0    0  501    0 -0.00000000000E+00 -0.00000000000E+00 -0.35933350089E+02  0.35933350089E+02  0.00000000000E+00 0. -1.
         25    2    1    2    0    0  0.48498705677E+02 -0.23225873180E+03  0.10989379094E+04  0.11311879443E+04  0.12500157516E+03 0.  0.
          2    1    1    2  501    0 -0.44861696910E+02 -0.34211100812E+02  0.99035864989E+02  0.11397839191E+03  0.00000000000E+00 0. -1.
          1    1    1    2  502    0 -0.36370087665E+01  0.26646983261E+03  0.14268094304E+04  0.14514835687E+04  0.00000000000E+00 0. -1.
         22    1    3    3    0    0  0.46351254039E+02 -0.18479271966E+03  0.58910598897E+03  0.61914671462E+03  0.00000000000E+00 0.  1.
         22    1    3    3    0    0  0.21474516379E+01 -0.47466012141E+02  0.50983192041E+03  0.51204122971E+03  0.00000000000E+00 0.  1.
</event>
<event>
 7    1  0.4822463E-005  0.9133355E+03  0.7818608E-02  0.1150219E+00
          2   -1    0    0  502    0  0.00000000000E+00  0.00000000000E+00  0.12201548714E+04  0.12201548714E+04  0.00000000000E+00 0. -1.
          1   -1    0    0  501    0 -0.00000000000E+00 -0.00000000000E+00 -0.18733791962E+04  0.18733791962E+04  0.00000000000E+00 0. -1.
         25    2    1    2    0    0  0.89247603206E+03 -0.22256899217E+03 -0.11394731015E+04  0.14697191413E+04  0.12499992522E+03 0.  0.
          2    1    1    2  501    0 -0.86311799725E+03  0.25473195720E+03 -0.21171713015E+03  0.92449185523E+03  0.00000000000E+00 0. -1.
          1    1    1    2  502    0 -0.29358034815E+02 -0.32162965037E+02  0.69796590683E+03  0.69932307100E+03  0.00000000000E+00 0. -1.
         22    1    3    3    0    0  0.73665046429E+03 -0.14962563713E+03 -0.98033395166E+03  0.12353527410E+04  0.00000000000E+00 0.  1.
         22    1    3    3    0    0  0.15582556778E+03 -0.72943355033E+02 -0.15913914985E+03  0.23436640039E+03  0.00000000000E+00 0.  1.
</event>
<event>
 7    1  0.4822463E-005  0.6005537E+02  0.7818608E-02  0.1498716E+00
          2   -1    0    0  502    0  0.00000000000E+00  0.00000000000E+00  0.40418748020E+03  0.40418748020E+03  0.00000000000E+00 0. -1.
          1   -1    0    0  501    0 -0.00000000000E+00 -0.00000000000E+00 -0.13384488950E+04  0.13384488950E+04  0.00000000000E+00 0. -1.
         25    2    1    2    0    0  0.26279548849E+02 -0.53578768217E+02  0.14834069487E+02  0.13930653001E+03  0.12499984238E+03 0.  0.
          2    1    1    2  501    0 -0.48377956470E+02  0.35693125717E+02 -0.12748852471E+04  0.12763020094E+04  0.00000000000E+00 0. -1.
          1    1    1    2  502    0  0.22098407621E+02  0.17885642499E+02  0.32578976282E+03  0.32702783580E+03  0.00000000000E+00 0. -1.
         22    1    3    3    0    0 -0.21014902540E+01 -0.10134343031E+02  0.65777605610E+02  0.66586894880E+02  0.00000000000E+00 0.  1.
         22    1    3    3    0    0  0.28381039103E+02 -0.43444425186E+02 -0.50943536124E+02  0.72719635128E+02  0.00000000000E+00 0.  1.
</event>
<event>
 7    1  0.4822463E-005  0.1182623E+04  0.7818608E-02  0.1141755E+00
          2   -1    0    0  502    0  0.00000000000E+00  0.00000000000E+00  0.15934773979E+04  0.15934773979E+04  0.00000000000E+00 0. -1.
          1   -1    0    0  501    0 -0.00000000000E+00 -0.00000000000E+00 -0.12385202117E+04  0.12385202117E+04  0.00000000000E+00 0. -1.
         25    2    1    2    0    0 -0.11734522121E+04  0.17545425788E+03  0.16059739224E+03  0.12038233323E+04  0.12499920946E+03 0.  0.
          2    1    1    2  501    0  0.11719700912E+04 -0.13827839515E+03 -0.22990119104E+03  0.12022850606E+04  0.00000000000E+00 0. -1.
          1    1    1    2  502    0  0.14821209299E+01 -0.37175862730E+02  0.42426098500E+03  0.42588921664E+03  0.00000000000E+00 0. -1.
         22    1    3    3    0    0 -0.35089850982E+03  0.11069020146E+03  0.46272484192E+02  0.37084124324E+03  0.00000000000E+00 0. -1.
         22    1    3    3    0    0 -0.82255370230E+03  0.64764056418E+02  0.11432490805E+03  0.83298208911E+03  0.00000000000E+00 0. -1.
</event>
<event>
 7    1  0.4822463E-005  0.2161806E+03  0.7818608E-02  0.1181632E+00
          2   -1    0    0  502    0  0.00000000000E+00  0.00000000000E+00  0.40988005250E+03  0.40988005250E+03  0.00000000000E+00 0. -1.
          1   -1    0    0  501    0 -0.00000000000E+00 -0.00000000000E+00 -0.90617631445E+03  0.90617631445E+03  0.00000000000E+00 0. -1.
         25    2    1    2    0    0  0.28978675164E+03  0.54284573331E+02  0.23916523978E+03  0.39967845719E+03  0.12497872179E+03 0.  0.
          2    1    1    2  501    0 -0.17833380159E+03 -0.11746464170E+03 -0.75693076986E+03  0.78647636786E+03  0.00000000000E+00 0. -1.
          1    1    1    2  502    0 -0.11145295005E+03  0.63180068364E+02  0.21469268134E+02  0.12990154190E+03  0.00000000000E+00 0. -1.
         22    1    3    3    0    0  0.59611718714E+02 -0.35178814289E+02  0.80423884130E+02  0.10610893987E+03  0.00000000000E+00 0. -1.
         22    1    3    3    0    0  0.23017503292E+03  0.89463387620E+02  0.15874135565E+03  0.29356951732E+03  0.00000000000E+00 0. -1.
</event>
<event>
 7    1  0.4822463E-005  0.3100046E+03  0.7818608E-02  0.1278763E+00
          2   -1    0    0  502    0  0.00000000000E+00  0.00000000000E+00  0.55236628237E+03  0.55236628237E+03  0.00000000000E+00 0. -1.
          1   -1    0    0  501    0 -0.00000000000E+00 -0.00000000000E+00 -0.18832290869E+04  0.18832290869E+04  0.00000000000E+00 0. -1.
         25    2    1    2    0    0  0.50791523016E+02 -0.33683642461E+03 -0.10837778743E+04  0.11429083917E+04  0.12500622055E+03 0.  0.
          2    1    1    2  501    0  0.21696010928E+01  0.32659934818E+02 -0.72389854659E+03  0.72463817472E+03  0.00000000000E+00 0. -1.
          1    1    1    2  502    0 -0.52961124109E+02  0.30417648979E+03  0.47681361640E+03  0.56804880283E+03  0.00000000000E+00 0. -1.
         22    1    3    3    0    0 -0.18627543601E+02 -0.21588180491E+01 -0.33235946175E+02  0.38161158186E+02  0.00000000000E+00 0.  1.
         22    1    3    3    0    0  0.69419066617E+02 -0.33467760656E+03 -0.10505419281E+04  0.11047472335E+04  0.00000000000E+00 0.  1.
</event>
<event>
 7    1  0.4822463E-005  0.1174736E+04  0.7818608E-02  0.1099986E+00
          2   -1    0    0  502    0  0.00000000000E+00  0.00000000000E+00  0.37417870116E+04  0.37417870116E+04  0.00000000000E+00 0. -1.
          1   -1    0    0  501    0 -0.00000000000E+00 -0.00000000000E+00 -0.76211510993E+03  0.76211510993E+03  0.00000000000E+00 0. -1.
         25    2    1    2    0    0 -0.85753154623E+03  0.83465077927E+03  0.40466223133E+03  0.12693982272E+04  0.12497224384E+03 0.  0.
          2    1    1    2  501    0  0.85093883089E+03 -0.77189070966E+03  0.67306714307E+03  0.13315147542E+04  0.00000000000E+00 0. -1.
          1    1    1    2  502    0  0.65927153388E+01 -0.62760069615E+02  0.19019425273E+04  0.19029891401E+04  0.00000000000E+00 0. -1.
         22    1    3    3    0    0 -0.56265372952E+03  0.50797148951E+03  0.31163193280E+03  0.81959057769E+03  0.00000000000E+00 0.  1.
         22    1    3    3    0    0 -0.29487781671E+03  0.32667928977E+03  0.93030298532E+02  0.44980764955E+03  0.00000000000E+00 0.  1.
</event>
<event>
 7    1  0.4822463E-005  0.4660605E+03  0.7818608E-02  0.1252984E+00
          2   -1    0    0  502    0  0.00000000000E+00  0.00000000000E+00  0.10539460387E+04  0.10539460387E+04  0.00000000000E+00 0. -1.
          1   -1    0    0  501    0 -0.00000000000E+00 -0.00000000000E+00 -0.38394066895E+03  0.38394066895E+03  0.00000000000E+00 0. -1.
         25    2    1    2    0    0 -0.99046184762E+02 -0.46624534597E+03  0.20264391208E+03  0.53280977729E+03  0.12500733705E+03 0.  0.
          2    1    1    2  501    0  0.74253157849E+02  0.45327053351E+03  0.23055332376E+02  0.45989048299E+03  0.00000000000E+00 0. -1.
          1    1    1    2  502    0  0.24793026913E+02  0.12974812466E+02  0.44430612533E+03  0.44518644740E+03  0.00000000000E+00 0. -1.
         22    1    3    3    0    0 -0.47463898867E+02 -0.67474700469E+02 -0.95632840054E-01  0.82496460801E+02  0.00000000000E+00 0.  1.
         22    1    3    3    0    0 -0.51582285895E+02 -0.39877064550E+03  0.20273954492E+03  0.45031331649E+03  0.00000000000E+00 0.  1.
</event>
<event>
 7    1  0.4822463E-005  0.5734525E+03  0.7818608E-02  0.1222041E+00
          2   -1    0    0  502    0  0.00000000000E+00  0.00000000000E+00  0.89381156435E+03  0.89381156435E+03  0.00000000000E+00 0. -1.
          1   -1    0    0  501    0 -0.00000000000E+00 -0.00000000000E+00 -0.12589022255E+04  0.12589022255E+04  0.00000000000E+00 0. -1.
         25    2    1    2    0    0  0.40388236558E+03  0.42695041478E+03  0.30848156419E+03  0.67542555144E+03  0.12502471028E+03 0.  0.
          2    1    1    2  501    0 -0.27753658881E+02 -0.14211299915E+02 -0.88103081597E+03  0.88158239848E+03  0.00000000000E+00 0. -1.
          1    1    1    2  502    0 -0.37612870670E+03 -0.41273911486E+03  0.20745859060E+03  0.59570583995E+03  0.00000000000E+00 0. -1.
         22    1    3    3    0    0  0.94283168401E+02  0.17755162933E+03  0.76232352247E+02  0.21500062430E+03  0.00000000000E+00 0. -1.
         22    1    3    3    0    0  0.30959919718E+03  0.24939878545E+03  0.23224921195E+03  0.46042492714E+03  0.00000000000E+00 0. -1.
</event>
<event>
 7    1  0.4822463E-005  0.3781789E+03  0.7818608E-02  0.1148164E+00
          2   -1    0    0  502    0  0.00000000000E+00  0.00000000000E+00  0.11831570834E+04  0.11831570834E+04  0.00000000000E+00 0. -1.
          1   -1    0    0  501    0 -0.00000000000E+00 -0.00000000000E+00 -0.42544745922E+03  0.42544745922E+03  0.00000000000E+00 0. -1.
         25    2    1    2    0    0 -0.17570684890E+03  0.32002541543E+03  0.76789241386E+03  0.85940244571E+03  0.12499856463E+03 0.  0.
          2    1    1    2  501    0  0.81607665538E+02 -0.37254884861E+03 -0.27042629843E+03  0.46752843610E+03  0.00000000000E+00 0. -1.
          1    1    1    2  502    0  0.94099183361E+02  0.52523433187E+02  0.26024350878E+03  0.28167366083E+03  0.00000000000E+00 0. -1.
         22    1    3    3    0    0 -0.84042513489E+02  0.46936711040E+02  0.22749282130E+03  0.24702061181E+03  0.00000000000E+00 0. -1.
         22    1    3    3    0    0 -0.91664335411E+02  0.27308870439E+03  0.54039959256E+03  0.61238183390E+03  0.00000000000E+00 0. -1.
</event>
<event>
 7    1  0.4822463E-005  0.7187489E+03  0.7818608E-02  0.1061731E+00
          2   -1    0    0  502    0  0.00000000000E+00  0.00000000000E+00  0.25134891043E+04  0.25134891043E+04  0.00000000000E+00 0. -1.
          1   -1    0    0  501    0 -0.00000000000E+00 -0.00000000000E+00 -0.74895196141E+03  0.74895196141E+03  0.00000000000E+00 0. -1.
         25    2    1    2    0    0 -0.68819151414E+03 -0.73202894660E+02  0.19550871911E+03  0.72994254142E+03  0.12500492237E+03 0.  0.
          2    1    1    2  501    0  0.70097323844E+03  0.24527641229E+03 -0.18876132941E+03  0.76626029449E+03  0.00000000000E+00 0. -1.
          1    1    1    2  502    0 -0.12781724300E+02 -0.17207351763E+03  0.17577897532E+04  0.17662382298E+04  0.00000000000E+00 0. -1.
         22    1    3    3    0    0 -0.39534908809E+03 -0.99028336878E+02  0.88249671873E+02  0.41700781473E+03  0.00000000000E+00 0. -1.
         22    1    3    3    0    0 -0.29284242605E+03  0.25825442218E+02  0.10725904723E+03  0.31293472670E+03  0.00000000000E+00 0. -1.
</event>
<event>
 7    1  0.4822463E-005  0.1020962E+03  0.7818608E-02  0.1326301E+00
          2   -1    0    0  502    0  0.00000000000E+00  0.00000000000E+00  0.55907436537E+03  0.55907436537E+03  0.00000000000E+00 0. -1.
          1   -1    0    0  501    0 -0.00000000000E+00 -0.00000000000E+00 -0.13604185858E+03  0.13604185858E+03  0.00000000000E+00 0. -1.
         25    2    1    2    0    0 -0.15182811839E+03 -0.53556112678E+02  0.46897692866E+03  0.51135486842E+03  0.12499762842E+03 0.  0.
          2    1    1    2  501    0  0.88209370720E+02  0.44739053601E+02 -0.63052667313E+02  0.11729499075E+03  0.00000000000E+00 0. -1.
          1    1    1    2  502    0  0.63618747666E+02  0.88170590763E+01  0.17108245446E+02  0.66466364784E+02  0.00000000000E+00 0. -1.
         22    1    3    3    0    0 -0.15507156223E+03 -0.70674935965E+02  0.33111864402E+03  0.37239990924E+03  0.00000000000E+00 0.  1.
         22    1    3    3    0    0  0.32434438407E+01  0.17118823288E+02  0.13785828464E+03  0.13895495918E+03  0.00000000000E+00 0.  1.
</event>
<event>
 7    1  0.4822463E-005  0.1266168E+03  0.7818608E-02  0.1268384E+00
          2   -1    0    0  502    0  0.00000000000E+00  0.00000000000E+00  0.47928242721E+03  0.47928242721E+03  0.00000000000E+00 0. -1.
          1   -1    0    0  501    0 -0.00000000000E+00 -0.00000000000E+00 -0.10589220562E+03  0.10589220562E+03  0.00000000000E+00 0. -1.
         25    2    1    2    0    0 -0.75842471352E+02  0.16790921720E+03  0.25495003146E+03  0.33848187863E+03  0.12499951174E+03 0.  0.
          2    1    1    2  501    0  0.83097783971E+02 -0.79657350651E+02  0.24678720436E+02  0.11772669390E+03  0.00000000000E+00 0. -1.
          1    1    1    2  502    0 -0.72553126190E+01 -0.88251866553E+02  0.93761469686E+02  0.12896606030E+03  0.00000000000E+00 0. -1.
         22    1    3    3    0    0 -0.70481076802E+02  0.38268439358E+02  0.15563507700E+03  0.17508378803E+03  0.00000000000E+00 0.  1.
         22    1    3    3    0    0 -0.53613945501E+01  0.12964077785E+03  0.99314954464E+02  0.16339809060E+03  0.00000000000E+00 0.  1.
</event>
<event>
 7    1  0.4822463E-005  0.3207945E+03  0.7818608E-02  0.1129551E+00
          2   -1    0    0  502    0  0.00000000000E+00  0.00000000000E+00  0.11023288787E+04  0.11023288787E+04  0.00000000000E+00 0. -1.
          1   -1    0    0  501    0 -0.00000000000E+00 -0.00000000000E+00 -0.45449176786E+03  0.45449176786E+03  0.00000000000E+00 0. -1.
         25    2    1    2    0    0 -0.22773087107E+03 -0.25721710597E+03  0.99673063460E+03  0.10616585569E+04  0.12499977738E+03 0.  0.
          2    1    1    2  501    0  0.88048845620E+02  0.13250690007E+03 -0.20223558226E+03  0.25731286115E+03  0.00000000000E+00 0. -1.
          1    1    1    2  502    0  0.13968202545E+03  0.12471020590E+03 -0.14665794148E+03  0.23784922848E+03  0.00000000000E+00 0. -1.
         22    1    3    3    0    0 -0.97698548308E+02 -0.97847921846E+02  0.23514661210E+03  0.27278774044E+03  0.00000000000E+00 0. -1.
         22    1    3    3    0    0 -0.13003232276E+03 -0.15936918413E+03  0.76158402250E+03  0.78887081651E+03  0.00000000000E+00 0. -1.
</event>
<event>
 7    1  0.4822463E-005  0.3896483E+03  0.7818608E-02  0.1055783E+00
          2   -1    0    0  502    0  0.00000000000E+00  0.00000000000E+00  0.27829105599E+04  0.27829105599E+04  0.00000000000E+00 0. -1.
          1   -1    0    0  501    0 -0.00000000000E+00 -0.00000000000E+00 -0.33365787493E+03  0.33365787493E+03  0.00000000000E+00 0. -1.
         25    2    1    2    0    0 -0.35296039377E+03 -0.25596403071E+03  0.87844966905E+03  0.98863380439E+03  0.12499741415E+03 0.  0.
          2    1    1    2  501    0 -0.52447151703E+02  0.34197537856E+03 -0.13584557282E+03  0.37168788374E+03  0.00000000000E+00 0. -1.
          1    1    1    2  502    0  0.40540754547E+03 -0.86011347847E+02  0.17066485888E+04  0.17562467467E+04  0.00000000000E+00 0. -1.
         22    1    3    3    0    0 -0.11566988860E+03 -0.16033012281E+03  0.38855725234E+03  0.43596101862E+03  0.00000000000E+00 0.  1.
         22    1    3    3    0    0 -0.23729050517E+03 -0.95633907900E+02  0.48989241670E+03  0.55267278577E+03  0.00000000000E+00 0.  1.
</event>
<event>
 7    1  0.4822463E-005  0.1953645E+03  0.7818608E-02  0.1178217E+00
          2   -1    0    0  502    0  0.00000000000E+00  0.00000000000E+00  0.30763571177E+03  0.30763571177E+03  0.00000000000E+00 0. -1.
          1   -1    0    0  501    0 -0.00000000000E+00 -0.00000000000E+00 -0.15269832298E+04  0.15269832298E+04  0.00000000000E+00 0. -1.
         25    2    1    2    0    0 -0.19139283900E+03 -0.16617009401E+03 -0.82953825933E+02  0.29453770901E+03  0.12500962293E+03 0.  0.
          2    1    1    2  501    0  0.23666143101E+01  0.14729481732E+03 -0.12883940777E+04  0.12967885963E+04  0.00000000000E+00 0. -1.
          1    1    1    2  502    0  0.18902622469E+03  0.18875276699E+02  0.15200038552E+03  0.24329263633E+03  0.00000000000E+00 0. -1.
         22    1    3    3    0    0  0.99993371651E+00 -0.64504789957E+02 -0.11689797561E+02  0.65563092986E+02  0.00000000000E+00 0. -1.
         22    1    3    3    0    0 -0.19239277272E+03 -0.10166530406E+03 -0.71264028371E+02  0.22897461602E+03  0.00000000000E+00 0. -1.
</event>
<event>
 7    1  0.4822463E-005  0.4109435E+03  0.7818608E-02  0.1101590E+00
          2   -1    0    0  502    0  0.00000000000E+00  0.00000000000E+00  0.20810260887E+04  0.20810260887E+04  0.00000000000E+00 0. -1.
          1   -1    0    0  501    0 -0.00000000000E+00 -0.00000000000E+00 -0.44729342085E+03  0.44729342085E+03  0.00000000000E+00 0. -1.
         25    2    1    2    0    0 -0.20166402479E+03  0.41680383772E+03  0.11522899293E+04  0.12481150525E+04  0.12500114055E+03 0.  0.
          2    1    1    2  501    0  0.30454473674E+03 -0.27316030522E+03 -0.28180839526E+03  0.49676958508E+03  0.00000000000E+00 0. -1.
          1    1    1    2  502    0 -0.10288071195E+03 -0.14364353250E+03  0.76325113386E+03  0.78343487199E+03  0.00000000000E+00 0. -1.
         22    1    3    3    0    0 -0.19488498625E+03  0.27222761026E+03  0.79446751584E+03  0.86212914542E+03  0.00000000000E+00 0.  1.
         22    1    3    3    0    0 -0.67790385333E+01  0.14457622745E+03  0.35782241343E+03  0.38598590707E+03  0.00000000000E+00 0.  1.
</event>
<event>
 7    1  0.4822463E-005  0.1201324E+03  0.7818608E-02  0.1382701E+00
          2   -1    0    0  502    0  0.00000000000E+00  0.00000000000E+00  0.22285664997E+04  0.22285664997E+04  0.00000000000E+00 0. -1.
          1   -1    0    0  501    0 -0.00000000000E+00 -0.00000000000E+00 -0.37856978669E+02  0.37856978669E+02  0.00000000000E+00 0. -1.
         25    2    1    2    0    0  0.10943050767E+03  0.34524293704E+02  0.18905387260E+04  0.18981380863E+04  0.12499822906E+03 0.  0.
          2    1    1    2  501    0  0.32565704907E+02 -0.91968479364E+01 -0.15350560366E+01  0.33874231284E+02  0.00000000000E+00 0. -1.
          1    1    1    2  502    0 -0.14199621258E+03 -0.25327445767E+02  0.30170585112E+03  0.33441116084E+03  0.00000000000E+00 0. -1.
         22    1    3    3    0    0  0.93030940330E+02 -0.26158839001E+02  0.14394868397E+04  0.14427270714E+04  0.00000000000E+00 0.  1.
         22    1    3    3    0    0  0.16399567344E+02  0.60683132704E+02  0.45105188628E+03  0.45541101493E+03  0.00000000000E+00 0.  1.
</event>
<event>
 7    1  0.4822463E-005  0.5332505E+03  0.7818608E-02  0.1100824E+00
          2   -1    0    0  502    0  0.00000000000E+00  0.00000000000E+00  0.63588449030E+03  0.63588449030E+03  0.00000000000E+00 0. -1.
          1   -1    0    0  501    0 -0.00000000000E+00 -0.00000000000E+00 -0.13478215541E+04  0.13478215541E+04  0.00000000000E+00 0. -1.
         25    2    1    2    0    0  0.60878090271E+03 -0.15904442618E+03 -0.25604554147E+03  0.69071916186E+03  0.12499729696E+03 0.  0.
          2    1    1    2  501    0 -0.49485048509E+03  0.82031319861E+02 -0.78767688614E+03  0.93383136432E+03  0.00000000000E+00 0. -1.
          1    1    1    2  502    0 -0.11393041762E+03  0.77013106320E+02  0.33178536384E+03  0.35915551821E+03  0.00000000000E+00 0. -1.
         22    1    3    3    0    0  0.61392511217E+02 -0.51272490315E+02 -0.87297926618E+01  0.80461903884E+02  0.00000000000E+00 0.  1.
         22    1    3    3    0    0  0.54738839149E+03 -0.10777193587E+03 -0.24731574881E+03  0.61025725797E+03  0.00000000000E+00 0.  1.
</event>
<event>
 7    1  0.4822463E-005  0.1029376E+03  0.7818608E-02  0.1316976E+00
          2   -1    0    0  502    0  0.00000000000E+00  0.00000000000E+00  0.10353764069E+04  0.10353764069E+04  0.00000000000E+00 0. -1.
          1   -1    0    0  501    0 -0.00000000000E+00 -0.00000000000E+00 -0.43412742645E+02  0.43412742645E+02  0.00000000000E+00 0. -1.
         25    2    1    2    0    0  0.99442555768E+02  0.21232227910E+02  0.22359361097E+03  0.27560654154E+03  0.12500093389E+03 0.  0.
          2    1    1    2  501    0 -0.74989758260E+02 -0.85990409491E+02  0.19715907171E+03  0.22779269946E+03  0.00000000000E+00 0. -1.
          1    1    1    2  502    0 -0.24452797508E+02  0.64758181582E+02  0.57121098153E+03  0.57538990850E+03  0.00000000000E+00 0. -1.
         22    1    3    3    0    0  0.11169793869E+03 -0.21921482198E+02  0.18054385119E+03  0.21343163564E+03  0.00000000000E+00 0.  1.
         22    1    3    3    0    0 -0.12255382923E+02  0.43153710108E+02  0.43049759786E+02  0.62174905904E+02  0.00000000000E+00 0.  1.
</event>
<event>
 7    1  0.4822463E-005  0.1253659E+03  0.7818608E-02  0.1397392E+00
          2   -1    0    0  502    0  0.00000000000E+00  0.00000000000E+00  0.85366034304E+03  0.85366034304E+03  0.00000000000E+00 0. -1.
          1   -1    0    0  501    0 -0.00000000000E+00 -0.00000000000E+00 -0.86485028719E+02  0.86485028719E+02  0.00000000000E+00 0. -1.
         25    2    1    2    0    0  0.96353903104E+01 -0.10852970910E+03  0.18676463591E+02  0.16687609572E+03  0.12500912977E+03 0.  0.
          2    1    1    2  501    0  0.25619616974E+02 -0.13191666019E+02  0.23233259590E+02  0.37015796323E+02  0.00000000000E+00 0. -1.
          1    1    1    2  502    0 -0.35255007284E+02  0.12172137512E+03  0.72526559115E+03  0.73625347972E+03  0.00000000000E+00 0. -1.
         22    1    3    3    0    0 -0.42304534821E+01 -0.13512493763E+03  0.95615165902E+01  0.13552884603E+03  0.00000000000E+00 0.  1.
         22    1    3    3    0    0  0.13865843792E+02  0.26595228529E+02  0.91149470003E+01  0.31347249694E+02  0.00000000000E+00 0.  1.
</event>
<event>
 7    1  0.4822463E-005  0.5803489E+03  0.7818608E-02  0.1146007E+00
          2   -1    0    0  502    0  0.00000000000E+00  0.00000000000E+00  0.64728598972E+03  0.64728598972E+03  0.00000000000E+00 0. -1.
          1   -1    0    0  501    0 -0.00000000000E+00 -0.00000000000E+00 -0.98583924104E+03  0.98583924104E+03  0.00000000000E+00 0. -1.
         25    2    1    2    0    0 -0.62297853343E+03  0.38698830930E+02 -0.14449847191E+03  0.65276717922E+03  0.12500131700E+03 0.  0.
          2    1    1    2  501    0  0.55748261549E+03 -0.86705560737E+01 -0.44872424687E+03  0.71569231856E+03  0.00000000000E+00 0. -1.
          1    1    1    2  502    0  0.65495917940E+02 -0.30028274856E+02  0.25466946746E+03  0.26466573298E+03  0.00000000000E+00 0. -1.
         22    1    3    3    0    0 -0.35260403701E+03  0.61342597674E+02 -0.32961337575E+02  0.35941476177E+03  0.00000000000E+00 0. -1.
         22    1    3    3    0    0 -0.27037449642E+03 -0.22643766744E+02 -0.11153713433E+03  0.29335241745E+03  0.00000000000E+00 0. -1.
</event>
<event>
 7    1  0.4822463E-005  0.2778286E+03  0.7818608E-02  0.1097740E+00
          2   -1    0    0  502    0  0.00000000000E+00  0.00000000000E+00  0.85087239266E+03  0.85087239266E+03  0.00000000000E+00 0. -1.
          1   -1    0    0  501    0 -0.00000000000E+00 -0.00000000000E+00 -0.10501912488E+04  0.10501912488E+04  0.00000000000E+00 0. -1.
         25    2    1    2    0    0  0.13674551753E+03 -0.26527819688E+03  0.13026310335E+02  0.32383113449E+03  0.12500024241E+03 0.  0.
          2    1    1    2  501    0  0.15713532530E+03  0.22535840628E+03 -0.83959499415E+03  0.88340119761E+03  0.00000000000E+00 0. -1.
          1    1    1    2  502    0 -0.29388084283E+03  0.39919790596E+02  0.62724982770E+03  0.69383130933E+03  0.00000000000E+00 0. -1.
         22    1    3    3    0    0  0.47765211367E+02 -0.46619248035E+02  0.51942240902E+02  0.84574618498E+02  0.00000000000E+00 0. -1.
         22    1    3    3    0    0  0.88980306166E+02 -0.21865894884E+03 -0.38915930566E+02  0.23925651600E+03  0.00000000000E+00 0. -1.
</event>
<event>
 7    1  0.4822463E-005  0.7091207E+03  0.7818608E-02  0.1079197E+00
          2   -1    0    0  502    0  0.00000000000E+00  0.00000000000E+00  0.15053138540E+04  0.15053138540E+04  0.00000000000E+00 0. -1.
          1   -1    0    0  501    0 -0.00000000000E+00 -0.00000000000E+00 -0.14859528758E+04  0.14859528758E+04  0.00000000000E+00 0. -1.
         25    2    1    2    0    0 -0.67161913523E+03  0.46500494731E+03 -0.19530026804E+02  0.82662116128E+03  0.12497703187E+03 0.  0.
          2    1    1    2  501    0  0.55162463051E+03 -0.39759230730E+03 -0.94886122577E+03  0.11673504194E+04  0.00000000000E+00 0. -1.
          1    1    1    2  502    0  0.11999450472E+03 -0.67412640004E+02  0.98775223080E+03  0.99729514922E+03  0.00000000000E+00 0. -1.
         22    1    3    3    0    0 -0.18098793221E+03  0.19330343570E+03  0.10099985542E+02  0.26499973503E+03  0.00000000000E+00 0. -1.
         22    1    3    3    0    0 -0.49063120302E+03  0.27170151161E+03 -0.29630012346E+02  0.56162142625E+03  0.00000000000E+00 0. -1.
</event>
<event>
 7    1  0.4822463E-005  0.1437419E+04  0.7818608E-02  0.1032194E+00
          2   -1    0    0  502    0  0.00000000000E+00  0.00000000000E+00  0.30055134869E+04  0.30055134869E+04  0.00000000000E+00 0. -1.
          1   -1    0    0  501    0 -0.00000000000E+00 -0.00000000000E+00 -0.14091481400E+04  0.14091481400E+04  0.00000000000E+00 0. -1.
         25    2    1    2    0    0  0.84212667120E+03  0.12845987377E+04  0.14227349284E+04  0.20974196838E+04  0.12499362564E+03 0.  0.
          2    1    1    2  501    0 -0.73902868787E+03 -0.12024351013E+04 -0.59915129674E+03  0.15332957480E+04  0.00000000000E+00 0. -1.
          1    1    1    2  502    0 -0.10309798333E+03 -0.82163636359E+02  0.77278171534E+03  0.78394619513E+03  0.00000000000E+00 0. -1.
         22    1    3    3    0    0  0.29405087907E+03  0.39193933288E+03  0.52172729623E+03  0.71573859178E+03  0.00000000000E+00 0. -1.
         22    1    3    3    0    0  0.54807579214E+03  0.89265940477E+03  0.90100763212E+03  0.13816810920E+04  0.00000000000E+00 0. -1.
</event>
<event>
 7    1  0.4822463E-005  0.1697047E+03  0.7818608E-02  0.1184081E+00
          2   -1    0    0  502    0  0.00000000000E+00  0.00000000000E+00  0.24359898477E+04  0.24359898477E+04  0.00000000000E+00 0. -1.
          1   -1    0    0  501    0 -0.00000000000E+00 -0.00000000000E+00 -0.30511775124E+03  0.30511775124E+03  0.00000000000E+00 0. -1.
         25    2    1    2    0    0 -0.14289393150E+03 -0.27863932895E+03 -0.36069547007E+02  0.33909349630E+03  0.12499934286E+03 0.  0.
          2    1    1    2  501    0  0.28609354620E+02  0.15619309278E+03 -0.59283359424E+02  0.16949718024E+03  0.00000000000E+00 0. -1.
          1    1    1    2  502    0  0.11428457688E+03  0.12244623617E+03  0.22262250029E+04  0.22325169224E+04  0.00000000000E+00 0. -1.
         22    1    3    3    0    0 -0.11049356010E+03 -0.15870847916E+03 -0.77211348533E+02  0.20822776117E+03  0.00000000000E+00 0. -1.
         22    1    3    3    0    0 -0.32400371403E+02 -0.11993084979E+03  0.41141801526E+02  0.13086573513E+03  0.00000000000E+00 0. -1.
</event>
<event>
 7    1  0.4822463E-005  0.2226721E+03  0.7818608E-02  0.1252841E+00
          2   -1    0    0  502    0  0.00000000000E+00  0.00000000000E+00  0.42914448436E+03  0.42914448436E+03  0.00000000000E+00 0. -1.
          1   -1    0    0  501    0 -0.00000000000E+00 -0.00000000000E+00 -0.19189163563E+03  0.19189163563E+03  0.00000000000E+00 0. -1.
         25    2    1    2    0    0  0.15136723102E+03  0.17112297447E+03  0.18115912273E+02  0.26105265834E+03  0.12500077250E+03 0.  0.
          2    1    1    2  501    0 -0.51737889979E+02  0.27627822594E+02  0.74226546280E+02  0.94602780157E+02  0.00000000000E+00 0. -1.
          1    1    1    2  502    0 -0.99629341045E+02 -0.19875079706E+03  0.14491039018E+03  0.26538068150E+03  0.00000000000E+00 0. -1.
         22    1    3    3    0    0 -0.67947909006E+01  0.22957070619E+02  0.36392449622E+02  0.43561527341E+02  0.00000000000E+00 0.  1.
         22    1    3    3    0    0  0.15816202193E+03  0.14816590385E+03 -0.18276537349E+02  0.21749113099E+03  0.00000000000E+00 0.  1.
</event>
<event>
 7    1  0.4822463E-005  0.1463089E+03  0.7818608E-02  0.1312956E+00
          2   -1    0    0  502    0  0.00000000000E+00  0.00000000000E+00  0.26619327997E+03  0.26619327997E+03  0.00000000000E+00 0. -1.
          1   -1    0    0  501    0 -0.00000000000E+00 -0.00000000000E+00 -0.57733746688E+03  0.57733746688E+03  0.00000000000E+00 0. -1.
         25    2    1    2    0    0  0.46141012380E+02  0.18562041241E+03  0.66862267621E+02  0.23807453575E+03  0.12499996486E+03 0.  0.
          2    1    1    2  501    0 -0.21303475431E+02 -0.14165441831E+03 -0.47498660380E+03  0.49611700846E+03  0.00000000000E+00 0. -1.
          1    1    1    2  502    0 -0.24837536948E+02 -0.43965994101E+02  0.96980149278E+02  0.10933920264E+03  0.00000000000E+00 0. -1.
         22    1    3    3    0    0 -0.40146515834E+02  0.48911057405E+02  0.38956198524E+00  0.63278638012E+02  0.00000000000E+00 0. -1.
         22    1    3    3    0    0  0.86287528214E+02  0.13670935501E+03  0.66472705636E+02  0.17479589774E+03  0.00000000000E+00 0. -1.
</event>
<event>
 7    1  0.4822463E-005  0.7423068E+03  0.7818608E-02  0.1160390E+00
          2   -1    0    0  502    0  0.00000000000E+00  0.00000000000E+00  0.20793340875E+04  0.20793340875E+04  0.00000000000E+00 0. -1.
          1   -1    0    0  501    0 -0.00000000000E+00 -0.00000000000E+00 -0.19941789835E+04  0.19941789835E+04  0.00000000000E+00 0. -1.
         25    2    1    2    0    0  0.62949521389E+01  0.76857958961E+03  0.83438797573E+03  0.11413066723E+04  0.12499365681E+03 0.  0.
          2    1    1    2  501    0 -0.88803325663E+01 -0.46714959170E+02 -0.17210008577E+04  0.17216576605E+04  0.00000000000E+00 0. -1.
          1    1    1    2  502    0  0.25853804274E+01 -0.72186463044E+03  0.97176798599E+03  0.12105487382E+04  0.00000000000E+00 0. -1.
         22    1    3    3    0    0  0.16238412939E+02  0.76681540759E+03  0.81322171232E+03  0.11178546904E+04  0.00000000000E+00 0. -1.
         22    1    3    3    0    0 -0.99434608002E+01  0.17641820180E+01  0.21166263407E+02  0.23451981952E+02  0.00000000000E+00 0. -1.
</event>
<event>
 7    1  0.4823727E-005  0.1938948E+04  0.7818608E-02  0.1083693E+00
          2   -1    0    0  502    0  0.00000000000E+00  0.00000000000E+00  0.24376314690E+04  0.24376314690E+04  0.00000000000E+00 0. -1.
          1   -1    0    0  501    0 -0.00000000000E+00 -0.00000000000E+00 -0.22432516713E+04  0.22432516713E+04  0.00000000000E+00 0. -1.
         25    2    1    2    0    0 -0.14292364182E+04  0.13068795609E+04 -0.15052949990E+03  0.19465186813E+04  0.12499968103E+03 0.  0.
          2    1    1    2  501    0  0.14003200729E+04 -0.13444204198E+04 -0.40494563205E+03  0.19830137510E+04  0.00000000000E+00 0. -1.
          1    1    1    2  502    0  0.28916345381E+02  0.37540858954E+02  0.74985492957E+03  0.75135070807E+03  0.00000000000E+00 0. -1.
         22    1    3    3    0    0 -0.42596491364E+03  0.33712890728E+03 -0.14130297920E+01  0.54323475996E+03  0.00000000000E+00 0.  1.
         22    1    3    3    0    0 -0.10032715046E+04  0.96975065360E+03 -0.14911647011E+03  0.14032839213E+04  0.00000000000E+00 0.  1.
</event>
<event>
 7    1  0.4822463E-005  0.2857206E+03  0.7818608E-02  0.1184408E+00
          2   -1    0    0  502    0  0.00000000000E+00  0.00000000000E+00  0.12116842096E+04  0.12116842096E+04  0.00000000000E+00 0. -1.
          1   -1    0    0  501    0 -0.00000000000E+00 -0.00000000000E+00 -0.52160098878E+03  0.52160098878E+03  0.00000000000E+00 0. -1.
         25    2    1    2    0    0 -0.74577892511E+02 -0.25924696544E+03  0.19463716242E+03  0.35536542091E+03  0.12502042330E+03 0.  0.
          2    1    1    2  501    0 -0.92279469742E+02  0.17752819073E+02 -0.41283013326E+03  0.42339034241E+03  0.00000000000E+00 0. -1.
          1    1    1    2  502    0  0.16685736225E+03  0.24149414637E+03  0.90827619168E+03  0.95452943508E+03  0.00000000000E+00 0. -1.
         22    1    3    3    0    0 -0.90151429821E+02 -0.93079588167E+02  0.98435616053E+02  0.16272879444E+03  0.00000000000E+00 0.  1.
         22    1    3    3    0    0  0.15573537310E+02 -0.16616737727E+03  0.96201546364E+02  0.19263662647E+03  0.00000000000E+00 0.  1.
</event>
<event>
 7    1  0.4822463E-005  0.1181196E+03  0.7818608E-02  0.1305942E+00
          2   -1    0    0  502    0  0.00000000000E+00  0.00000000000E+00  0.11003960383E+04  0.11003960383E+04  0.00000000000E+00 0. -1.
          1   -1    0    0  501    0 -0.00000000000E+00 -0.00000000000E+00 -0.59467722825E+02  0.59467722825E+02  0.00000000000E+00 0. -1.
         25    2    1    2    0    0 -0.12499014347E+03 -0.63903385265E+02  0.86559536640E+03  0.88576811407E+03  0.12499453968E+03 0.  0.
          2    1    1    2  501    0  0.27795794019E+02  0.60590104790E+02 -0.74246322664E+01  0.67073781226E+02  0.00000000000E+00 0. -1.
          1    1    1    2  502    0  0.97194349455E+02  0.33132804754E+01  0.18275758131E+03  0.20702186580E+03  0.00000000000E+00 0. -1.
         22    1    3    3    0    0 -0.77074836816E+02 -0.19988915081E+02  0.17667856508E+03  0.19379216329E+03  0.00000000000E+00 0. -1.
         22    1    3    3    0    0 -0.47915306658E+02 -0.43914470184E+02  0.68891680133E+03  0.69197595078E+03  0.00000000000E+00 0. -1.
</event>
<event>
 7    1  0.4822463E-005  0.2233582E+03  0.7818608E-02  0.1178312E+00
          2   -1    0    0  502    0  0.00000000000E+00  0.00000000000E+00  0.21399192378E+04  0.21399192378E+04  0.00000000000E+00 0. -1.
          1   -1    0    0  501    0 -0.00000000000E+00 -0.00000000000E+00 -0.12671589420E+03  0.12671589420E+03  0.00000000000E+00 0. -1.
         25    2    1    2    0    0  0.98355583365E+02  0.20959423714E+03  0.40525288042E+02  0.26621624097E+03  0.12500089184E+03 0.  0.
          2    1    1    2  501    0 -0.16977510023E+03 -0.10251298774E+03  0.10217847714E+04  0.10408537921E+04  0.00000000000E+00 0. -1.
          1    1    1    2  502    0  0.71419516864E+02 -0.10708124940E+03  0.95089328418E+03  0.95956509902E+03  0.00000000000E+00 0. -1.
         22    1    3    3    0    0  0.51025518944E+02  0.19272195387E+03  0.65838942096E+02  0.20995266463E+03  0.00000000000E+00 0.  1.
         22    1    3    3    0    0  0.47330064422E+02  0.16872283270E+02 -0.25313654054E+02  0.56263576339E+02  0.00000000000E+00 0.  1.
</event>
<event>
 7    1  0.4822463E-005  0.2897790E+03  0.7818608E-02  0.1198304E+00
          2   -1    0    0  502    0  0.00000000000E+00  0.00000000000E+00  0.39466013694E+03  0.39466013694E+03  0.00000000000E+00 0. -1.
          1   -1    0    0  501    0 -0.00000000000E+00 -0.00000000000E+00 -0.49891904054E+03  0.49891904054E+03  0.00000000000E+00 0. -1.
         25    2    1    2    0    0  0.27956166959E+03 -0.23044602697E+02 -0.32960479702E+03  0.45049964491E+03  0.12499930813E+03 0.  0.
          2    1    1    2  501    0  0.82929367984E+01  0.79063883905E+02  0.11928344767E+02  0.80387536023E+02  0.00000000000E+00 0. -1.
          1    1    1    2  502    0 -0.28785460639E+03 -0.56019281209E+02  0.21341754865E+03  0.36269199654E+03  0.00000000000E+00 0. -1.
         22    1    3    3    0    0  0.28753303108E+03 -0.14086713975E+02 -0.33071322439E+03  0.43845742811E+03  0.00000000000E+00 0.  1.
         22    1    3    3    0    0 -0.79713614924E+01 -0.89578887219E+01  0.11084273748E+01  0.12042216808E+02  0.00000000000E+00 0.  1.
</event>
<event>
 7    1  0.4822463E-005  0.1802900E+04  0.7818608E-02  0.1053711E+00
          2   -1    0    0  502    0  0.00000000000E+00  0.00000000000E+00  0.39160492959E+04  0.39160492959E+04  0.00000000000E+00 0. -1.
          1   -1    0    0  501    0 -0.00000000000E+00 -0.00000000000E+00 -0.28694758312E+04  0.28694758312E+04  0.00000000000E+00 0. -1.
         25    2    1    2    0    0 -0.72308150869E+03  0.15814020541E+04  0.13424642546E+04  0.22003442779E+04  0.12500136562E+03 0.  0.
          2    1    1    2  501    0  0.76480126790E+03 -0.16461147696E+04 -0.21021133218E+04  0.27773179926E+04  0.00000000000E+00 0. -1.
          1    1    1    2  502    0 -0.41719759214E+02  0.64712715536E+02  0.18062225319E+04  0.18078628567E+04  0.00000000000E+00 0. -1.
         22    1    3    3    0    0 -0.21220296973E+03  0.38043079066E+03  0.28458171802E+03  0.52033108794E+03  0.00000000000E+00 0.  1.
         22    1    3    3    0    0 -0.51087853896E+03  0.12009712634E+04  0.10578825366E+04  0.16800131900E+04  0.00000000000E+00 0.  1.
</event>
<event>
 7    1  0.4822463E-005  0.5548504E+03  0.7818608E-02  0.1028671E+00
          2   -1    0    0  502    0  0.00000000000E+00  0.00000000000E+00  0.11522659223E+04  0.11522659223E+04  0.00000000000E+00 0. -1.
          1   -1    0    0  501    0 -0.00000000000E+00 -0.00000000000E+00 -0.31549938110E+04  0.31549938110E+04  0.00000000000E+00 0. -1.
         25    2    1    2    0    0 -0.79375547437E+03 -0.19952037683E+03 -0.50752027910E+03  0.97111213872E+03  0.12500327360E+03 0.  0.
          2    1    1    2  501    0  0.44369444414E+03  0.28284611750E+03 -0.23502710093E+04  0.24084518893E+04  0.00000000000E+00 0. -1.
          1    1    1    2  502    0  0.35006103023E+03 -0.83325740665E+02  0.85506339973E+03  0.92769570523E+03  0.00000000000E+00 0. -1.
         22    1    3    3    0    0 -0.30244828006E+03 -0.13316090018E+03 -0.17267720832E+03  0.37285949864E+03  0.00000000000E+00 0. -1.
         22    1    3    3    0    0 -0.49130719431E+03 -0.66359476651E+02 -0.33484307078E+03  0.59825264009E+03  0.00000000000E+00 0. -1.
</event>
<event>
 7    1  0.4822463E-005  0.1970791E+03  0.7818608E-02  0.1275733E+00
          2   -1    0    0  502    0  0.00000000000E+00  0.00000000000E+00  0.16494467049E+04  0.16494467049E+04  0.00000000000E+00 0. -1.
          1   -1    0    0  501    0 -0.00000000000E+00 -0.00000000000E+00 -0.37908279669E+02  0.37908279669E+02  0.00000000000E+00 0. -1.
         25    2    1    2    0    0  0.38389679630E+02  0.16338950876E+03  0.53423092544E+03  0.57375677121E+03  0.12499700692E+03 0.  0.
          2    1    1    2  501    0  0.11401519097E+02  0.51759316154E+02  0.33401709532E+03  0.33819586250E+03  0.00000000000E+00 0. -1.
          1    1    1    2  502    0 -0.49791198727E+02 -0.21514882491E+03  0.74329040443E+03  0.77540235082E+03  0.00000000000E+00 0. -1.
         22    1    3    3    0    0  0.74629474200E+02  0.10662600731E+03  0.25226198115E+03  0.28385695516E+03  0.00000000000E+00 0.  1.
         22    1    3    3    0    0 -0.36239794570E+02  0.56763501445E+02  0.28196894429E+03  0.28989981605E+03  0.00000000000E+00 0.  1.
</event>
<event>
 7    1  0.4822463E-005  0.3192623E+02  0.7818608E-02  0.1598581E+00
          2   -1    0    0  502    0  0.00000000000E+00  0.00000000000E+00  0.83512058127E+03  0.83512058127E+03  0.00000000000E+00 0. -1.
          1   -1    0    0  501    0 -0.00000000000E+00 -0.00000000000E+00 -0.34427148739E+03  0.34427148739E+03  0.00000000000E+00 0. -1.
         25    2    1    2    0    0 -0.12909594456E+02 -0.42504453949E+01  0.74899396154E+03  0.75947546293E+03  0.12500520170E+03 0.  0.
          2    1    1    2  501    0  0.23298493354E+02 -0.21865430370E+02 -0.33580768209E+03  0.33732434864E+03  0.00000000000E+00 0. -1.
          1    1    1    2  502    0 -0.10388898898E+02  0.26115875765E+02  0.77662814425E+02  0.82592257093E+02  0.00000000000E+00 0. -1.
         22    1    3    3    0    0 -0.15240161960E+01 -0.84200157008E+01 -0.16660676233E+01  0.87175151903E+01  0.00000000000E+00 0.  1.
         22    1    3    3    0    0 -0.11385578260E+02  0.41695703059E+01  0.75066002917E+03  0.75075794774E+03  0.00000000000E+00 0.  1.
</event>
<event>
 7    1  0.4822463E-005  0.5095122E+03  0.7818608E-02  0.1237962E+00
          2   -1    0    0  502    0  0.00000000000E+00  0.00000000000E+00  0.12187256695E+04  0.12187256695E+04  0.00000000000E+00 0. -1.
          1   -1    0    0  501    0 -0.00000000000E+00 -0.00000000000E+00 -0.91677584629E+03  0.91677584629E+03  0.00000000000E+00 0. -1.
         25    2    1    2    0    0 -0.44865540845E+03  0.19446055403E+03  0.18917420233E+03  0.53900498118E+03  0.12503162923E+03 0.  0.
          2    1    1    2  501    0 -0.27541533131E+02  0.11311490231E+02 -0.66277607361E+03  0.66344450379E+03  0.00000000000E+00 0. -1.
          1    1    1    2  502    0  0.47619694158E+03 -0.20577204426E+03  0.77555169452E+03  0.93305203083E+03  0.00000000000E+00 0. -1.
         22    1    3    3    0    0 -0.42019034952E+03  0.16318889671E+03  0.13553543789E+03  0.47070202970E+03  0.00000000000E+00 0.  1.
         22    1    3    3    0    0 -0.28465058937E+02  0.31271657313E+02  0.53638764437E+02  0.68302951486E+02  0.00000000000E+00 0.  1.
</event>
<event>
 7    1  0.4822463E-005  0.3394900E+03  0.7818608E-02  0.1152128E+00
          2   -1    0    0  502    0  0.00000000000E+00  0.00000000000E+00  0.50053994051E+03  0.50053994051E+03  0.00000000000E+00 0. -1.
          1   -1    0    0  501    0 -0.00000000000E+00 -0.00000000000E+00 -0.73100818845E+03  0.73100818845E+03  0.00000000000E+00 0. -1.
         25    2    1    2    0    0  0.37979932652E+03  0.19799798569E+03 -0.17795980211E+02  0.44653490363E+03  0.12500396988E+03 0.  0.
          2    1    1    2  501    0 -0.26861013518E+03 -0.17048973903E+03 -0.43263138409E+03  0.53701775607E+03  0.00000000000E+00 0. -1.
          1    1    1    2  502    0 -0.11118919134E+03 -0.27508246661E+02  0.21995911636E+03  0.24799546926E+03  0.00000000000E+00 0. -1.
         22    1    3    3    0    0  0.22089923313E+02 -0.84669895982E+01  0.21086711187E+02  0.31690755963E+02  0.00000000000E+00 0.  1.
         22    1    3    3    0    0  0.35770940320E+03  0.20646497529E+03 -0.38882691398E+02  0.41484414766E+03  0.00000000000E+00 0.  1.
</event>
<event>
 7    1  0.4822463E-005  0.1002485E+04  0.7818608E-02  0.1051822E+00
          2   -1    0    0  502    0  0.00000000000E+00  0.00000000000E+00  0.47392501384E+04  0.47392501384E+04  0.00000000000E+00 0. -1.
          1   -1    0    0  501    0 -0.00000000000E+00 -0.00000000000E+00 -0.65073149742E+03  0.65073149742E+03  0.00000000000E+00 0. -1.
         25    2    1    2    0    0  0.80512483810E+03  0.52299542371E+03  0.22981531286E+03  0.99508281504E+03  0.12499805045E+03 0.  0.
          2    1    1    2  501    0 -0.85925252733E+03 -0.65452738774E+03  0.82834417880E+03  0.13612035430E+04  0.00000000000E+00 0. -1.
          1    1    1    2  502    0  0.54127689226E+02  0.13153196403E+03  0.30303591494E+04  0.30336952778E+04  0.00000000000E+00 0. -1.
         22    1    3    3    0    0  0.17895968593E+03  0.10191003070E+03  0.10175894378E+03  0.22971091873E+03  0.00000000000E+00 0. -1.
         22    1    3    3    0    0  0.62616515217E+03  0.42108539301E+03  0.12805636909E+03  0.76537189631E+03  0.00000000000E+00 0. -1.
</event>
<event>
 7    1  0.4822463E-005  0.6216237E+02  0.7818608E-02  0.1391910E+00
          2   -1    0    0  502    0  0.00000000000E+00  0.00000000000E+00  0.13181038427E+04  0.13181038427E+04  0.00000000000E+00 0. -1.
          1   -1    0    0  501    0 -0.00000000000E+00 -0.00000000000E+00 -0.13027993772E+03  0.13027993772E+03  0.00000000000E+00 0. -1.
         25    2    1    2    0    0  0.21853561759E+02 -0.15432594504E+02  0.29145938957E+03  0.31825901107E+03  0.12499791688E+03 0.  0.
          2    1    1    2  501    0 -0.46058209315E+02 -0.41823799614E+02 -0.10757116466E+03  0.12426642477E+03  0.00000000000E+00 0. -1.
          1    1    1    2  502    0  0.24204647557E+02  0.57256394118E+02  0.10039356801E+04  0.10058583446E+04  0.00000000000E+00 0. -1.
         22    1    3    3    0    0  0.15217032336E+02  0.10044480071E+02  0.29136161216E+03  0.29193156508E+03  0.00000000000E+00 0.  1.
         22    1    3    3    0    0  0.66365294230E+01 -0.25477074575E+02  0.97777410183E-01  0.26327445985E+02  0.00000000000E+00 0.  1.
</event>
<event>
 7    1  0.4822463E-005  0.3492153E+03  0.7818608E-02  0.1134016E+00
          2   -1    0    0  502    0  0.00000000000E+00  0.00000000000E+00  0.21746097096E+03  0.21746097096E+03  0.00000000000E+00 0. -1.
          1   -1    0    0  501    0 -0.00000000000E+00 -0.00000000000E+00 -0.19501120587E+04  0.19501120587E+04  0.00000000000E+00 0. -1.
         25    2    1    2    0    0 -0.35900870891E+03 -0.18725831488E+03 -0.16247363610E+03  0.45384454529E+03  0.12499703717E+03 0.  0.
          2    1    1    2  501    0  0.70626694237E+02  0.11898949321E+03 -0.13161449446E+04  0.13233987097E+04  0.00000000000E+00 0. -1.
          1    1    1    2  502    0  0.28838201467E+03  0.68268821673E+02 -0.25403250695E+03  0.39032977466E+03  0.00000000000E+00 0. -1.
         22    1    3    3    0    0 -0.36332437549E+03 -0.16171965144E+03 -0.14935946688E+03  0.42481301515E+03  0.00000000000E+00 0. -1.
         22    1    3    3    0    0  0.43156665872E+01 -0.25538663438E+02 -0.13114169221E+02  0.29031530146E+02  0.00000000000E+00 0. -1.
</event>
<event>
 7    1  0.4822463E-005  0.1837059E+03  0.7818608E-02  0.1342797E+00
          2   -1    0    0  502    0  0.00000000000E+00  0.00000000000E+00  0.83154821747E+03  0.83154821747E+03  0.00000000000E+00 0. -1.
          1   -1    0    0  501    0 -0.00000000000E+00 -0.00000000000E+00 -0.17639805652E+03  0.17639805652E+03  0.00000000000E+00 0. -1.
         25    2    1    2    0    0  0.80281227466E+02 -0.17982324652E+03  0.55490417972E+03  0.60193434289E+03  0.12499931601E+03 0.  0.
          2    1    1    2  501    0 -0.21225275329E+02  0.22462574767E+02 -0.12285596391E+03  0.12668333532E+03  0.00000000000E+00 0. -1.
          1    1    1    2  502    0 -0.59055952137E+02  0.15736067175E+03  0.22310194514E+03  0.27932859579E+03  0.00000000000E+00 0. -1.
         22    1    3    3    0    0  0.68651657887E+02 -0.51840086636E+02  0.34711720245E+03  0.35761822794E+03  0.00000000000E+00 0.  1.
         22    1    3    3    0    0  0.11629569579E+02 -0.12798315989E+03  0.20778697727E+03  0.24431611495E+03  0.00000000000E+00 0.  1.
</event>
<event>
 7    1  0.4822463E-005  0.7081956E+02  0.7818608E-02  0.1432473E+00
          2   -1    0    0  502    0  0.00000000000E+00  0.00000000000E+00  0.86094744106E+03  0.86094744106E+03  0.00000000000E+00 0. -1.
          1   -1    0    0  501    0 -0.00000000000E+00 -0.00000000000E+00 -0.27388758689E+02  0.27388758689E+02  0.00000000000E+00 0. -1.
         25    2    1    2    0    0 -0.74992319301E+02  0.56391390411E+02  0.26488978358E+03  0.30756529152E+03  0.12500389688E+03 0.  0.
          2    1    1    2  501    0  0.87848553504E+01 -0.37864529034E+02  0.10367892075E+03  0.11072585448E+03  0.00000000000E+00 0. -1.
          1    1    1    2  502    0  0.66207463950E+02 -0.18526861377E+02  0.46498997805E+03  0.47004505376E+03  0.00000000000E+00 0. -1.
         22    1    3    3    0    0  0.12493958058E+02  0.40339054143E+02  0.19426910775E+02  0.46483794374E+02  0.00000000000E+00 0. -1.
         22    1    3    3    0    0 -0.87486277358E+02  0.16052336268E+02  0.24546287280E+03  0.26108149714E+03  0.00000000000E+00 0. -1.
</event>
<event>
 7    1  0.4822463E-005  0.4765350E+03  0.7818608E-02  0.1141474E+00
          2   -1    0    0  502    0  0.00000000000E+00  0.00000000000E+00  0.18125245684E+04  0.18125245684E+04  0.00000000000E+00 0. -1.
          1   -1    0    0  501    0 -0.00000000000E+00 -0.00000000000E+00 -0.88442394924E+03  0.88442394924E+03  0.00000000000E+00 0. -1.
         25    2    1    2    0    0 -0.45522563938E+02 -0.40078487920E+03  0.37349070953E+03  0.56375601870E+03  0.12499886116E+03 0.  0.
          2    1    1    2  501    0  0.15186183108E+02  0.48832265318E+03 -0.71183427187E+03  0.86336415514E+03  0.00000000000E+00 0. -1.
          1    1    1    2  502    0  0.30336380830E+02 -0.87537773973E+02  0.12664441815E+04  0.12698283438E+04  0.00000000000E+00 0. -1.
         22    1    3    3    0    0  0.43695899391E+02 -0.13009596147E+03  0.11800235343E+03  0.18099405026E+03  0.00000000000E+00 0. -1.
         22    1    3    3    0    0 -0.89218463328E+02 -0.27068891773E+03  0.25548835610E+03  0.38276196844E+03  0.00000000000E+00 0. -1.
</event>
<event>
 7    1  0.4822463E-005  0.1995372E+03  0.7818608E-02  0.1177125E+00
          2   -1    0    0  502    0  0.00000000000E+00  0.00000000000E+00  0.84685893230E+03  0.84685893230E+03  0.00000000000E+00 0. -1.
          1   -1    0    0  501    0 -0.00000000000E+00 -0.00000000000E+00 -0.55741186184E+03  0.55741186184E+03  0.00000000000E+00 0. -1.
         25    2    1    2    0    0 -0.24261012661E+03  0.82964408886E+02  0.13943423472E+03  0.31750590750E+03  0.12500131523E+03 0.  0.
          2    1    1    2  501    0  0.12567317943E+03  0.74354162426E+02 -0.44076151546E+03  0.46431993604E+03  0.00000000000E+00 0. -1.
          1    1    1    2  502    0  0.11693694718E+03 -0.15731857131E+03  0.59077435120E+03  0.62244495060E+03  0.00000000000E+00 0. -1.
         22    1    3    3    0    0 -0.39931949284E+02 -0.76444671498E+01  0.76688796204E+02  0.86799596282E+02  0.00000000000E+00 0.  1.
         22    1    3    3    0    0 -0.20267817732E+03  0.90608876036E+02  0.62745438513E+02  0.23070631121E+03  0.00000000000E+00 0.  1.
</event>
<event>
 7    1  0.4822463E-005  0.4287052E+03  0.7818608E-02  0.1253275E+00
          2   -1    0    0  502    0  0.00000000000E+00  0.00000000000E+00  0.63560395465E+03  0.63560395465E+03  0.00000000000E+00 0. -1.
          1   -1    0    0  501    0 -0.00000000000E+00 -0.00000000000E+00 -0.38756440531E+03  0.38756440531E+03  0.00000000000E+00 0. -1.
         25    2    1    2    0    0 -0.25661648114E+03  0.31783731746E+03 -0.10189594157E+03  0.43918173610E+03  0.12500094263E+03 0.  0.
          2    1    1    2  501    0 -0.26212552614E+02  0.15264668143E+02  0.27284789898E+02  0.40799114792E+02  0.00000000000E+00 0. -1.
          1    1    1    2  502    0  0.28282903375E+03 -0.33310198561E+03  0.32265070100E+03  0.54318750906E+03  0.00000000000E+00 0. -1.
         22    1    3    3    0    0 -0.69249761902E+02  0.20659932323E+02  0.36459618487E+01  0.72357828635E+02  0.00000000000E+00 0. -1.
         22    1    3    3    0    0 -0.18736671923E+03  0.29717738514E+03 -0.10554190341E+03  0.36682390747E+03  0.00000000000E+00 0. -1.
</event>
<event>
 7    1  0.4822463E-005  0.3035775E+03  0.7818608E-02  0.1184643E+00
          2   -1    0    0  502    0  0.00000000000E+00  0.00000000000E+00  0.43819355368E+03  0.43819355368E+03  0.00000000000E+00 0. -1.
          1   -1    0    0  501    0 -0.00000000000E+00 -0.00000000000E+00 -0.49346986619E+03  0.49346986619E+03  0.00000000000E+00 0. -1.
         25    2    1    2    0    0  0.26988581421E+03  0.21740719636E+03 -0.16584292204E+03  0.40401698210E+03  0.12498642044E+03 0.  0.
          2    1    1    2  501    0 -0.18326153159E+03 -0.20074303173E+03 -0.10758833624E+03  0.29233166754E+03  0.00000000000E+00 0. -1.
          1    1    1    2  502    0 -0.86624282616E+02 -0.16664164633E+02  0.21815494578E+03  0.23531477023E+03  0.00000000000E+00 0. -1.
         22    1    3    3    0    0  0.23773150186E+03  0.19052569056E+03 -0.90523025176E+02  0.31782184291E+03  0.00000000000E+00 0. -1.
         22    1    3    3    0    0  0.32154312346E+02  0.26881505799E+02 -0.75319896867E+02  0.86195139193E+02  0.00000000000E+00 0. -1.
</event>
<event>
 7    1  0.4822463E-005  0.8497543E+02  0.7818608E-02  0.1325772E+00
          2   -1    0    0  502    0  0.00000000000E+00  0.00000000000E+00  0.12672259974E+03  0.12672259974E+03  0.00000000000E+00 0. -1.
          1   -1    0    0  501    0 -0.00000000000E+00 -0.00000000000E+00 -0.88374753426E+03  0.88374753426E+03  0.00000000000E+00 0. -1.
         25    2    1    2    0    0  0.23344834674E+02  0.11681292802E+03 -0.17877370835E+03  0.24854758661E+03  0.12500249017E+03 0.  0.
          2    1    1    2  501    0  0.42741296095E+02 -0.64683252173E+02 -0.64799147739E+03  0.65261297587E+03  0.00000000000E+00 0. -1.
          1    1    1    2  502    0 -0.66086130769E+02 -0.52129675849E+02  0.69740251227E+02  0.10930957152E+03  0.00000000000E+00 0. -1.
         22    1    3    3    0    0 -0.32727274965E+02 -0.61841814775E+00 -0.77385199938E+01  0.33635422687E+02  0.00000000000E+00 0. -1.
         22    1    3    3    0    0  0.56072109639E+02  0.11743134617E+03 -0.17103518836E+03  0.21491216392E+03  0.00000000000E+00 0. -1.
</event>
<event>
 7    1  0.4822463E-005  0.2253629E+03  0.7818608E-02  0.1160286E+00
          2   -1    0    0  502    0  0.00000000000E+00  0.00000000000E+00  0.16420572199E+04  0.16420572199E+04  0.00000000000E+00 0. -1.
          1   -1    0    0  501    0 -0.00000000000E+00 -0.00000000000E+00 -0.91771658497E+02  0.91771658497E+02  0.00000000000E+00 0. -1.
         25    2    1    2    0    0 -0.11188477524E+03 -0.25005819023E+03  0.82842456668E+03  0.88145621002E+03  0.12502194235E+03 0.  0.
          2    1    1    2  501    0 -0.69412634210E+02  0.14061813183E+03  0.79124431411E+02  0.17564808122E+03  0.00000000000E+00 0. -1.
          1    1    1    2  502    0  0.18129740945E+03  0.10944005839E+03  0.64273656333E+03  0.67672458718E+03  0.00000000000E+00 0. -1.
         22    1    3    3    0    0 -0.87710974575E+02 -0.95260488329E+02  0.51532006697E+03  0.53134033079E+03  0.00000000000E+00 0. -1.
         22    1    3    3    0    0 -0.24173800665E+02 -0.15479770190E+03  0.31310449971E+03  0.35011587923E+03  0.00000000000E+00 0. -1.
</event>
<event>
 7    1  0.4822463E-005  0.1625097E+03  0.7818608E-02  0.1279857E+00
          2   -1    0    0  502    0  0.00000000000E+00  0.00000000000E+00  0.19644101669E+04  0.19644101669E+04  0.00000000000E+00 0. -1.
          1   -1    0    0  501    0 -0.00000000000E+00 -0.00000000000E+00 -0.42615212622E+02  0.42615212622E+02  0.00000000000E+00 0. -1.
         25    2    1    2    0    0 -0.71753214185E+02  0.10339708561E+03  0.51431127985E+03  0.54404083892E+03  0.12499944311E+03 0.  0.
          2    1    1    2  501    0  0.86572968752E+02 -0.16338577529E+03  0.29089782070E+03  0.34469019796E+03  0.00000000000E+00 0. -1.
          1    1    1    2  502    0 -0.14819754567E+02  0.59988689681E+02  0.11165858537E+04  0.11182943426E+04  0.00000000000E+00 0. -1.
         22    1    3    3    0    0 -0.93590712756E+02  0.11748027850E+03  0.45852192252E+03  0.48249682982E+03  0.00000000000E+00 0.  1.
         22    1    3    3    0    0  0.21837498571E+02 -0.14083192892E+02  0.55789357323E+02  0.61544009103E+02  0.00000000000E+00 0.  1.
</event>
<event>
 7    1  0.4822463E-005  0.3356635E+03  0.7818608E-02  0.1141534E+00
          2   -1    0    0  502    0  0.00000000000E+00  0.00000000000E+00  0.38944405654E+04  0.38944405654E+04  0.00000000000E+00 0. -1.
          1   -1    0    0  501    0 -0.00000000000E+00 -0.00000000000E+00 -0.55344056931E+03  0.55344056931E+03  0.00000000000E+00 0. -1.
         25    2    1    2    0    0  0.24489444092E+03  0.31616267383E+03  0.39849780586E+03  0.57823647307E+03  0.12499917597E+03 0.  0.
          2    1    1    2  501    0 -0.11361982814E+03 -0.30971376663E+03 -0.40342499374E+03  0.52113703395E+03  0.00000000000E+00 0. -1.
          1    1    1    2  502    0 -0.13127461279E+03 -0.64489071970E+01  0.33459271839E+04  0.33485076277E+04  0.00000000000E+00 0. -1.
         22    1    3    3    0    0  0.19741660864E+03  0.25173231199E+03  0.23746620649E+03  0.39841269243E+03  0.00000000000E+00 0. -1.
         22    1    3    3    0    0  0.47477832285E+02  0.64430361835E+02  0.16103159938E+03  0.17982378064E+03  0.00000000000E+00 0. -1.
</event>
<event>
 7    1  0.4822463E-005  0.1166173E+03  0.7818608E-02  0.1303535E+00
          2   -1    0    0  502    0  0.00000000000E+00  0.00000000000E+00  0.98020495528E+02  0.98020495528E+02  0.00000000000E+00 0. -1.
          1   -1    0    0  501    0 -0.00000000000E+00 -0.00000000000E+00 -0.15698777292E+04  0.15698777292E+04  0.00000000000E+00 0. -1.
         25    2    1    2    0    0  0.12048924371E+03 -0.11874655531E+03 -0.23650865114E+03  0.31651194166E+03  0.12500025961E+03 0.  0.
          2    1    1    2  501    0 -0.63265479249E+02  0.27600700302E+02 -0.12416638217E+04  0.12435808642E+04  0.00000000000E+00 0. -1.
          1    1    1    2  502    0 -0.57223764463E+02  0.91145855008E+02  0.63152391711E+01  0.10780541893E+03  0.00000000000E+00 0. -1.
         22    1    3    3    0    0  0.13733343790E+03 -0.61976249774E+02 -0.17892277786E+03  0.23391213979E+03  0.00000000000E+00 0.  1.
         22    1    3    3    0    0 -0.16844194191E+02 -0.56770305535E+02 -0.57585873279E+02  0.82599801875E+02  0.00000000000E+00 0.  1.
</event>
<event>
 7    1  0.4822463E-005  0.1911727E+03  0.7818608E-02  0.1190279E+00
          2   -1    0    0  502    0  0.00000000000E+00  0.00000000000E+00  0.78934667683E+03  0.78934667683E+03  0.00000000000E+00 0. -1.
          1   -1    0    0  501    0 -0.00000000000E+00 -0.00000000000E+00 -0.20225679348E+04  0.20225679348E+04  0.00000000000E+00 0. -1.
         25    2    1    2    0    0 -0.39360946145E+02  0.24475093915E+03  0.28761509341E+03  0.39974931043E+03  0.12499905172E+03 0.  0.
          2    1    1    2  501    0  0.10666474816E+03 -0.77059665712E+02 -0.19458714898E+04  0.19503157220E+04  0.00000000000E+00 0. -1.
          1    1    1    2  502    0 -0.67303802017E+02 -0.16769127344E+03  0.42503513841E+03  0.46184957923E+03  0.00000000000E+00 0. -1.
         22    1    3    3    0    0 -0.22322173230E+02 -0.30715554266E+01  0.54979492694E+02  0.59417661410E+02  0.00000000000E+00 0. -1.
         22    1    3    3    0    0 -0.17038772915E+02  0.24782249458E+03  0.23263560072E+03  0.34033164902E+03  0.00000000000E+00 0. -1.
</event>
<event>
 7    1  0.4822463E-005  0.4261962E+03  0.7818608E-02  0.1167655E+00
          2   -1    0    0  502    0  0.00000000000E+00  0.00000000000E+00  0.15532073205E+04  0.15532073205E+04  0.00000000000E+00 0. -1.
          1   -1    0    0  501    0 -0.00000000000E+00 -0.00000000000E+00 -0.12824891290E+04  0.12824891290E+04  0.00000000000E+00 0. -1.
         25    2    1    2    0    0 -0.93206167870E+01 -0.47413441989E+03  0.52506381077E+03  0.71847604374E+03  0.12500199207E+03 0.  0.
          2    1    1    2  501    0  0.30035354828E+02  0.69976710590E+02 -0.11404963553E+04  0.11430357820E+04  0.00000000000E+00 0. -1.
          1    1    1    2  502    0 -0.20714738041E+02  0.40415770930E+03  0.88615073596E+03  0.97418462377E+03  0.00000000000E+00 0. -1.
         22    1    3    3    0    0  0.50944708331E+02 -0.10958942896E+03  0.13501945791E+03  0.18120557459E+03  0.00000000000E+00 0.  1.
         22    1    3    3    0    0 -0.60265325118E+02 -0.36454499094E+03  0.39004435285E+03  0.53727046915E+03  0.00000000000E+00 0.  1.
</event>
<event>
 7    1  0.4822463E-005  0.4835166E+03  0.7818608E-02  0.1237681E+00
          2   -1    0    0  502    0  0.00000000000E+00  0.00000000000E+00  0.12653048301E+04  0.12653048301E+04  0.00000000000E+00 0. -1.
          1   -1    0    0  501    0 -0.00000000000E+00 -0.00000000000E+00 -0.63417189390E+03  0.63417189390E+03  0.00000000000E+00 0. -1.
         25    2    1    2    0    0  0.41346449496E+03 -0.30097256460E+03 -0.25183209818E+03  0.58358531858E+03  0.12496017428E+03 0.  0.
          2    1    1    2  501    0 -0.24176742349E+02  0.20137302238E+02 -0.16248803735E+03  0.16550645937E+03  0.00000000000E+00 0. -1.
          1    1    1    2  502    0 -0.38928775261E+03  0.28083526236E+03  0.10454530718E+04  0.11503849461E+04  0.00000000000E+00 0. -1.
         22    1    3    3    0    0  0.22034975567E+03 -0.15665594314E+03 -0.63647233406E+02  0.27775181307E+03  0.00000000000E+00 0.  1.
         22    1    3    3    0    0  0.19311473929E+03 -0.14431662146E+03 -0.18818486478E+03  0.30583350551E+03  0.00000000000E+00 0.  1.
</event>
<event>
 7    1  0.4822463E-005  0.3603943E+03  0.7818608E-02  0.1168208E+00
          2   -1    0    0  502    0  0.00000000000E+00  0.00000000000E+00  0.32053002472E+04  0.32053002472E+04  0.00000000000E+00 0. -1.
          1   -1    0    0  501    0 -0.00000000000E+00 -0.00000000000E+00 -0.77102037067E+03  0.77102037067E+03  0.00000000000E+00 0. -1.
         25    2    1    2    0    0  0.14564538920E+03  0.24286200676E+03  0.26896089413E+04  0.27073633461E+04  0.12500198871E+03 0.  0.
          2    1    1    2  501    0 -0.14276309901E+03 -0.33230012317E+03 -0.71467434474E+03  0.80097696180E+03  0.00000000000E+00 0. -1.
          1    1    1    2  502    0 -0.28822901924E+01  0.89438116404E+02  0.45934528001E+03  0.46798030998E+03  0.00000000000E+00 0. -1.
         22    1    3    3    0    0  0.42982893623E+02  0.17589532832E+03  0.18524835877E+04  0.18613119401E+04  0.00000000000E+00 0.  1.
         22    1    3    3    0    0  0.10266249557E+03  0.66966678450E+02  0.83712535353E+03  0.84605140597E+03  0.00000000000E+00 0.  1.
</event>
<event>
 7    1  0.4822463E-005  0.4865854E+03  0.7818608E-02  0.1226532E+00
          2   -1    0    0  502    0  0.00000000000E+00  0.00000000000E+00  0.13138680137E+04  0.13138680137E+04  0.00000000000E+00 0. -1.
          1   -1    0    0  501    0 -0.00000000000E+00 -0.00000000000E+00 -0.29686886984E+03  0.29686886984E+03  0.00000000000E+00 0. -1.
         25    2    1    2    0    0 -0.44963946336E+03 -0.14806226608E+03  0.76416805689E+03  0.90756220862E+03  0.12497304387E+03 0.  0.
          2    1    1    2  501    0  0.45586979727E+03  0.18257078226E+03  0.45806629096E+02  0.49320138875E+03  0.00000000000E+00 0. -1.
          1    1    1    2  502    0 -0.62303339054E+01 -0.34508516178E+02  0.20702445788E+03  0.20997328618E+03  0.00000000000E+00 0. -1.
         22    1    3    3    0    0  0.60857990237E+01 -0.12023723776E+02  0.14835070445E+02  0.20042110625E+02  0.00000000000E+00 0. -1.
         22    1    3    3    0    0 -0.45572526239E+03 -0.13603854230E+03  0.74933298644E+03  0.88752009799E+03  0.00000000000E+00 0. -1.
</event>
<event>
 7    1  0.4822463E-005  0.1314158E+03  0.7818608E-02  0.1355798E+00
          2   -1    0    0  502    0  0.00000000000E+00  0.00000000000E+00  0.23054347762E+03  0.23054347762E+03  0.00000000000E+00 0. -1.
          1   -1    0    0  501    0 -0.00000000000E+00 -0.00000000000E+00 -0.16934055155E+04  0.16934055155E+04  0.00000000000E+00 0. -1.
         25    2    1    2    0    0 -0.51963227248E+02 -0.13686835208E+03 -0.88568603407E+02  0.21192055776E+03  0.12503120612E+03 0.  0.
          2    1    1    2  501    0 -0.22937961715E+02  0.31120834359E+02 -0.15180177349E+04  0.15185099605E+04  0.00000000000E+00 0. -1.
          1    1    1    2  502    0  0.74901188964E+02  0.10574751772E+03  0.14372430043E+03  0.19351847495E+03  0.00000000000E+00 0. -1.
         22    1    3    3    0    0 -0.32596663581E+02 -0.97112108975E+02 -0.11991778862E+03  0.15771360186E+03  0.00000000000E+00 0.  1.
         22    1    3    3    0    0 -0.19366563667E+02 -0.39756243101E+02  0.31349185210E+02  0.54206955892E+02  0.00000000000E+00 0.  1.
</event>
<event>
 7    1  0.4822463E-005  0.4277733E+03  0.7818608E-02  0.1193612E+00
          2   -1    0    0  502    0  0.00000000000E+00  0.00000000000E+00  0.68665367993E+03  0.68665367993E+03  0.00000000000E+00 0. -1.
          1   -1    0    0  501    0 -0.00000000000E+00 -0.00000000000E+00 -0.30421873287E+04  0.30421873287E+04  0.00000000000E+00 0. -1.
         25    2    1    2    0    0 -0.30902478633E+03  0.36182049325E+03 -0.19591777748E+02  0.49236047108E+03  0.12499843127E+03 0.  0.
          2    1    1    2  501    0  0.25799126852E+03 -0.33714102699E+03 -0.27681787117E+04  0.28005422594E+04  0.00000000000E+00 0. -1.
          1    1    1    2  502    0  0.51033517816E+02 -0.24679466267E+02  0.43223684064E+03  0.43593827820E+03  0.00000000000E+00 0. -1.
         22    1    3    3    0    0 -0.18740237218E+02  0.96973766002E+02 -0.10275918779E+02  0.99301068929E+02  0.00000000000E+00 0. -1.
         22    1    3    3    0    0 -0.29028454912E+03  0.26484672725E+03 -0.93158589690E+01  0.39305940215E+03  0.00000000000E+00 0. -1.
</event>
<event>
 7    1  0.4822463E-005  0.9497752E+02  0.7818608E-02  0.1320005E+00
          2   -1    0    0  502    0  0.00000000000E+00  0.00000000000E+00  0.97387199642E+03  0.97387199642E+03  0.00000000000E+00 0. -1.
          1   -1    0    0  501    0 -0.00000000000E+00 -0.00000000000E+00 -0.73731150613E+02  0.73731150613E+02  0.00000000000E+00 0. -1.
         25    2    1    2    0    0 -0.14471529061E+03 -0.33880447192E+02  0.19010381651E+03  0.27176898242E+03  0.12501407408E+03 0.  0.
          2    1    1    2  501    0  0.54186433479E+02  0.48939411534E+02  0.14716778982E+02  0.74483683839E+02  0.00000000000E+00 0. -1.
          1    1    1    2  502    0  0.90528857128E+02 -0.15058964342E+02  0.69532025032E+03  0.70135048077E+03  0.00000000000E+00 0. -1.
         22    1    3    3    0    0 -0.16237791483E+03 -0.34417151806E+02  0.13516336107E+03  0.21405667880E+03  0.00000000000E+00 0. -1.
         22    1    3    3    0    0  0.17662624218E+02  0.53670461360E+00  0.54940455435E+02  0.57712303623E+02  0.00000000000E+00 0. -1.
</event>
<event>
 7    1  0.4822463E-005  0.7713357E+03  0.7818608E-02  0.1095037E+00
          2   -1    0    0  502    0  0.00000000000E+00  0.00000000000E+00  0.10741729658E+04  0.10741729658E+04  0.00000000000E+00 0. -1.
          1   -1    0    0  501    0 -0.00000000000E+00 -0.00000000000E+00 -0.10925938797E+04  0.10925938797E+04  0.00000000000E+00 0. -1.
         25    2    1    2    0    0  0.62206091476E+03 -0.53837768007E+03  0.19656509004E+03  0.85502916323E+03  0.12500690891E+03 0.  0.
          2    1    1    2  501    0 -0.61504244269E+03  0.43610548674E+03 -0.56810576547E+03  0.94403885653E+03  0.00000000000E+00 0. -1.
          1    1    1    2  502    0 -0.70184720761E+01  0.10227219333E+03  0.35311976149E+03  0.36769882572E+03  0.00000000000E+00 0. -1.
         22    1    3    3    0    0  0.52624833960E+03 -0.38830812726E+03  0.14972068157E+03  0.67092234955E+03  0.00000000000E+00 0. -1.
         22    1    3    3    0    0  0.95812575160E+02 -0.15006955281E+03  0.46844408474E+02  0.18410681368E+03  0.00000000000E+00 0. -1.
</event>
<event>
 7    1  0.4822463E-005  0.1104973E+03  0.7818608E-02  0.1375747E+00
          2   -1    0    0  502    0  0.00000000000E+00  0.00000000000E+00  0.11231619030E+04  0.11231619030E+04  0.00000000000E+00 0. -1.
          1   -1    0    0  501    0 -0.00000000000E+00 -0.00000000000E+00 -0.45979940134E+03  0.45979940134E+03  0.00000000000E+00 0. -1.
         25    2    1    2    0    0 -0.82086742476E+02  0.29921472014E+01 -0.43924167871E+03  0.46401084332E+03  0.12500249663E+03 0.  0.
          2    1    1    2  501    0 -0.23173342208E+02  0.31293614019E+02  0.67369157612E+02  0.77813221658E+02  0.00000000000E+00 0. -1.
          1    1    1    2  502    0  0.10526008468E+03 -0.34285761220E+02  0.10352350228E+04  0.10411372394E+04  0.00000000000E+00 0. -1.
         22    1    3    3    0    0 -0.53707811961E+02  0.49146888096E+02 -0.12117516568E+03  0.14136253553E+03  0.00000000000E+00 0.  1.
         22    1    3    3    0    0 -0.28378930515E+02 -0.46154740894E+02 -0.31806651303E+03  0.32264830779E+03  0.00000000000E+00 0.  1.
</event>
<event>
 7    1  0.4822463E-005  0.1223792E+03  0.7818608E-02  0.1290617E+00
          2   -1    0    0  502    0  0.00000000000E+00  0.00000000000E+00  0.30644617664E+03  0.30644617664E+03  0.00000000000E+00 0. -1.
          1   -1    0    0  501    0 -0.00000000000E+00 -0.00000000000E+00 -0.20324822918E+03  0.20324822918E+03  0.00000000000E+00 0. -1.
         25    2    1    2    0    0 -0.13867296891E+03 -0.43357253916E+02 -0.87152450212E+02  0.21054521296E+03  0.12499477328E+03 0.  0.
          2    1    1    2  501    0  0.57204479670E+02 -0.47151930828E+02  0.11430250483E+01  0.74141510514E+02  0.00000000000E+00 0. -1.
          1    1    1    2  502    0  0.81468489241E+02  0.90509184744E+02  0.18920737263E+03  0.22500768235E+03  0.00000000000E+00 0. -1.
         22    1    3    3    0    0 -0.85516974043E+02  0.12916561932E+02  0.91704237824E+01  0.86971760324E+02  0.00000000000E+00 0.  1.
         22    1    3    3    0    0 -0.53155994868E+02 -0.56273815848E+02 -0.96322873995E+02  0.12357345263E+03  0.00000000000E+00 0.  1.
</event>
<event>
 7    1  0.4822463E-005  0.5915928E+02  0.7818608E-02  0.1479148E+00
          2   -1    0    0  502    0  0.00000000000E+00  0.00000000000E+00  0.10181524784E+04  0.10181524784E+04  0.00000000000E+00 0. -1.
          1   -1    0    0  501    0 -0.00000000000E+00 -0.00000000000E+00 -0.77755537781E+02  0.77755537781E+02  0.00000000000E+00 0. -1.
         25    2    1    2    0    0  0.37839654967E+02 -0.81414589634E+02  0.44851057965E+01  0.15396816492E+03  0.12500361891E+03 0.  0.
          2    1    1    2  501    0 -0.50381875128E+01  0.32695958674E+02  0.13964938009E+03  0.14351431429E+03  0.00000000000E+00 0. -1.
          1    1    1    2  502    0 -0.32801467455E+02  0.48718630960E+02  0.79626245477E+03  0.79842553701E+03  0.00000000000E+00 0. -1.
         22    1    3    3    0    0  0.47907816481E+02 -0.30455236605E+02 -0.52173271132E+02  0.77102078683E+02  0.00000000000E+00 0.  1.
         22    1    3    3    0    0 -0.10068161513E+02 -0.50959353029E+02  0.56658376928E+02  0.76866086238E+02  0.00000000000E+00 0.  1.
</event>
<event>
 7    1  0.4822463E-005  0.4269788E+03  0.7818608E-02  0.1218904E+00
          2   -1    0    0  502    0  0.00000000000E+00  0.00000000000E+00  0.35285075737E+03  0.35285075737E+03  0.00000000000E+00 0. -1.
          1   -1    0    0  501    0 -0.00000000000E+00 -0.00000000000E+00 -0.17065577133E+04  0.17065577133E+04  0.00000000000E+00 0. -1.
         25    2    1    2    0    0  0.32722085454E+03 -0.32849901974E+03  0.12415622181E+03  0.49600845190E+03  0.12499809328E+03 0.  0.
          2    1    1    2  501    0 -0.30942378318E+03  0.28905016709E+03 -0.14531045319E+04  0.15135408344E+04  0.00000000000E+00 0. -1.
          1    1    1    2  502    0 -0.17797071366E+02  0.39448852647E+02 -0.24758645813E+02  0.49859184378E+02  0.00000000000E+00 0. -1.
         22    1    3    3    0    0  0.99780404745E+01 -0.59698102006E+02  0.37698374518E+02  0.71306325919E+02  0.00000000000E+00 0. -1.
         22    1    3    3    0    0  0.31724281407E+03 -0.26880091773E+03  0.86457847293E+02  0.42470212598E+03  0.00000000000E+00 0. -1.
</event>
<event>
 7    1  0.4822463E-005  0.2003332E+03  0.7818608E-02  0.1210151E+00
          2   -1    0    0  502    0  0.00000000000E+00  0.00000000000E+00  0.17674710076E+04  0.17674710076E+04  0.00000000000E+00 0. -1.
          1   -1    0    0  501    0 -0.00000000000E+00 -0.00000000000E+00 -0.97486120361E+03  0.97486120361E+03  0.00000000000E+00 0. -1.
         25    2    1    2    0    0  0.12742724425E+03  0.12121888144E+03  0.72702300194E+03  0.75836600686E+03  0.12499934084E+03 0.  0.
          2    1    1    2  501    0 -0.56112694310E+02 -0.19302637147E+03 -0.94610552250E+03  0.96722462450E+03  0.00000000000E+00 0. -1.
          1    1    1    2  502    0 -0.71314549944E+02  0.71807490021E+02  0.10116923245E+04  0.10167415799E+04  0.00000000000E+00 0. -1.
         22    1    3    3    0    0  0.98348660795E+02  0.14522391292E+03  0.63839313487E+03  0.66204851681E+03  0.00000000000E+00 0. -1.
         22    1    3    3    0    0  0.29078583459E+02 -0.24005031472E+02  0.88629867072E+02  0.96317490048E+02  0.00000000000E+00 0. -1.
</event>
<event>
 7    1  0.4822463E-005  0.2290160E+03  0.7818608E-02  0.1159554E+00
          2   -1    0    0  502    0  0.00000000000E+00  0.00000000000E+00  0.17468433862E+03  0.17468433862E+03  0.00000000000E+00 0. -1.
          1   -1    0    0  501    0 -0.00000000000E+00 -0.00000000000E+00 -0.77600094071E+03  0.77600094071E+03  0.00000000000E+00 0. -1.
         25    2    1    2    0    0 -0.15522201145E+03 -0.68993356113E+02 -0.11164749641E+03  0.23862939846E+03  0.12499948131E+03 0.  0.
          2    1    1    2  501    0  0.15494141335E+03  0.22462815099E+03 -0.48482537272E+03  0.55634547704E+03  0.00000000000E+00 0. -1.
          1    1    1    2  502    0  0.28059810395E+00 -0.15563479488E+03 -0.48437329595E+01  0.15571040383E+03  0.00000000000E+00 0. -1.
         22    1    3    3    0    0 -0.46643621433E+02  0.16745863821E+02  0.14255156640E+02  0.51568021742E+02  0.00000000000E+00 0.  1.
         22    1    3    3    0    0 -0.10857839002E+03 -0.85739219934E+02 -0.12590265305E+03  0.18706137672E+03  0.00000000000E+00 0.  1.
</event>
<event>
 7    1  0.4822463E-005  0.6131040E+03  0.7818608E-02  0.1201694E+00
          2   -1    0    0  502    0  0.00000000000E+00  0.00000000000E+00  0.16353718508E+04  0.16353718508E+04  0.00000000000E+00 0. -1.
          1   -1    0    0  501    0 -0.00000000000E+00 -0.00000000000E+00 -0.53288887625E+03  0.53288887625E+03  0.00000000000E+00 0. -1.
         25    2    1    2    0    0  0.62799109402E+03 -0.88769386250E+02  0.11786658870E+03  0.65709436698E+03  0.12501062466E+03 0.  0.
          2    1    1    2  501    0 -0.30356692449E+02 -0.19750528682E+02 -0.18752628519E+03  0.19099141289E+03  0.00000000000E+00 0. -1.
          1    1    1    2  502    0 -0.59763440157E+03  0.10851991493E+03  0.11721426711E+04  0.13201749472E+04  0.00000000000E+00 0. -1.
         22    1    3    3    0    0  0.19883731651E+03 -0.71541650695E+02 -0.14811899816E+01  0.21132127234E+03  0.00000000000E+00 0.  1.
         22    1    3    3    0    0  0.42915377752E+03 -0.17227735556E+02  0.11934777868E+03  0.44577309464E+03  0.00000000000E+00 0.  1.
</event>
<event>
 7    1  0.4822463E-005  0.1116688E+04  0.7818608E-02  0.1164665E+00
          2   -1    0    0  502    0  0.00000000000E+00  0.00000000000E+00  0.36779552194E+04  0.36779552194E+04  0.00000000000E+00 0. -1.
          1   -1    0    0  501    0 -0.00000000000E+00 -0.00000000000E+00 -0.50743213663E+03  0.50743213663E+03  0.00000000000E+00 0. -1.
         25    2    1    2    0    0  0.52839634565E+03 -0.98724524137E+03  0.60540621602E+03  0.12790609199E+04  0.12499714275E+03 0.  0.
          2    1    1    2  501    0 -0.54938498793E+03  0.96569576204E+03  0.16410863129E+04  0.19818063619E+04  0.00000000000E+00 0. -1.
          1    1    1    2  502    0  0.20988642281E+02  0.21549479326E+02  0.92403055389E+03  0.92452007425E+03  0.00000000000E+00 0. -1.
         22    1    3    3    0    0  0.38956842092E+03 -0.65354847746E+03  0.46263301412E+03  0.89045969742E+03  0.00000000000E+00 0. -1.
         22    1    3    3    0    0  0.13882792472E+03 -0.33369676391E+03  0.14277320190E+03  0.38860122247E+03  0.00000000000E+00 0. -1.
</event>
<event>
 7    1  0.8147052E-005  0.8570549E+02  0.7818608E-02  0.1338221E+00
          2   -1    0    0  502    0  0.00000000000E+00  0.00000000000E+00  0.98161866647E+03  0.98161866647E+03  0.00000000000E+00 0. -1.
          1   -1    0    0  501    0 -0.00000000000E+00 -0.00000000000E+00 -0.22096677913E+04  0.22096677913E+04  0.00000000000E+00 0. -1.
         25    2    1    2    0    0  0.63090760191E+02  0.11318349031E+03 -0.27615146577E+03  0.32966865246E+03  0.12502336527E+03 0.  0.
          2    1    1    2  501    0 -0.63127501003E+02 -0.27652623970E+02 -0.19042177614E+04  0.19054645186E+04  0.00000000000E+00 0. -1.
          1    1    1    2  502    0  0.36740812415E-01 -0.85530866342E+02  0.95232010230E+03  0.95615328671E+03  0.00000000000E+00 0. -1.
         22    1    3    3    0    0 -0.12042198411E+02  0.10109606972E+03 -0.18269692235E+03  0.20914969589E+03  0.00000000000E+00 0. -1.
         22    1    3    3    0    0  0.75132958602E+02  0.12087420591E+02 -0.93454543425E+02  0.12051895657E+03  0.00000000000E+00 0. -1.
</event>
<event>
 7    1  0.4822463E-005  0.2955912E+03  0.7818608E-02  0.1274892E+00
          2   -1    0    0  502    0  0.00000000000E+00  0.00000000000E+00  0.43897371757E+03  0.43897371757E+03  0.00000000000E+00 0. -1.
          1   -1    0    0  501    0 -0.00000000000E+00 -0.00000000000E+00 -0.82338619551E+03  0.82338619551E+03  0.00000000000E+00 0. -1.
         25    2    1    2    0    0  0.29579988755E+03 -0.88331707890E+02  0.20761339604E+03  0.39246448897E+03  0.12499995517E+03 0.  0.
          2    1    1    2  501    0 -0.35407517904E+02 -0.39099570367E+01 -0.59257755604E+03  0.59364731955E+03  0.00000000000E+00 0. -1.
          1    1    1    2  502    0 -0.26039236965E+03  0.92241664927E+02  0.55168204785E+00  0.27624810456E+03  0.00000000000E+00 0. -1.
         22    1    3    3    0    0  0.23994819509E+03 -0.18893385932E+02  0.17494186359E+03  0.29755125944E+03  0.00000000000E+00 0.  1.
         22    1    3    3    0    0  0.55851692463E+02 -0.69438321958E+02  0.32671532453E+02  0.94913229532E+02  0.00000000000E+00 0.  1.
</event>
<event>
 7    1  0.4822463E-005  0.1923130E+03  0.7818608E-02  0.1212312E+00
          2   -1    0    0  502    0  0.00000000000E+00  0.00000000000E+00  0.11795296506E+04  0.11795296506E+04  0.00000000000E+00 0. -1.
          1   -1    0    0  501    0 -0.00000000000E+00 -0.00000000000E+00 -0.12419731074E+04  0.12419731074E+04  0.00000000000E+00 0. -1.
         25    2    1    2    0    0  0.17264264465E+03 -0.21625244257E+03 -0.26641976075E+03  0.40394882854E+03  0.12499826197E+03 0.  0.
          2    1    1    2  501    0 -0.13650057656E+03  0.11977564550E+03 -0.89526378743E+03  0.91349650341E+03  0.00000000000E+00 0. -1.
          1    1    1    2  502    0 -0.36142068087E+02  0.96476797062E+02  0.10992400914E+04  0.11040574261E+04  0.00000000000E+00 0. -1.
         22    1    3    3    0    0 -0.20077386327E+02 -0.22705287756E+02 -0.22404193808E+02  0.37690574870E+02  0.00000000000E+00 0. -1.
         22    1    3    3    0    0  0.19272003097E+03 -0.19354715481E+03 -0.24401556694E+03  0.36625825367E+03  0.00000000000E+00 0. -1.
</event>
<event>
 7    1  0.4822463E-005  0.1489563E+03  0.7818608E-02  0.1211554E+00
          2   -1    0    0  502    0  0.00000000000E+00  0.00000000000E+00  0.84770856824E+03  0.84770856824E+03  0.00000000000E+00 0. -1.
          1   -1    0    0  501    0 -0.00000000000E+00 -0.00000000000E+00 -0.53012910693E+03  0.53012910693E+03  0.00000000000E+00 0. -1.
         25    2    1    2    0    0  0.57590775431E+02  0.25277271293E+03  0.14929866317E+03  0.32423067069E+03  0.12499878068E+03 0.  0.
          2    1    1    2  501    0  0.19225078202E+02 -0.14286784651E+03 -0.42322046122E+03  0.44709773428E+03  0.00000000000E+00 0. -1.
          1    1    1    2  502    0 -0.76815853633E+02 -0.10990486642E+03  0.59150125936E+03  0.60650927021E+03  0.00000000000E+00 0. -1.
         22    1    3    3    0    0 -0.14939867378E+02  0.58421202001E+01 -0.12410017077E+02  0.20281482430E+02  0.00000000000E+00 0. -1.
         22    1    3    3    0    0  0.72530642809E+02  0.24693059273E+03  0.16170868025E+03  0.30394918826E+03  0.00000000000E+00 0. -1.
</event>
<event>
 7    1  0.4822463E-005  0.1357820E+03  0.7818608E-02  0.1251948E+00
          2   -1    0    0  502    0  0.00000000000E+00  0.00000000000E+00  0.32609108087E+03  0.32609108087E+03  0.00000000000E+00 0. -1.
          1   -1    0    0  501    0 -0.00000000000E+00 -0.00000000000E+00 -0.95672165739E+03  0.95672165739E+03  0.00000000000E+00 0. -1.
         25    2    1    2    0    0 -0.91746816197E+02 -0.22511845424E+02  0.21616375801E+03  0.26697540827E+03  0.12499934751E+03 0.  0.
          2    1    1    2  501    0  0.11743463772E+03 -0.71069949898E+02 -0.89640112980E+03  0.90684994207E+03  0.00000000000E+00 0. -1.
          1    1    1    2  502    0 -0.25687821524E+02  0.93581795322E+02  0.49606795277E+02  0.10898738793E+03  0.00000000000E+00 0. -1.
         22    1    3    3    0    0  0.17791746517E+02 -0.10996707920E+02 -0.35360912259E+01  0.21212679471E+02  0.00000000000E+00 0. -1.
         22    1    3    3    0    0 -0.10953856271E+03 -0.11515137503E+02  0.21969984923E+03  0.24576272880E+03  0.00000000000E+00 0. -1.
</event>
<event>
 7    1  0.4822463E-005  0.2113457E+03  0.7818608E-02  0.1140965E+00
          2   -1    0    0  502    0  0.00000000000E+00  0.00000000000E+00  0.51972124438E+03  0.51972124438E+03  0.00000000000E+00 0. -1.
          1   -1    0    0  501    0 -0.00000000000E+00 -0.00000000000E+00 -0.89395298965E+03  0.89395298965E+03  0.00000000000E+00 0. -1.
         25    2    1    2    0    0 -0.25593231658E+03 -0.12596147478E+03  0.20065069099E+02  0.31208222583E+03  0.12500025953E+03 0.  0.
          2    1    1    2  501    0  0.59005856251E+02  0.20172555781E+03 -0.69958996323E+03  0.73047998494E+03  0.00000000000E+00 0. -1.
          1    1    1    2  502    0  0.19692646033E+03 -0.75764083031E+02  0.30529314887E+03  0.37111202325E+03  0.00000000000E+00 0. -1.
         22    1    3    3    0    0 -0.22737057656E+03 -0.64590358088E+02  0.43720097522E+02  0.24037624751E+03  0.00000000000E+00 0. -1.
         22    1    3    3    0    0 -0.28561740026E+02 -0.61371116689E+02 -0.23655028423E+02  0.71705978319E+02  0.00000000000E+00 0. -1.
</event>
<event>
 7    1  0.4822463E-005  0.2021781E+03  0.7818608E-02  0.1167102E+00
          2   -1    0    0  502    0  0.00000000000E+00  0.00000000000E+00  0.80097548148E+03  0.80097548148E+03  0.00000000000E+00 0. -1.
          1   -1    0    0  501    0 -0.00000000000E+00 -0.00000000000E+00 -0.12709016792E+03  0.12709016792E+03  0.00000000000E+00 0. -1.
         25    2    1    2    0    0 -0.23732885717E+03  0.11391891287E+03  0.33408501083E+03  0.44332894262E+03  0.12500100698E+03 0.  0.
          2    1    1    2  501    0  0.17937912012E+03  0.36879807316E+02  0.19899326245E+03  0.27043540342E+03  0.00000000000E+00 0. -1.
          1    1    1    2  502    0  0.57949737049E+02 -0.15079872019E+03  0.14080704027E+03  0.21430130337E+03  0.00000000000E+00 0. -1.
         22    1    3    3    0    0 -0.16541415580E+03  0.11143351033E+03  0.16249722747E+03  0.25726371508E+03  0.00000000000E+00 0. -1.
         22    1    3    3    0    0 -0.71914701370E+02  0.24854025452E+01  0.17158778337E+03  0.18606522754E+03  0.00000000000E+00 0. -1.
</event>
<event>
 7    1  0.4822463E-005  0.8834312E+02  0.7818608E-02  0.1385762E+00
          2   -1    0    0  502    0  0.00000000000E+00  0.00000000000E+00  0.76481170817E+03  0.76481170817E+03  0.00000000000E+00 0. -1.
          1   -1    0    0  501    0 -0.00000000000E+00 -0.00000000000E+00 -0.98673726554E+02  0.98673726554E+02  0.00000000000E+00 0. -1.
         25    2    1    2    0    0  0.85226840834E+02 -0.11157522921E+02 -0.25667902942E+02  0.15385869029E+03  0.12500220246E+03 0.  0.
          2    1    1    2  501    0 -0.10892637143E+03 -0.26965128385E+02  0.45760850289E+03  0.47116622805E+03  0.00000000000E+00 0. -1.
          1    1    1    2  502    0  0.23699530593E+02  0.38122651305E+02  0.23419738167E+03  0.23846051638E+03  0.00000000000E+00 0. -1.
         22    1    3    3    0    0  0.67320253903E+02 -0.48016403002E+02  0.27127876914E+02  0.87025934346E+02  0.00000000000E+00 0.  1.
         22    1    3    3    0    0  0.17906586931E+02  0.36858880081E+02 -0.52795779856E+02  0.66832755943E+02  0.00000000000E+00 0.  1.
</event>
<event>
 7    1  0.4822463E-005  0.1036759E+03  0.7818608E-02  0.1354499E+00
          2   -1    0    0  502    0  0.00000000000E+00  0.00000000000E+00  0.83378646469E+03  0.83378646469E+03  0.00000000000E+00 0. -1.
          1   -1    0    0  501    0 -0.00000000000E+00 -0.00000000000E+00 -0.24965012521E+03  0.24965012521E+03  0.00000000000E+00 0. -1.
         25    2    1    2    0    0 -0.67411037189E+02  0.21328593216E+02 -0.22032635497E+03  0.26299770635E+03  0.12499973612E+03 0.  0.
          2    1    1    2  501    0 -0.10728492430E+02  0.48371352679E+02  0.38169747411E+03  0.38489979223E+03  0.00000000000E+00 0. -1.
          1    1    1    2  502    0  0.78139529620E+02 -0.69699945895E+02  0.42276522033E+03  0.43553909132E+03  0.00000000000E+00 0. -1.
         22    1    3    3    0    0  0.19360273493E+02  0.48862954238E+02 -0.78695611913E+02  0.94633016548E+02  0.00000000000E+00 0. -1.
         22    1    3    3    0    0 -0.86771310682E+02 -0.27534361022E+02 -0.14163074305E+03  0.16836468980E+03  0.00000000000E+00 0. -1.
</event>
<event>
 7    1  0.4822463E-005  0.9567641E+03  0.7818608E-02  0.1179688E+00
          2   -1    0    0  502    0  0.00000000000E+00  0.00000000000E+00  0.91317519847E+03  0.91317519847E+03  0.00000000000E+00 0. -1.
          1   -1    0    0  501    0 -0.00000000000E+00 -0.00000000000E+00 -0.19449804018E+04  0.19449804018E+04  0.00000000000E+00 0. -1.
         25    2    1    2    0    0  0.77625655527E+03 -0.52674972663E+03 -0.38280635846E+03  0.10208835611E+04  0.12499209262E+03 0.  0.
          2    1    1    2  501    0  0.21163946527E+02 -0.20674588992E+02 -0.84904630891E+03  0.84956164340E+03  0.00000000000E+00 0. -1.
          1    1    1    2  502    0 -0.79742050180E+03  0.54742431563E+03  0.20004746402E+03  0.98771039576E+03  0.00000000000E+00 0. -1.
         22    1    3    3    0    0  0.12455243772E+03 -0.13120101420E+03 -0.10697295383E+03  0.21016714472E+03  0.00000000000E+00 0. -1.
         22    1    3    3    0    0  0.65170411755E+03 -0.39554871244E+03 -0.27583340463E+03  0.81071641642E+03  0.00000000000E+00 0. -1.
</event>
<event>
 7    1  0.4822463E-005  0.2263895E+03  0.7818608E-02  0.1205500E+00
          2   -1    0    0  502    0  0.00000000000E+00  0.00000000000E+00  0.29294323548E+04  0.29294323548E+04  0.00000000000E+00 0. -1.
          1   -1    0    0  501    0 -0.00000000000E+00 -0.00000000000E+00 -0.52500664160E+03  0.52500664160E+03  0.00000000000E+00 0. -1.
         25    2    1    2    0    0  0.21619037323E+03 -0.17955181293E+03  0.73147122946E+02  0.31616016004E+03  0.12501845542E+03 0.  0.
          2    1    1    2  501    0 -0.20170067503E+03  0.86541175090E+02 -0.37277377329E+03  0.43258851504E+03  0.00000000000E+00 0. -1.
          1    1    1    2  502    0 -0.14489698201E+02  0.93010637845E+02  0.27040523635E+04  0.27056903213E+04  0.00000000000E+00 0. -1.
         22    1    3    3    0    0  0.34950528781E+01 -0.45500297789E+02 -0.17541493409E+02  0.48889635758E+02  0.00000000000E+00 0. -1.
         22    1    3    3    0    0  0.21269532035E+03 -0.13405151515E+03  0.90688616355E+02  0.26727052428E+03  0.00000000000E+00 0. -1.
</event>
<event>
 7    1  0.4822463E-005  0.1583074E+03  0.7818608E-02  0.1269347E+00
          2   -1    0    0  502    0  0.00000000000E+00  0.00000000000E+00  0.50935949188E+03  0.50935949188E+03  0.00000000000E+00 0. -1.
          1   -1    0    0  501    0 -0.00000000000E+00 -0.00000000000E+00 -0.16138693544E+03  0.16138693544E+03  0.00000000000E+00 0. -1.
         25    2    1    2    0    0  0.16875502611E+03  0.43283966839E+02  0.23938162112E+03  0.32138246165E+03  0.12502545942E+03 0.  0.
          2    1    1    2  501    0 -0.17420855924E+02 -0.67968517310E+02 -0.79930578609E+02  0.10635837044E+03  0.00000000000E+00 0. -1.
          1    1    1    2  502    0 -0.15133417019E+03  0.24684550471E+02  0.18852151393E+03  0.24300559523E+03  0.00000000000E+00 0. -1.
         22    1    3    3    0    0  0.13530936774E+03 -0.21635838113E+02  0.18552225315E+03  0.23064093501E+03  0.00000000000E+00 0. -1.
         22    1    3    3    0    0  0.33445658366E+02  0.64919804952E+02  0.53859367977E+02  0.90741526643E+02  0.00000000000E+00 0. -1.
</event>
<event>
 7    1  0.4822463E-005  0.3286820E+03  0.7818608E-02  0.1134209E+00
          2   -1    0    0  502    0  0.00000000000E+00  0.00000000000E+00  0.29038749417E+03  0.29038749417E+03  0.00000000000E+00 0. -1.
          1   -1    0    0  501    0 -0.00000000000E+00 -0.00000000000E+00 -0.22802027968E+04  0.22802027968E+04  0.00000000000E+00 0. -1.
         25    2    1    2    0    0  0.18503635063E+03 -0.36582394145E+03 -0.43649547370E+03  0.61173435403E+03  0.12500005661E+03 0.  0.
          2    1    1    2  501    0 -0.13527347991E+03  0.56685612678E+02 -0.16299189265E+04  0.16365047754E+04  0.00000000000E+00 0. -1.
          1    1    1    2  502    0 -0.49762870726E+02  0.30913832877E+03  0.76599097523E+02  0.32235116156E+03  0.00000000000E+00 0. -1.
         22    1    3    3    0    0  0.12920632489E+03 -0.29888424430E+03 -0.40358508738E+03  0.51856242502E+03  0.00000000000E+00 0.  1.
         22    1    3    3    0    0  0.55830025746E+02 -0.66939697148E+02 -0.32910386318E+02  0.93171929017E+02  0.00000000000E+00 0.  1.
</event>
<event>
 7    1  0.4822463E-005  0.2090507E+03  0.7818608E-02  0.1157423E+00
          2   -1    0    0  502    0  0.00000000000E+00  0.00000000000E+00  0.42169859676E+04  0.42169859676E+04  0.00000000000E+00 0. -1.
          1   -1    0    0  501    0 -0.00000000000E+00 -0.00000000000E+00 -0.21708620273E+04  0.21708620273E+04  0.00000000000E+00 0. -1.
         25    2    1    2    0    0  0.15519691247E+03  0.11006156846E+03  0.25081652486E+03  0.33872335665E+03  0.12499981083E+03 0.  0.
          2    1    1    2  501    0 -0.20242537101E+03  0.58228989979E+02 -0.21197389255E+04  0.21301783396E+04  0.00000000000E+00 0. -1.
          1    1    1    2  502    0  0.47228458545E+02 -0.16829055844E+03  0.39150463410E+04  0.39189462986E+04  0.00000000000E+00 0. -1.
         22    1    3    3    0    0  0.48429749478E+02  0.10887904043E+03  0.15288515720E+03  0.19384003036E+03  0.00000000000E+00 0.  1.
         22    1    3    3    0    0  0.10676716299E+03  0.11825280395E+01  0.97931367664E+02  0.14488332629E+03  0.00000000000E+00 0.  1.
</event>
<event>
 7    1  0.4822463E-005  0.6190058E+03  0.7818608E-02  0.1071084E+00
          2   -1    0    0  502    0  0.00000000000E+00  0.00000000000E+00  0.31907024795E+04  0.31907024795E+04  0.00000000000E+00 0. -1.
          1   -1    0    0  501    0 -0.00000000000E+00 -0.00000000000E+00 -0.17003199685E+04  0.17003199685E+04  0.00000000000E+00 0. -1.
         25    2    1    2    0    0  0.71743077982E+03  0.12588911998E+02 -0.40638754633E+03  0.83405079789E+03  0.12499796439E+03 0.  0.
          2    1    1    2  501    0 -0.11469609371E+03 -0.13356567033E+03 -0.10408915480E+04  0.10556752327E+04  0.00000000000E+00 0. -1.
          1    1    1    2  502    0 -0.60273468611E+03  0.12097675833E+03  0.29376616054E+04  0.30012964175E+04  0.00000000000E+00 0. -1.
         22    1    3    3    0    0  0.39351533056E+03 -0.55324724899E+02 -0.22302487094E+03  0.45569203814E+03  0.00000000000E+00 0.  1.
         22    1    3    3    0    0  0.32391544926E+03  0.67913636897E+02 -0.18336267540E+03  0.37835875974E+03  0.00000000000E+00 0.  1.
</event>
<event>
 7    1  0.4822463E-005  0.1922190E+03  0.7818608E-02  0.1170996E+00
          2   -1    0    0  502    0  0.00000000000E+00  0.00000000000E+00  0.50278125227E+03  0.50278125227E+03  0.00000000000E+00 0. -1.
          1   -1    0    0  501    0 -0.00000000000E+00 -0.00000000000E+00 -0.26782680266E+03  0.26782680266E+03  0.00000000000E+00 0. -1.
         25    2    1    2    0    0  0.14194676304E+03 -0.20533494887E+03 -0.48487792427E+01  0.27921412732E+03  0.12500277386E+03 0.  0.
          2    1    1    2  501    0 -0.17318712065E+03  0.45858031027E+02 -0.24808357797E+02  0.18086512208E+03  0.00000000000E+00 0. -1.
          1    1    1    2  502    0  0.31240357605E+02  0.15947691784E+03  0.26461158665E+03  0.31052880552E+03  0.00000000000E+00 0. -1.
         22    1    3    3    0    0  0.23635810540E+02 -0.12237102032E+02 -0.42003474592E+02  0.49726150905E+02  0.00000000000E+00 0. -1.
         22    1    3    3    0    0  0.11831095251E+03 -0.19309784683E+03  0.37154695349E+02  0.22948797642E+03  0.00000000000E+00 0. -1.
</event>
<event>
 7    1  0.4822463E-005  0.7977825E+03  0.7818608E-02  0.1223643E+00
          2   -1    0    0  502    0  0.00000000000E+00  0.00000000000E+00  0.69452168186E+03  0.69452168186E+03  0.00000000000E+00 0. -1.
          1   -1    0    0  501    0 -0.00000000000E+00 -0.00000000000E+00 -0.25423939628E+04  0.25423939628E+04  0.00000000000E+00 0. -1.
         25    2    1    2    0    0  0.43861934393E+03  0.67064364387E+03 -0.52349701524E+02  0.81272120285E+03  0.12500174554E+03 0.  0.
          2    1    1    2  501    0 -0.41809572222E+03 -0.67867922213E+03 -0.20340417480E+04  0.21846590929E+04  0.00000000000E+00 0. -1.
          1    1    1    2  502    0 -0.20523621705E+02  0.80355782619E+01  0.23851916862E+03  0.23953534889E+03  0.00000000000E+00 0. -1.
         22    1    3    3    0    0  0.12197128819E+03  0.24523302264E+03  0.31927642189E+02  0.27574554370E+03  0.00000000000E+00 0. -1.
         22    1    3    3    0    0  0.31664805574E+03  0.42541062123E+03 -0.84277343712E+02  0.53697565915E+03  0.00000000000E+00 0. -1.
</event>
<event>
 7    1  0.4822463E-005  0.3107917E+03  0.7818608E-02  0.1186695E+00
          2   -1    0    0  502    0  0.00000000000E+00  0.00000000000E+00  0.11227937200E+04  0.11227937200E+04  0.00000000000E+00 0. -1.
          1   -1    0    0  501    0 -0.00000000000E+00 -0.00000000000E+00 -0.52238757634E+03  0.52238757634E+03  0.00000000000E+00 0. -1.
         25    2    1    2    0    0 -0.86502009890E+02 -0.30783479749E+03  0.79984486876E+03  0.87041498083E+03  0.12500225804E+03 0.  0.
          2    1    1    2  501    0 -0.66383797806E+02  0.51827556212E+02 -0.40430748590E+03  0.41298601350E+03  0.00000000000E+00 0. -1.
          1    1    1    2  502    0  0.15288580770E+03  0.25600724127E+03  0.20486876080E+03  0.36178030202E+03  0.00000000000E+00 0. -1.
         22    1    3    3    0    0 -0.13791124851E+02 -0.16327594425E+03  0.26443525415E+03  0.31108717867E+03  0.00000000000E+00 0. -1.
         22    1    3    3    0    0 -0.72710885039E+02 -0.14455885323E+03  0.53540961461E+03  0.55932780216E+03  0.00000000000E+00 0. -1.
</event>
<event>
 7    1  0.4822463E-005  0.7109519E+02  0.7818608E-02  0.1390277E+00
          2   -1    0    0  502    0  0.00000000000E+00  0.00000000000E+00  0.65594092741E+03  0.65594092741E+03  0.00000000000E+00 0. -1.
          1   -1    0    0  501    0 -0.00000000000E+00 -0.00000000000E+00 -0.81732692804E+02  0.81732692804E+02  0.00000000000E+00 0. -1.
         25    2    1    2    0    0 -0.12745489016E+01 -0.36257723381E+02  0.26030022786E+03  0.29102866156E+03  0.12500090497E+03 0.  0.
          2    1    1    2  501    0  0.38180778715E+02 -0.37883240006E+02 -0.49997252140E+02  0.73434576040E+02  0.00000000000E+00 0. -1.
          1    1    1    2  502    0 -0.36906229814E+02  0.74140963387E+02  0.36390525888E+03  0.37321038261E+03  0.00000000000E+00 0. -1.
         22    1    3    3    0    0 -0.26740955374E+02 -0.76923818186E+02  0.17837098722E+03  0.19608304767E+03  0.00000000000E+00 0.  1.
         22    1    3    3    0    0  0.25466406473E+02  0.40666094806E+02  0.81929240639E+02  0.94945613891E+02  0.00000000000E+00 0.  1.
</event>
<event>
 7    1  0.4822463E-005  0.2999114E+03  0.7818608E-02  0.1158669E+00
          2   -1    0    0  502    0  0.00000000000E+00  0.00000000000E+00  0.18668482222E+04  0.18668482222E+04  0.00000000000E+00 0. -1.
          1   -1    0    0  501    0 -0.00000000000E+00 -0.00000000000E+00 -0.49368689669E+03  0.49368689669E+03  0.00000000000E+00 0. -1.
         25    2    1    2    0    0  0.28160448611E+03  0.13610969457E+03  0.16022687704E+04  0.16372895116E+04  0.12499918698E+03 0.  0.
          2    1    1    2  501    0 -0.19570826183E+02 -0.11847252548E+03 -0.39484164882E+03  0.41269684294E+03  0.00000000000E+00 0. -1.
          1    1    1    2  502    0 -0.26203365993E+03 -0.17637169092E+02  0.16573420397E+03  0.31054876434E+03  0.00000000000E+00 0. -1.
         22    1    3    3    0    0  0.17871149447E+03  0.14597587279E+03  0.10057747340E+04  0.10319057948E+04  0.00000000000E+00 0.  1.
         22    1    3    3    0    0  0.10289299164E+03 -0.98661782186E+01  0.59649403631E+03  0.60538371679E+03  0.00000000000E+00 0.  1.
</event>
<event>
 7    1  0.4822463E-005  0.7421590E+03  0.7818608E-02  0.1211925E+00
          2   -1    0    0  502    0  0.00000000000E+00  0.00000000000E+00  0.17917730576E+04  0.17917730576E+04  0.00000000000E+00 0. -1.
          1   -1    0    0  501    0 -0.00000000000E+00 -0.00000000000E+00 -0.25018554706E+04  0.25018554706E+04  0.00000000000E+00 0. -1.
         25    2    1    2    0    0  0.67628882504E+03 -0.26222086473E+03 -0.19209155231E+03  0.76068924282E+03  0.12499041120E+03 0.  0.
          2    1    1    2  501    0 -0.70175688938E+03  0.25385660752E+03 -0.19565979422E+04  0.20940824760E+04  0.00000000000E+00 0. -1.
          1    1    1    2  502    0  0.25468064340E+02  0.83642572135E+01  0.14386070815E+04  0.14388568094E+04  0.00000000000E+00 0. -1.
         22    1    3    3    0    0  0.40383349811E+03 -0.10946713508E+03 -0.64810234805E+02  0.42339687575E+03  0.00000000000E+00 0.  1.
         22    1    3    3    0    0  0.27245532693E+03 -0.15275372966E+03 -0.12728131751E+03  0.33729236707E+03  0.00000000000E+00 0.  1.
</event>
<event>
 7    1  0.4822463E-005  0.2064258E+03  0.7818608E-02  0.1161417E+00
          2   -1    0    0  502    0  0.00000000000E+00  0.00000000000E+00  0.42066906354E+03  0.42066906354E+03  0.00000000000E+00 0. -1.
          1   -1    0    0  501    0 -0.00000000000E+00 -0.00000000000E+00 -0.57371359011E+03  0.57371359011E+03  0.00000000000E+00 0. -1.
         25    2    1    2    0    0  0.28165435061E+03 -0.25136766350E+02  0.14173336708E+03  0.34010963726E+03  0.12500075109E+03 0.  0.
          2    1    1    2  501    0 -0.15287432967E+03  0.13452226698E+03 -0.40445962634E+03  0.45282931699E+03  0.00000000000E+00 0. -1.
          1    1    1    2  502    0 -0.12878002095E+03 -0.10938550063E+03  0.10968173269E+03  0.20144369940E+03  0.00000000000E+00 0. -1.
         22    1    3    3    0    0  0.91559672657E+02 -0.47892055939E+02  0.10075703179E+03  0.14432186991E+03  0.00000000000E+00 0. -1.
         22    1    3    3    0    0  0.19009467796E+03  0.22755289589E+02  0.40976335294E+02  0.19578776735E+03  0.00000000000E+00 0. -1.
</event>
<event>
 7    1  0.4822463E-005  0.5540188E+03  0.7818608E-02  0.1067830E+00
          2   -1    0    0  502    0  0.00000000000E+00  0.00000000000E+00  0.29853321544E+04  0.29853321544E+04  0.00000000000E+00 0. -1.
          1   -1    0    0  501    0 -0.00000000000E+00 -0.00000000000E+00 -0.29645443768E+03  0.29645443768E+03  0.00000000000E+00 0. -1.
         25    2    1    2    0    0  0.47672655377E+03  0.42711829018E+03  0.42834218012E+03  0.78025695721E+03  0.12500262052E+03 0.  0.
          2    1    1    2  501    0 -0.27219931900E+03 -0.40517860245E+03  0.40397139928E+03  0.63360481421E+03  0.00000000000E+00 0. -1.
          1    1    1    2  502    0 -0.20452723477E+03 -0.21939687724E+02  0.18565641374E+04  0.18679248207E+04  0.00000000000E+00 0. -1.
         22    1    3    3    0    0  0.18650592734E+03  0.19881689968E+03  0.11460077063E+03  0.29571262597E+03  0.00000000000E+00 0. -1.
         22    1    3    3    0    0  0.29022062643E+03  0.22830139050E+03  0.31374140948E+03  0.48454433124E+03  0.00000000000E+00 0. -1.
</event>
<event>
 7    1  0.4822463E-005  0.1436217E+04  0.7818608E-02  0.1039048E+00
          2   -1    0    0  502    0  0.00000000000E+00  0.00000000000E+00  0.19115392998E+04  0.19115392998E+04  0.00000000000E+00 0. -1.
          1   -1    0    0  501    0 -0.00000000000E+00 -0.00000000000E+00 -0.36266777777E+04  0.36266777777E+04  0.00000000000E+00 0. -1.
         25    2    1    2    0    0  0.10167182924E+04 -0.10834758795E+04  0.57150767328E+03  0.15968357491E+04  0.12500928603E+03 0.  0.
          2    1    1    2  501    0 -0.11253355853E+03  0.39665032247E+02 -0.25353791223E+04  0.25381852592E+04  0.00000000000E+00 0. -1.
          1    1    1    2  502    0 -0.90418473382E+03  0.10438108473E+04  0.24873297105E+03  0.14031960692E+04  0.00000000000E+00 0. -1.
         22    1    3    3    0    0  0.53401501503E+03 -0.53819915640E+03  0.35445686195E+03  0.83694087917E+03  0.00000000000E+00 0. -1.
         22    1    3    3    0    0  0.48270327732E+03 -0.54527672312E+03  0.21705081133E+03  0.75989486997E+03  0.00000000000E+00 0. -1.
</event>
<event>
 7    1  0.4822463E-005  0.4922723E+02  0.7818608E-02  0.1547243E+00
          2   -1    0    0  502    0  0.00000000000E+00  0.00000000000E+00  0.12320062511E+04  0.12320062511E+04  0.00000000000E+00 0. -1.
          1   -1    0    0  501    0 -0.00000000000E+00 -0.00000000000E+00 -0.61531431069E+03  0.61531431069E+03  0.00000000000E+00 0. -1.
         25    2    1    2    0    0 -0.59173892649E+02 -0.98809166472E+01  0.62265719884E+02  0.15199073285E+03  0.12499992366E+03 0.  0.
          2    1    1    2  501    0  0.47585798658E+02 -0.12387558267E+02 -0.56925173400E+03  0.57137150480E+03  0.00000000000E+00 0. -1.
          1    1    1    2  502    0  0.11588093990E+02  0.22268474914E+02  0.11236779545E+04  0.11239583241E+04  0.00000000000E+00 0. -1.
         22    1    3    3    0    0 -0.93464418905E+02  0.16661865857E+02  0.37674003668E+02  0.10213983516E+03  0.00000000000E+00 0. -1.
         22    1    3    3    0    0  0.34290526256E+02 -0.26542782504E+02  0.24591716216E+02  0.49850897690E+02  0.00000000000E+00 0. -1.
</event>
<event>
 7    1  0.4822463E-005  0.1617057E+03  0.7818608E-02  0.1241871E+00
          2   -1    0    0  502    0  0.00000000000E+00  0.00000000000E+00  0.24061357987E+04  0.24061357987E+04  0.00000000000E+00 0. -1.
          1   -1    0    0  501    0 -0.00000000000E+00 -0.00000000000E+00 -0.55035453151E+03  0.55035453151E+03  0.00000000000E+00 0. -1.
         25    2    1    2    0    0  0.23033186967E+02  0.23041299262E+03  0.24075836635E+03  0.35666738575E+03  0.12500543278E+03 0.  0.
          2    1    1    2  501    0  0.28566306142E+02 -0.15647611011E+03 -0.47855872698E+03  0.50430076546E+03  0.00000000000E+00 0. -1.
          1    1    1    2  502    0 -0.51599493110E+02 -0.73936882510E+02  0.20935816278E+04  0.20955221789E+04  0.00000000000E+00 0. -1.
         22    1    3    3    0    0  0.53348931992E+02  0.22532709751E+03  0.20267823573E+03  0.30772857627E+03  0.00000000000E+00 0.  1.
         22    1    3    3    0    0 -0.30315745024E+02  0.50858951108E+01  0.38080130618E+02  0.48938809480E+02  0.00000000000E+00 0.  1.
</event>
<event>
 7    1  0.4822463E-005  0.3577338E+03  0.7818608E-02  0.1086103E+00
          2   -1    0    0  502    0  0.00000000000E+00  0.00000000000E+00  0.93278353696E+03  0.93278353696E+03  0.00000000000E+00 0. -1.
          1   -1    0    0  501    0 -0.00000000000E+00 -0.00000000000E+00 -0.10575924462E+04  0.10575924462E+04  0.00000000000E+00 0. -1.
         25    2    1    2    0    0 -0.10698252461E+02  0.44633274101E+03  0.15012717281E+03  0.48732998639E+03  0.12499991725E+03 0.  0.
          2    1    1    2  501    0  0.19644055074E+03 -0.15253878496E+03 -0.81983257930E+03  0.85672774496E+03  0.00000000000E+00 0. -1.
          1    1    1    2  502    0 -0.18574229828E+03 -0.29379395605E+03  0.54489649723E+03  0.64631825185E+03  0.00000000000E+00 0. -1.
         22    1    3    3    0    0 -0.62718760428E+02  0.19768634441E+03  0.43946232232E+02  0.21200189858E+03  0.00000000000E+00 0. -1.
         22    1    3    3    0    0  0.52020507966E+02  0.24864639660E+03  0.10618094058E+03  0.27532808780E+03  0.00000000000E+00 0. -1.
</event>
<event>
 7    1  0.4822463E-005  0.5476510E+03  0.7818608E-02  0.1159453E+00
          2   -1    0    0  502    0  0.00000000000E+00  0.00000000000E+00  0.57385960462E+03  0.57385960462E+03  0.00000000000E+00 0. -1.
          1   -1    0    0  501    0 -0.00000000000E+00 -0.00000000000E+00 -0.13578061525E+04  0.13578061525E+04  0.00000000000E+00 0. -1.
         25    2    1    2    0    0 -0.33704366903E+03 -0.40382949341E+03 -0.43282138565E+03  0.69255802885E+03  0.12500230743E+03 0.  0.
          2    1    1    2  501    0 -0.62485383662E+02  0.18476968421E+02 -0.61924207944E+03  0.62266088241E+03  0.00000000000E+00 0. -1.
          1    1    1    2  502    0  0.39952905269E+03  0.38535252499E+03  0.26811691723E+03  0.61644684585E+03  0.00000000000E+00 0. -1.
         22    1    3    3    0    0 -0.67529045988E+02 -0.12396139821E+03 -0.57748006400E+02  0.15251699099E+03  0.00000000000E+00 0.  1.
         22    1    3    3    0    0 -0.26951462304E+03 -0.27986809520E+03 -0.37507337925E+03  0.54004103785E+03  0.00000000000E+00 0.  1.
</event>
<event>
 7    1  0.4822463E-005  0.3130421E+03  0.7818608E-02  0.1105418E+00
          2   -1    0    0  502    0  0.00000000000E+00  0.00000000000E+00  0.28848220710E+04  0.28848220710E+04  0.00000000000E+00 0. -1.
          1   -1    0    0  501    0 -0.00000000000E+00 -0.00000000000E+00 -0.56797533458E+03  0.56797533458E+03  0.00000000000E+00 0. -1.
         25    2    1    2    0    0  0.26108812646E+03 -0.10855406700E+03  0.19737417020E+03  0.36678698844E+03  0.12500054633E+03 0.  0.
          2    1    1    2  501    0 -0.12126539125E+03 -0.18448995111E+03 -0.44728152176E+03  0.49880115966E+03  0.00000000000E+00 0. -1.
          1    1    1    2  502    0 -0.13982273521E+03  0.29304401811E+03  0.25667540880E+04  0.25872092575E+04  0.00000000000E+00 0. -1.
         22    1    3    3    0    0  0.10113426998E+03 -0.10558308502E+03  0.69008341777E+02  0.16167275480E+03  0.00000000000E+00 0. -1.
         22    1    3    3    0    0  0.15995385648E+03 -0.29709819822E+01  0.12836582843E+03  0.20511423364E+03  0.00000000000E+00 0. -1.
</event>
<event>
 7    1  0.4822463E-005  0.4439362E+03  0.7818608E-02  0.1253556E+00
          2   -1    0    0  502    0  0.00000000000E+00  0.00000000000E+00  0.85754894817E+03  0.85754894817E+03  0.00000000000E+00 0. -1.
          1   -1    0    0  501    0 -0.00000000000E+00 -0.00000000000E+00 -0.12179452676E+04  0.12179452676E+04  0.00000000000E+00 0. -1.
         25    2    1    2    0    0 -0.12463831538E+03  0.42457341274E+03 -0.50506955375E+03  0.68301882956E+03  0.12498869924E+03 0.  0.
          2    1    1    2  501    0  0.15321406204E+03 -0.41851551541E+03 -0.54396006683E+03  0.70322282369E+03  0.00000000000E+00 0. -1.
          1    1    1    2  502    0 -0.28575746658E+02 -0.60578973247E+01  0.68863330118E+03  0.68925256250E+03  0.00000000000E+00 0. -1.
         22    1    3    3    0    0 -0.11137838101E+02  0.25600386502E+03 -0.29465075916E+03  0.39048828435E+03  0.00000000000E+00 0. -1.
         22    1    3    3    0    0 -0.11350047728E+03  0.16856954772E+03 -0.21041879459E+03  0.29253054520E+03  0.00000000000E+00 0. -1.
</event>
<event>
 7    1  0.4822463E-005  0.1290780E+04  0.7818608E-02  0.1021975E+00
          2   -1    0    0  502    0  0.00000000000E+00  0.00000000000E+00  0.11729585237E+04  0.11729585237E+04  0.00000000000E+00 0. -1.
          1   -1    0    0  501    0 -0.00000000000E+00 -0.00000000000E+00 -0.25412598571E+04  0.25412598571E+04  0.00000000000E+00 0. -1.
         25    2    1    2    0    0 -0.12020793658E+04 -0.25567661378E+03 -0.68807359292E+03  0.14140141390E+04  0.12500153372E+03 0.  0.
          2    1    1    2  501    0 -0.11705226306E+03  0.12465302863E+03 -0.93484100878E+03  0.95035115695E+03  0.00000000000E+00 0. -1.
          1    1    1    2  502    0  0.13191316289E+04  0.13102358515E+03  0.25461326830E+03  0.13498530848E+04  0.00000000000E+00 0. -1.
         22    1    3    3    0    0 -0.57090461423E+03 -0.96454959302E+02 -0.38980472058E+03  0.69798521325E+03  0.00000000000E+00 0.  1.
         22    1    3    3    0    0 -0.63117475158E+03 -0.15922165448E+03 -0.29826887234E+03  0.71602892574E+03  0.00000000000E+00 0.  1.
</event>
<event>
 7    1  0.4822463E-005  0.2756623E+03  0.7818608E-02  0.1160204E+00
          2   -1    0    0  502    0  0.00000000000E+00  0.00000000000E+00  0.16847706127E+04  0.16847706127E+04  0.00000000000E+00 0. -1.
          1   -1    0    0  501    0 -0.00000000000E+00 -0.00000000000E+00 -0.20932002310E+04  0.20932002310E+04  0.00000000000E+00 0. -1.
         25    2    1    2    0    0 -0.34825317000E+03 -0.59156606109E+02  0.35739800463E+03  0.51782019078E+03  0.12499856718E+03 0.  0.
          2    1    1    2  501    0  0.24146826625E+03  0.13032106255E+03 -0.20002971255E+04  0.20190292453E+04  0.00000000000E+00 0. -1.
          1    1    1    2  502    0  0.10678490375E+03 -0.71164456437E+02  0.12344695027E+04  0.12411214076E+04  0.00000000000E+00 0. -1.
         22    1    3    3    0    0 -0.10761115634E+03 -0.74831329310E+02  0.98112590288E+02  0.16372528573E+03  0.00000000000E+00 0.  1.
         22    1    3    3    0    0 -0.24064201366E+03  0.15674723201E+02  0.25928541434E+03  0.35409490504E+03  0.00000000000E+00 0.  1.
</event>
<event>
 7    1  0.4822463E-005  0.1815130E+03  0.7818608E-02  0.1220146E+00
          2   -1    0    0  502    0  0.00000000000E+00  0.00000000000E+00  0.11751323999E+04  0.11751323999E+04  0.00000000000E+00 0. -1.
          1   -1    0    0  501    0 -0.00000000000E+00 -0.00000000000E+00 -0.49339434488E+03  0.49339434488E+03  0.00000000000E+00 0. -1.
         25    2    1    2    0    0  0.22236800256E+03 -0.33415476635E+02  0.97389211268E+03  0.10073010810E+04  0.12500199165E+03 0.  0.
          2    1    1    2  501    0 -0.10027939773E+03  0.63970592783E+01 -0.44930116439E+03  0.46040027835E+03  0.00000000000E+00 0. -1.
          1    1    1    2  502    0 -0.12208860482E+03  0.27018417357E+02  0.15714710676E+03  0.20082538551E+03  0.00000000000E+00 0. -1.
         22    1    3    3    0    0  0.19712548562E+03 -0.21951360120E+01  0.60679981269E+03  0.63801981817E+03  0.00000000000E+00 0.  1.
         22    1    3    3    0    0  0.25242516934E+02 -0.31220340623E+02  0.36709229999E+03  0.36928126278E+03  0.00000000000E+00 0.  1.
</event>
<event>
 7    1  0.4822463E-005  0.2814397E+03  0.7818608E-02  0.1182510E+00
          2   -1    0    0  502    0  0.00000000000E+00  0.00000000000E+00  0.59696953263E+03  0.59696953263E+03  0.00000000000E+00 0. -1.
          1   -1    0    0  501    0 -0.00000000000E+00 -0.00000000000E+00 -0.51779176611E+03  0.51779176611E+03  0.00000000000E+00 0. -1.
         25    2    1    2    0    0 -0.15802654535E+03 -0.25358126397E+03 -0.32167393784E+03  0.45648202393E+03  0.12500347760E+03 0.  0.
          2    1    1    2  501    0  0.60699453949E+02  0.24876512188E+03  0.10855799930E+02  0.25629349966E+03  0.00000000000E+00 0. -1.
          1    1    1    2  502    0  0.97327091405E+02  0.48161420819E+01  0.38999590444E+03  0.40198577515E+03  0.00000000000E+00 0. -1.
         22    1    3    3    0    0 -0.84528328682E+02 -0.14503187621E+03 -0.90454822631E+02  0.19068654489E+03  0.00000000000E+00 0.  1.
         22    1    3    3    0    0 -0.73498216672E+02 -0.10854938776E+03 -0.23121911521E+03  0.26579547904E+03  0.00000000000E+00 0.  1.
</event>
<event>
 7    1  0.5302992E-005  0.1702120E+03  0.7818608E-02  0.1186564E+00
          2   -1    0    0  502    0  0.00000000000E+00  0.00000000000E+00  0.31024790177E+04  0.31024790177E+04  0.00000000000E+00 0. -1.
          1   -1    0    0  501    0 -0.00000000000E+00 -0.00000000000E+00 -0.21219640786E+04  0.21219640786E+04  0.00000000000E+00 0. -1.
         25    2    1    2    0    0  0.25611556075E+01  0.32184139763E+03 -0.91138213815E+03  0.97459249243E+03  0.12499871926E+03 0.  0.
          2    1    1    2  501    0  0.16669524814E+02 -0.15309545969E+03 -0.11715856199E+04  0.11816636398E+04  0.00000000000E+00 0. -1.
          1    1    1    2  502    0 -0.19230680421E+02 -0.16874593794E+03  0.30634826971E+04  0.30681869640E+04  0.00000000000E+00 0. -1.
         22    1    3    3    0    0 -0.55475974512E+02  0.90442054705E+02 -0.25453210939E+03  0.27576066383E+03  0.00000000000E+00 0. -1.
         22    1    3    3    0    0  0.58037130120E+02  0.23139934293E+03 -0.65685002876E+03  0.69883182860E+03  0.00000000000E+00 0. -1.
</event>
<event>
 7    1  0.4822463E-005  0.1044058E+03  0.7818608E-02  0.1464976E+00
          2   -1    0    0  502    0  0.00000000000E+00  0.00000000000E+00  0.32915344656E+03  0.32915344656E+03  0.00000000000E+00 0. -1.
          1   -1    0    0  501    0 -0.00000000000E+00 -0.00000000000E+00 -0.57263512865E+03  0.57263512865E+03  0.00000000000E+00 0. -1.
         25    2    1    2    0    0 -0.45546290535E+02 -0.10966550805E+03  0.21438320700E+03  0.27511113997E+03  0.12499996661E+03 0.  0.
          2    1    1    2  501    0  0.52291886434E+02  0.90051219049E+02 -0.53590475282E+03  0.54592817068E+03  0.00000000000E+00 0. -1.
          1    1    1    2  502    0 -0.67455958982E+01  0.19614289002E+02  0.78039863730E+02  0.80749264567E+02  0.00000000000E+00 0. -1.
         22    1    3    3    0    0 -0.21759223592E+02 -0.51629279811E+02  0.20397726391E+03  0.21153196103E+03  0.00000000000E+00 0. -1.
         22    1    3    3    0    0 -0.23787066944E+02 -0.58036228240E+02  0.10405943084E+02  0.63579178932E+02  0.00000000000E+00 0. -1.
</event>
<event>
 7    1  0.4822463E-005  0.1375839E+03  0.7818608E-02  0.1301005E+00
          2   -1    0    0  502    0  0.00000000000E+00  0.00000000000E+00  0.18190641121E+04  0.18190641121E+04  0.00000000000E+00 0. -1.
          1   -1    0    0  501    0 -0.00000000000E+00 -0.00000000000E+00 -0.31749370092E+03  0.31749370092E+03  0.00000000000E+00 0. -1.
         25    2    1    2    0    0 -0.13619164029E+03 -0.73739268610E+02 -0.19476165937E+03  0.27846601483E+03  0.12500229933E+03 0.  0.
          2    1    1    2  501    0  0.79736884378E+02  0.93703140719E+02 -0.33267650645E+02  0.12745581937E+03  0.00000000000E+00 0. -1.
          1    1    1    2  502    0  0.56454755910E+02 -0.19963872109E+02  0.17295997212E+04  0.17306359788E+04  0.00000000000E+00 0. -1.
         22    1    3    3    0    0  0.12119188024E+01 -0.60756828754E+02 -0.53314797022E+02  0.80841379064E+02  0.00000000000E+00 0. -1.
         22    1    3    3    0    0 -0.13740355909E+03 -0.12982439856E+02 -0.14144686234E+03  0.19762463577E+03  0.00000000000E+00 0. -1.
</event>
<event>
 7    1  0.4822463E-005  0.5219711E+03  0.7818608E-02  0.1092381E+00
          2   -1    0    0  502    0  0.00000000000E+00  0.00000000000E+00  0.31635026730E+04  0.31635026730E+04  0.00000000000E+00 0. -1.
          1   -1    0    0  501    0 -0.00000000000E+00 -0.00000000000E+00 -0.35299394150E+03  0.35299394150E+03  0.00000000000E+00 0. -1.
         25    2    1    2    0    0 -0.40665603377E+03  0.19900920895E+03  0.70727065372E+03  0.84901677185E+03  0.12499562477E+03 0.  0.
          2    1    1    2  501    0 -0.25206547771E+02  0.15482231496E+03 -0.22441777520E+03  0.27380404870E+03  0.00000000000E+00 0. -1.
          1    1    1    2  502    0  0.43186258155E+03 -0.35383152391E+03  0.23276558529E+04  0.23936757939E+04  0.00000000000E+00 0. -1.
         22    1    3    3    0    0 -0.10343015442E+03  0.82371954300E+01  0.22939246674E+03  0.25176686047E+03  0.00000000000E+00 0. -1.
         22    1    3    3    0    0 -0.30322587936E+03  0.19077201352E+03  0.47787818698E+03  0.59724991138E+03  0.00000000000E+00 0. -1.
</event>
<event>
 7    1  0.4822463E-005  0.4219399E+03  0.7818608E-02  0.1151112E+00
          2   -1    0    0  502    0  0.00000000000E+00  0.00000000000E+00  0.86116369876E+03  0.86116369876E+03  0.00000000000E+00 0. -1.
          1   -1    0    0  501    0 -0.00000000000E+00 -0.00000000000E+00 -0.11544469903E+04  0.11544469903E+04  0.00000000000E+00 0. -1.
         25    2    1    2    0    0  0.16015221758E+03 -0.42866480280E+03  0.32935563035E+03  0.57749590530E+03  0.12499657368E+03 0.  0.
          2    1    1    2  501    0 -0.84593095531E+02  0.39289589136E+02 -0.93103183500E+03  0.93569222579E+03  0.00000000000E+00 0. -1.
          1    1    1    2  502    0 -0.75559122046E+02  0.38937521367E+03  0.30839291309E+03  0.50242255800E+03  0.00000000000E+00 0. -1.
         22    1    3    3    0    0  0.13294657570E+03 -0.40812211641E+03  0.33293737262E+03  0.54321795624E+03  0.00000000000E+00 0.  1.
         22    1    3    3    0    0  0.27205641877E+02 -0.20542686389E+02 -0.35817422608E+01  0.34277949058E+02  0.00000000000E+00 0.  1.
</event>
<event>
 7    1  0.4822463E-005  0.6044075E+03  0.7818608E-02  0.9896502E-01
          2   -1    0    0  502    0  0.00000000000E+00  0.00000000000E+00  0.16377643697E+04  0.16377643697E+04  0.00000000000E+00 0. -1.
          1   -1    0    0  501    0 -0.00000000000E+00 -0.00000000000E+00 -0.11469608071E+04  0.11469608071E+04  0.00000000000E+00 0. -1.
         25    2    1    2    0    0 -0.28416841615E+03 -0.21929875611E+03 -0.71472422885E+03  0.80950596137E+03  0.12500218004E+03 0.  0.
          2    1    1    2  501    0 -0.29018124854E+03  0.53019174963E+03  0.29232738905E+00  0.60440758916E+03  0.00000000000E+00 0. -1.
          1    1    1    2  502    0  0.57434966469E+03 -0.31089299352E+03  0.12052354641E+04  0.13708116263E+04  0.00000000000E+00 0. -1.
         22    1    3    3    0    0 -0.15131215996E+03 -0.73661016566E+02 -0.22025008051E+03  0.27718479951E+03  0.00000000000E+00 0. -1.
         22    1    3    3    0    0 -0.13285625619E+03 -0.14563773954E+03 -0.49447414834E+03  0.53232116186E+03  0.00000000000E+00 0. -1.
</event>
<event>
 7    1  0.4822463E-005  0.2986659E+03  0.7818608E-02  0.1202829E+00
          2   -1    0    0  502    0  0.00000000000E+00  0.00000000000E+00  0.36896623884E+03  0.36896623884E+03  0.00000000000E+00 0. -1.
          1   -1    0    0  501    0 -0.00000000000E+00 -0.00000000000E+00 -0.55428160992E+03  0.55428160992E+03  0.00000000000E+00 0. -1.
         25    2    1    2    0    0 -0.10697093041E+01  0.34501461916E+03 -0.25456455426E+03  0.44661322287E+03  0.12499610733E+03 0.  0.
          2    1    1    2  501    0  0.43336867730E+02 -0.59287226759E+02 -0.11324760525E+03  0.13497436593E+03  0.00000000000E+00 0. -1.
          1    1    1    2  502    0 -0.42267158426E+02 -0.28572739240E+03  0.18249678843E+03  0.34166025996E+03  0.00000000000E+00 0. -1.
         22    1    3    3    0    0  0.30410582776E+02  0.30813628267E+03 -0.18145233039E+03  0.35888399302E+03  0.00000000000E+00 0.  1.
         22    1    3    3    0    0 -0.31480292081E+02  0.36878336489E+02 -0.73112223867E+02  0.87729229852E+02  0.00000000000E+00 0.  1.
</event>
<event>
 7    1  0.4822463E-005  0.4859814E+03  0.7818608E-02  0.1226164E+00
          2   -1    0    0  502    0  0.00000000000E+00  0.00000000000E+00  0.18384093688E+04  0.18384093688E+04  0.00000000000E+00 0. -1.
          1   -1    0    0  501    0 -0.00000000000E+00 -0.00000000000E+00 -0.18738998198E+04  0.18738998198E+04  0.00000000000E+00 0. -1.
         25    2    1    2    0    0 -0.39862133989E+03 -0.22754579328E+03 -0.94861607150E+02  0.48507723818E+03  0.12500056733E+03 0.  0.
          2    1    1    2  501    0 -0.35228324117E+02  0.10593347010E+01 -0.15472861844E+04  0.15476875309E+04  0.00000000000E+00 0. -1.
          1    1    1    2  502    0  0.43384966401E+03  0.22648645858E+03  0.16066573406E+04  0.16795444195E+04  0.00000000000E+00 0. -1.
         22    1    3    3    0    0 -0.29647701550E+03 -0.12853571158E+03 -0.18613892697E+02  0.32367657758E+03  0.00000000000E+00 0.  1.
         22    1    3    3    0    0 -0.10214432439E+03 -0.99010081704E+02 -0.76247714453E+02  0.16140066061E+03  0.00000000000E+00 0.  1.
</event>
<event>
 7    1  0.4822463E-005  0.3452032E+03  0.7818608E-02  0.1110225E+00
          2   -1    0    0  502    0  0.00000000000E+00  0.00000000000E+00  0.73978350228E+03  0.73978350228E+03  0.00000000000E+00 0. -1.
          1   -1    0    0  501    0 -0.00000000000E+00 -0.00000000000E+00 -0.10032421614E+04  0.10032421614E+04  0.00000000000E+00 0. -1.
         25    2    1    2    0    0 -0.43170809211E+03 -0.19003430871E+03 -0.46580625588E+03  0.67460109454E+03  0.12500501374E+03 0.  0.
          2    1    1    2  501    0  0.27128826361E+03  0.91486281649E+02 -0.36889340045E+03  0.46695760257E+03  0.00000000000E+00 0. -1.
          1    1    1    2  502    0  0.16041982850E+03  0.98548027058E+02  0.57124099719E+03  0.60146696658E+03  0.00000000000E+00 0. -1.
         22    1    3    3    0    0 -0.10130951107E+03 -0.73886349580E+01 -0.50801358753E+02  0.11357370739E+03  0.00000000000E+00 0. -1.
         22    1    3    3    0    0 -0.33039858104E+03 -0.18264567375E+03 -0.41500489713E+03  0.56102738715E+03  0.00000000000E+00 0. -1.
</event>
<event>
 7    1  0.4822463E-005  0.8099741E+03  0.7818608E-02  0.1050751E+00
          2   -1    0    0  502    0  0.00000000000E+00  0.00000000000E+00  0.19976106473E+04  0.19976106473E+04  0.00000000000E+00 0. -1.
          1   -1    0    0  501    0 -0.00000000000E+00 -0.00000000000E+00 -0.87833207588E+03  0.87833207588E+03  0.00000000000E+00 0. -1.
         25    2    1    2    0    0  0.29590927185E+03 -0.89981189288E+03  0.26688804658E+03  0.99200737396E+03  0.12500264338E+03 0.  0.
          2    1    1    2  501    0 -0.59437423562E+02  0.16857011189E+03 -0.38661490379E+03  0.42593400167E+03  0.00000000000E+00 0. -1.
          1    1    1    2  502    0 -0.23647184829E+03  0.73124178099E+03  0.12390054287E+04  0.14580013476E+04  0.00000000000E+00 0. -1.
         22    1    3    3    0    0  0.27849494559E+03 -0.74470755025E+03  0.25713599478E+03  0.83562413197E+03  0.00000000000E+00 0. -1.
         22    1    3    3    0    0  0.17414326265E+02 -0.15510434263E+03  0.97520517950E+01  0.15638324199E+03  0.00000000000E+00 0. -1.
</event>
<event>
 7    1  0.4822463E-005  0.6015728E+03  0.7818608E-02  0.1137352E+00
          2   -1    0    0  502    0  0.00000000000E+00  0.00000000000E+00  0.12003204205E+04  0.12003204205E+04  0.00000000000E+00 0. -1.
          1   -1    0    0  501    0 -0.00000000000E+00 -0.00000000000E+00 -0.10212107328E+04  0.10212107328E+04  0.00000000000E+00 0. -1.
         25    2    1    2    0    0  0.58903086944E+03 -0.19979651078E+03  0.54828442833E+03  0.83852067640E+03  0.12500039811E+03 0.  0.
          2    1    1    2  501    0 -0.63002581398E+02 -0.44500604319E+02 -0.70740917721E+03  0.71160197656E+03  0.00000000000E+00 0. -1.
          1    1    1    2  502    0 -0.52602828805E+03  0.24429711510E+03  0.33823443649E+03  0.67140850032E+03  0.00000000000E+00 0. -1.
         22    1    3    3    0    0  0.16276373472E+03 -0.94143629916E+02  0.22484177105E+03  0.29310216377E+03  0.00000000000E+00 0.  1.
         22    1    3    3    0    0  0.42626713473E+03 -0.10565288086E+03  0.32344265728E+03  0.54541851264E+03  0.00000000000E+00 0.  1.
</event>
<event>
 7    1  0.4822463E-005  0.3644327E+03  0.7818608E-02  0.1114273E+00
          2   -1    0    0  502    0  0.00000000000E+00  0.00000000000E+00  0.99827482419E+03  0.99827482419E+03  0.00000000000E+00 0. -1.
          1   -1    0    0  501    0 -0.00000000000E+00 -0.00000000000E+00 -0.68763865777E+03  0.68763865777E+03  0.00000000000E+00 0. -1.
         25    2    1    2    0    0  0.42469364753E+03  0.23390158320E+03 -0.25171815631E+02  0.50133276808E+03  0.12500511658E+03 0.  0.
          2    1    1    2  501    0 -0.25685252375E+03 -0.21088676374E+03 -0.34735204241E+03  0.48072849660E+03  0.00000000000E+00 0. -1.
          1    1    1    2  502    0 -0.16784112378E+03 -0.23014819468E+02  0.68316002446E+03  0.70385221728E+03  0.00000000000E+00 0. -1.
         22    1    3    3    0    0  0.21503508884E+03  0.12526369366E+03 -0.75169395220E+02  0.25996445980E+03  0.00000000000E+00 0.  1.
         22    1    3    3    0    0  0.20965855869E+03  0.10863788954E+03  0.49997579589E+02  0.24136830828E+03  0.00000000000E+00 0.  1.
</event>
<event>
 7    1  0.4822463E-005  0.4918976E+03  0.7818608E-02  0.1098137E+00
          2   -1    0    0  502    0  0.00000000000E+00  0.00000000000E+00  0.16107639762E+04  0.16107639762E+04  0.00000000000E+00 0. -1.
          1   -1    0    0  501    0 -0.00000000000E+00 -0.00000000000E+00 -0.63688968804E+03  0.63688968804E+03  0.00000000000E+00 0. -1.
         25    2    1    2    0    0 -0.47016107797E+03  0.28105411286E+03  0.11538028284E+04  0.12833273209E+04  0.12500076861E+03 0.  0.
          2    1    1    2  501    0  0.10531469460E+03 -0.11286887014E+03 -0.45298742383E+03  0.47856887999E+03  0.00000000000E+00 0. -1.
          1    1    1    2  502    0  0.36484638337E+03 -0.16818524272E+03  0.27305888365E+03  0.48575746342E+03  0.00000000000E+00 0. -1.
         22    1    3    3    0    0 -0.32674219776E+03  0.25244965912E+03  0.90463886733E+03  0.99441579557E+03  0.00000000000E+00 0.  1.
         22    1    3    3    0    0 -0.14341888021E+03  0.28604453736E+02  0.24916396102E+03  0.28891152529E+03  0.00000000000E+00 0.  1.
</event>
<event>
 7    1  0.4822463E-005  0.2797929E+03  0.7818608E-02  0.1187612E+00
          2   -1    0    0  502    0  0.00000000000E+00  0.00000000000E+00  0.17301635649E+04  0.17301635649E+04  0.00000000000E+00 0. -1.
          1   -1    0    0  501    0 -0.00000000000E+00 -0.00000000000E+00 -0.21373927509E+03  0.21373927509E+03  0.00000000000E+00 0. -1.
         25    2    1    2    0    0 -0.74514077063E+02 -0.31657532295E+03  0.11181264563E+03  0.36592349138E+03  0.12500260414E+03 0.  0.
          2    1    1    2  501    0 -0.56416950739E+02  0.73432753113E+02 -0.44534852551E+02  0.10275502252E+03  0.00000000000E+00 0. -1.
          1    1    1    2  502    0  0.13093102780E+03  0.24314256983E+03  0.14491464968E+04  0.14752243261E+04  0.00000000000E+00 0. -1.
         22    1    3    3    0    0 -0.54668175231E+02 -0.58226538139E+02 -0.83557708262E+01  0.80304159499E+02  0.00000000000E+00 0. -1.
         22    1    3    3    0    0 -0.19845901832E+02 -0.25834878481E+03  0.12016841646E+03  0.28561933188E+03  0.00000000000E+00 0. -1.
</event>
<event>
 7    1  0.4822463E-005  0.5973824E+02  0.7818608E-02  0.1488031E+00
          2   -1    0    0  502    0  0.00000000000E+00  0.00000000000E+00  0.14902062697E+04  0.14902062697E+04  0.00000000000E+00 0. -1.
          1   -1    0    0  501    0 -0.00000000000E+00 -0.00000000000E+00 -0.35230600100E+02  0.35230600100E+02  0.00000000000E+00 0. -1.
         25    2    1    2    0    0  0.70833967107E+02  0.28316215691E+02  0.16463359574E+03  0.22033684677E+03  0.12499938493E+03 0.  0.
          2    1    1    2  501    0 -0.11376183261E+02 -0.28598899549E+02  0.28781079693E+02  0.42138641996E+02  0.00000000000E+00 0. -1.
          1    1    1    2  502    0 -0.59457783846E+02  0.28268385768E+00  0.12615609942E+04  0.12629613811E+04  0.00000000000E+00 0. -1.
         22    1    3    3    0    0  0.60938879019E+02  0.50056102028E+02  0.31243799203E+02  0.84825322369E+02  0.00000000000E+00 0. -1.
         22    1    3    3    0    0  0.98950880871E+01 -0.21739886337E+02  0.13338979653E+03  0.13551152440E+03  0.00000000000E+00 0. -1.
</event>
<event>
 7    1  0.4822463E-005  0.2324522E+03  0.7818608E-02  0.1205770E+00
          2   -1    0    0  502    0  0.00000000000E+00  0.00000000000E+00  0.97233159883E+03  0.97233159883E+03  0.00000000000E+00 0. -1.
          1   -1    0    0  501    0 -0.00000000000E+00 -0.00000000000E+00 -0.16728475629E+04  0.16728475629E+04  0.00000000000E+00 0. -1.
         25    2    1    2    0    0 -0.28700463318E+03 -0.11890213667E+03 -0.18803969333E+03  0.38406352834E+03  0.12504595140E+03 0.  0.
          2    1    1    2  501    0  0.19590756083E+03  0.11133477160E+03 -0.13752120649E+04  0.13935506547E+04  0.00000000000E+00 0. -1.
          1    1    1    2  502    0  0.91097072345E+02  0.75673650732E+01  0.86273579420E+03  0.86756497866E+03  0.00000000000E+00 0. -1.
         22    1    3    3    0    0 -0.51178492739E+02  0.18149850825E+02 -0.28462593632E+01  0.54376064554E+02  0.00000000000E+00 0. -1.
         22    1    3    3    0    0 -0.23582614044E+03 -0.13705198750E+03 -0.18519343397E+03  0.32968746379E+03  0.00000000000E+00 0. -1.
</event>
<event>
 7    1  0.4822463E-005  0.5192914E+02  0.7818608E-02  0.1549765E+00
          2   -1    0    0  502    0  0.00000000000E+00  0.00000000000E+00  0.54772564033E+02  0.54772564033E+02  0.00000000000E+00 0. -1.
          1   -1    0    0  501    0 -0.00000000000E+00 -0.00000000000E+00 -0.41391656083E+03  0.41391656083E+03  0.00000000000E+00 0. -1.
         25    2    1    2    0    0  0.29579679833E+02  0.40306286659E+02 -0.35310696177E+03  0.37790022612E+03  0.12499800098E+03 0.  0.
          2    1    1    2  501    0  0.16836357409E+02 -0.16270948328E+02 -0.25861445276E+02  0.34885828671E+02  0.00000000000E+00 0. -1.
          1    1    1    2  502    0 -0.46416037241E+02 -0.24035338331E+02  0.19824410247E+02  0.55903070073E+02  0.00000000000E+00 0. -1.
         22    1    3    3    0    0  0.74646176331E+02  0.26495888737E+02 -0.27939827797E+03  0.29040916221E+03  0.00000000000E+00 0. -1.
         22    1    3    3    0    0 -0.45066496498E+02  0.13810397922E+02 -0.73708683797E+02  0.87491063912E+02  0.00000000000E+00 0. -1.
</event>
<event>
 7    1  0.8252367E-005  0.2683064E+03  0.7818608E-02  0.1177185E+00
          2   -1    0    0  502    0  0.00000000000E+00  0.00000000000E+00  0.16376256515E+04  0.16376256515E+04  0.00000000000E+00 0. -1.
          1   -1    0    0  501    0 -0.00000000000E+00 -0.00000000000E+00 -0.12294255015E+04  0.12294255015E+04  0.00000000000E+00 0. -1.
         25    2    1    2    0    0 -0.21214772372E+03  0.30137535688E+03 -0.91911145285E+03  0.99811011643E+03  0.12499671731E+03 0.  0.
          2    1    1    2  501    0  0.86411838393E+02 -0.65650080657E+02 -0.24822657189E+03  0.27091210733E+03  0.00000000000E+00 0. -1.
          1    1    1    2  502    0  0.12573588533E+03 -0.23572527622E+03  0.15755381747E+04  0.15980289292E+04  0.00000000000E+00 0. -1.
         22    1    3    3    0    0 -0.58142093192E+02  0.14504892736E+03 -0.51594247647E+03  0.53908842814E+03  0.00000000000E+00 0.  1.
         22    1    3    3    0    0 -0.15400563053E+03  0.15632642952E+03 -0.40316897638E+03  0.45902168829E+03  0.00000000000E+00 0.  1.
</event>
<event>
 7    1  0.4822463E-005  0.2203484E+03  0.7818608E-02  0.1202801E+00
          2   -1    0    0  502    0  0.00000000000E+00  0.00000000000E+00  0.54029033119E+03  0.54029033119E+03  0.00000000000E+00 0. -1.
          1   -1    0    0  501    0 -0.00000000000E+00 -0.00000000000E+00 -0.93903872163E+03  0.93903872163E+03  0.00000000000E+00 0. -1.
         25    2    1    2    0    0  0.26136442221E+03  0.10252188729E+03 -0.85907044107E+02  0.31910169482E+03  0.12499509126E+03 0.  0.
          2    1    1    2  501    0 -0.16677555360E+03 -0.13361783907E+03 -0.71483072922E+03  0.74609033209E+03  0.00000000000E+00 0. -1.
          1    1    1    2  502    0 -0.94588868610E+02  0.31095951781E+02  0.40198938288E+03  0.41413702591E+03  0.00000000000E+00 0. -1.
         22    1    3    3    0    0  0.24612907510E+03  0.12143081315E+03 -0.98691399018E+02  0.29165897248E+03  0.00000000000E+00 0. -1.
         22    1    3    3    0    0  0.15235347111E+02 -0.18908925856E+02  0.12784354911E+02  0.27442722334E+02  0.00000000000E+00 0. -1.
</event>
<event>
 7    1  0.4822463E-005  0.3422601E+03  0.7818608E-02  0.1171446E+00
          2   -1    0    0  502    0  0.00000000000E+00  0.00000000000E+00  0.18260096804E+04  0.18260096804E+04  0.00000000000E+00 0. -1.
          1   -1    0    0  501    0 -0.00000000000E+00 -0.00000000000E+00 -0.14597719407E+04  0.14597719407E+04  0.00000000000E+00 0. -1.
         25    2    1    2    0    0 -0.39502898987E+03  0.58522213788E+02  0.52037387452E+03  0.66774949973E+03  0.12501069056E+03 0.  0.
          2    1    1    2  501    0  0.82882668908E+02  0.37079983928E+02 -0.13629196161E+04  0.13659408266E+04  0.00000000000E+00 0. -1.
          1    1    1    2  502    0  0.31214632096E+03 -0.95602197716E+02  0.12087834812E+04  0.12520912947E+04  0.00000000000E+00 0. -1.
         22    1    3    3    0    0 -0.27453219849E+03  0.62220420967E-01  0.27722740219E+03  0.39015761482E+03  0.00000000000E+00 0. -1.
         22    1    3    3    0    0 -0.12049679138E+03  0.58459993367E+02  0.24314647233E+03  0.27759188490E+03  0.00000000000E+00 0. -1.
</event>
<event>
 7    1  0.4822463E-005  0.7072968E+03  0.7818608E-02  0.1091142E+00
          2   -1    0    0  502    0  0.00000000000E+00  0.00000000000E+00  0.29128227959E+04  0.29128227959E+04  0.00000000000E+00 0. -1.
          1   -1    0    0  501    0 -0.00000000000E+00 -0.00000000000E+00 -0.15480795770E+04  0.15480795770E+04  0.00000000000E+00 0. -1.
         25    2    1    2    0    0 -0.76965072095E+03  0.23392345491E+03 -0.42458041425E+02  0.81517465762E+03  0.12499848852E+03 0.  0.
          2    1    1    2  501    0  0.91776563963E+02 -0.73635860048E+02 -0.10679581799E+04  0.10744207051E+04  0.00000000000E+00 0. -1.
          1    1    1    2  502    0  0.67787415699E+03 -0.16028759486E+03  0.24751594402E+04  0.25713070101E+04  0.00000000000E+00 0. -1.
         22    1    3    3    0    0 -0.65969050098E+03  0.15208969476E+03 -0.34430054516E+02  0.67787038657E+03  0.00000000000E+00 0. -1.
         22    1    3    3    0    0 -0.10996021997E+03  0.81833760143E+02 -0.80279869099E+01  0.13730427105E+03  0.00000000000E+00 0. -1.
</event>
<event>
 7    1  0.4822463E-005  0.5846431E+03  0.7818608E-02  0.1137322E+00
          2   -1    0    0  502    0  0.00000000000E+00  0.00000000000E+00  0.15003179327E+04  0.15003179327E+04  0.00000000000E+00 0. -1.
          1   -1    0    0  501    0 -0.00000000000E+00 -0.00000000000E+00 -0.12549777033E+04  0.12549777033E+04  0.00000000000E+00 0. -1.
         25    2    1    2    0    0  0.37394849087E+02  0.59212111486E+03  0.67819847580E+01  0.60636382423E+03  0.12500121046E+03 0.  0.
          2    1    1    2  501    0  0.76882547122E+02 -0.19817687094E+02 -0.88196870464E+03  0.88553512790E+03  0.00000000000E+00 0. -1.
          1    1    1    2  502    0 -0.11427739621E+03 -0.57230342776E+03  0.11205269493E+04  0.12633966839E+04  0.00000000000E+00 0. -1.
         22    1    3    3    0    0  0.53718376210E+02  0.96781107723E+02  0.34543329271E+01  0.11074375454E+03  0.00000000000E+00 0.  1.
         22    1    3    3    0    0 -0.16323527123E+02  0.49534000714E+03  0.33276518309E+01  0.49562006968E+03  0.00000000000E+00 0.  1.
</event>
<event>
 7    1  0.4822463E-005  0.3948628E+03  0.7818608E-02  0.1148875E+00
          2   -1    0    0  502    0  0.00000000000E+00  0.00000000000E+00  0.17785636712E+04  0.17785636712E+04  0.00000000000E+00 0. -1.
          1   -1    0    0  501    0 -0.00000000000E+00 -0.00000000000E+00 -0.16920053458E+03  0.16920053458E+03  0.00000000000E+00 0. -1.
         25    2    1    2    0    0 -0.31980595877E+03  0.34629907669E+03  0.54367883764E+03  0.73035001512E+03  0.12500225720E+03 0.  0.
          2    1    1    2  501    0  0.67507568203E+02 -0.76922945819E+02  0.14558381725E+02  0.10337484141E+03  0.00000000000E+00 0. -1.
          1    1    1    2  502    0  0.25229839056E+03 -0.26937613087E+03  0.10511259173E+04  0.11140393493E+04  0.00000000000E+00 0. -1.
         22    1    3    3    0    0 -0.10775068949E+03  0.55190027570E+02  0.19193886853E+03  0.22692879827E+03  0.00000000000E+00 0.  1.
         22    1    3    3    0    0 -0.21205526928E+03  0.29110904912E+03  0.35173996911E+03  0.50342121685E+03  0.00000000000E+00 0.  1.
</event>
<event>
 7    1  0.4822463E-005  0.7482003E+02  0.7818608E-02  0.1346938E+00
          2   -1    0    0  502    0  0.00000000000E+00  0.00000000000E+00  0.40516750614E+02  0.40516750614E+02  0.00000000000E+00 0. -1.
          1   -1    0    0  501    0 -0.00000000000E+00 -0.00000000000E+00 -0.14993053926E+04  0.14993053926E+04  0.00000000000E+00 0. -1.
         25    2    1    2    0    0 -0.98434884670E+02 -0.33706886993E+02 -0.68435216061E+03  0.70341240573E+03  0.12500220821E+03 0.  0.
          2    1    1    2  501    0  0.65245878226E+02 -0.33240861976E+02 -0.75587816358E+03  0.75941673520E+03  0.00000000000E+00 0. -1.
          1    1    1    2  502    0  0.33189006444E+02  0.66947748969E+02 -0.18558317800E+02  0.76993002282E+02  0.00000000000E+00 0. -1.
         22    1    3    3    0    0 -0.85697975711E+02 -0.68327533461E+02 -0.61662966387E+03  0.62629460898E+03  0.00000000000E+00 0. -1.
         22    1    3    3    0    0 -0.12736908960E+02  0.34620646468E+02 -0.67722496736E+02  0.77117796752E+02  0.00000000000E+00 0. -1.
</event>
<event>
 7    1  0.4822463E-005  0.4805469E+03  0.7818608E-02  0.1261581E+00
          2   -1    0    0  502    0  0.00000000000E+00  0.00000000000E+00  0.59439573337E+03  0.59439573337E+03  0.00000000000E+00 0. -1.
          1   -1    0    0  501    0 -0.00000000000E+00 -0.00000000000E+00 -0.18469825593E+04  0.18469825593E+04  0.00000000000E+00 0. -1.
         25    2    1    2    0    0 -0.14098539200E+03 -0.45580178988E+03 -0.91251668791E+03  0.10372772856E+04  0.12500123675E+03 0.  0.
          2    1    1    2  501    0  0.12011613076E+03  0.46944114616E+03 -0.80441461788E+03  0.93908772329E+03  0.00000000000E+00 0. -1.
          1    1    1    2  502    0  0.20869261238E+02 -0.13639356282E+02  0.46434447984E+03  0.46501328375E+03  0.00000000000E+00 0. -1.
         22    1    3    3    0    0 -0.16468740985E+03 -0.40135161898E+03 -0.80280989693E+03  0.91252879167E+03  0.00000000000E+00 0.  1.
         22    1    3    3    0    0  0.23702017856E+02 -0.54450170905E+02 -0.10970679098E+03  0.12474849398E+03  0.00000000000E+00 0.  1.
</event>
<event>
 7    1  0.4822463E-005  0.4763364E+03  0.7818608E-02  0.1093279E+00
          2   -1    0    0  502    0  0.00000000000E+00  0.00000000000E+00  0.37902766073E+03  0.37902766073E+03  0.00000000000E+00 0. -1.
          1   -1    0    0  501    0 -0.00000000000E+00 -0.00000000000E+00 -0.22459034057E+04  0.22459034057E+04  0.00000000000E+00 0. -1.
         25    2    1    2    0    0 -0.19852384851E+03  0.50588207412E+03 -0.16582567366E+04  0.17495052714E+04  0.12499959543E+03 0.  0.
          2    1    1    2  501    0  0.15876456494E+03 -0.34072779942E+03 -0.44615370914E+03  0.58339930799E+03  0.00000000000E+00 0. -1.
          1    1    1    2  502    0  0.39759283565E+02 -0.16515427470E+03  0.23753470076E+03  0.29202648706E+03  0.00000000000E+00 0. -1.
         22    1    3    3    0    0 -0.16236497870E+03  0.26731594626E+03 -0.10328453257E+04  0.10791615579E+04  0.00000000000E+00 0. -1.
         22    1    3    3    0    0 -0.36158869805E+02  0.23856612786E+03 -0.62541141096E+03  0.67034371347E+03  0.00000000000E+00 0. -1.
</event>
<event>
 7    1  0.4822463E-005  0.3925515E+03  0.7818608E-02  0.1164068E+00
          2   -1    0    0  502    0  0.00000000000E+00  0.00000000000E+00  0.11430856506E+04  0.11430856506E+04  0.00000000000E+00 0. -1.
          1   -1    0    0  501    0 -0.00000000000E+00 -0.00000000000E+00 -0.12800291374E+04  0.12800291374E+04  0.00000000000E+00 0. -1.
         25    2    1    2    0    0  0.20916676385E+03 -0.37091423261E+03 -0.78690593905E+03  0.90342362529E+03  0.12500074711E+03 0.  0.
          2    1    1    2  501    0 -0.20855861592E+03  0.28475138725E+03 -0.36110876317E+03  0.50495503528E+03  0.00000000000E+00 0. -1.
          1    1    1    2  502    0 -0.60814792968E+00  0.86162845357E+02  0.10110712154E+04  0.10147361274E+04  0.00000000000E+00 0. -1.
         22    1    3    3    0    0  0.15187872087E+03 -0.20561028838E+03 -0.57046216553E+03  0.62511584434E+03  0.00000000000E+00 0. -1.
         22    1    3    3    0    0  0.57288042974E+02 -0.16530394423E+03 -0.21644377352E+03  0.27830778095E+03  0.00000000000E+00 0. -1.
</event>
<event>
 7    1  0.4822463E-005  0.3045211E+03  0.7818608E-02  0.1128228E+00
          2   -1    0    0  502    0  0.00000000000E+00  0.00000000000E+00  0.26292936998E+04  0.26292936998E+04  0.00000000000E+00 0. -1.
          1   -1    0    0  501    0 -0.00000000000E+00 -0.00000000000E+00 -0.18623685873E+04  0.18623685873E+04  0.00000000000E+00 0. -1.
         25    2    1    2    0    0 -0.21664301364E+03  0.28109123663E+03 -0.17811798166E+03  0.41629037046E+03  0.12500071392E+03 0.  0.
          2    1    1    2  501    0  0.27739969430E+03 -0.12194884411E+03 -0.15475636081E+04  0.15769512460E+04  0.00000000000E+00 0. -1.
          1    1    1    2  502    0 -0.60756680662E+02 -0.15914239252E+03  0.24926067023E+04  0.24984206707E+04  0.00000000000E+00 0. -1.
         22    1    3    3    0    0 -0.23248647838E+03  0.27261203086E+03 -0.17013141809E+03  0.39662574478E+03  0.00000000000E+00 0.  1.
         22    1    3    3    0    0  0.15843464744E+02  0.84792057674E+01 -0.79865635648E+01  0.19664625680E+02  0.00000000000E+00 0.  1.
</event>
<event>
 7    1  0.4822463E-005  0.8630034E+03  0.7818608E-02  0.1213618E+00
          2   -1    0    0  502    0  0.00000000000E+00  0.00000000000E+00  0.60148912201E+03  0.60148912201E+03  0.00000000000E+00 0. -1.
          1   -1    0    0  501    0 -0.00000000000E+00 -0.00000000000E+00 -0.20354206999E+04  0.20354206999E+04  0.00000000000E+00 0. -1.
         25    2    1    2    0    0  0.79470794304E+03 -0.35004392656E+03 -0.35435019473E+03  0.94619300819E+03  0.12500273193E+03 0.  0.
          2    1    1    2  501    0 -0.15119887143E+01  0.22591375914E+02 -0.78218927477E+03  0.78251691224E+03  0.00000000000E+00 0. -1.
          1    1    1    2  502    0 -0.79319595432E+03  0.32745255064E+03 -0.29739210835E+03  0.90819990145E+03  0.00000000000E+00 0. -1.
         22    1    3    3    0    0  0.63538961666E+03 -0.22297577288E+03 -0.27988592184E+03  0.72922855779E+03  0.00000000000E+00 0. -1.
         22    1    3    3    0    0  0.15931832637E+03 -0.12706815368E+03 -0.74464272888E+02  0.21696445040E+03  0.00000000000E+00 0. -1.
</event>
<event>
 7    1  0.4822463E-005  0.6586652E+02  0.7818608E-02  0.1510812E+00
          2   -1    0    0  502    0  0.00000000000E+00  0.00000000000E+00  0.24208027620E+04  0.24208027620E+04  0.00000000000E+00 0. -1.
          1   -1    0    0  501    0 -0.00000000000E+00 -0.00000000000E+00 -0.58823974136E+03  0.58823974136E+03  0.00000000000E+00 0. -1.
         25    2    1    2    0    0 -0.71113082123E+02  0.38516235842E+01 -0.75080558177E+02  0.16227946207E+03  0.12500251253E+03 0.  0.
          2    1    1    2  501    0  0.10332151230E+02  0.21514478488E+02 -0.46879991811E+03  0.46940706147E+03  0.00000000000E+00 0. -1.
          1    1    1    2  502    0  0.60780930893E+02 -0.25366102072E+02  0.23764434969E+04  0.23773559798E+04  0.00000000000E+00 0. -1.
         22    1    3    3    0    0 -0.60240094126E+02 -0.26977527287E+02  0.13927257715E+02  0.67458316213E+02  0.00000000000E+00 0. -1.
         22    1    3    3    0    0 -0.10872987998E+02  0.30829150872E+02 -0.89007815892E+02  0.94821145855E+02  0.00000000000E+00 0. -1.
</event>
<event>
 7    1  0.4822463E-005  0.7486198E+02  0.7818608E-02  0.1456820E+00
          2   -1    0    0  502    0  0.00000000000E+00  0.00000000000E+00  0.14444497701E+04  0.14444497701E+04  0.00000000000E+00 0. -1.
          1   -1    0    0  501    0 -0.00000000000E+00 -0.00000000000E+00 -0.18390288537E+03  0.18390288537E+03  0.00000000000E+00 0. -1.
         25    2    1    2    0    0 -0.78870948513E+02 -0.32413566762E+02 -0.82685383122E+02  0.17243319655E+03  0.12500027545E+03 0.  0.
          2    1    1    2  501    0  0.24286734643E+02 -0.18763779831E+02 -0.51085366798E+02  0.59595634186E+02  0.00000000000E+00 0. -1.
          1    1    1    2  502    0  0.54584213870E+02  0.51177346593E+02  0.13943176347E+04  0.13963238248E+04  0.00000000000E+00 0. -1.
         22    1    3    3    0    0 -0.10767079898E+03 -0.87902199251E+01 -0.38599507863E+02  0.11471787536E+03  0.00000000000E+00 0.  1.
         22    1    3    3    0    0  0.28799850470E+02 -0.23623346837E+02 -0.44085875260E+02  0.57715321192E+02  0.00000000000E+00 0.  1.
</event>
<event>
 7    1  0.4822463E-005  0.8414108E+03  0.7818608E-02  0.1196808E+00
          2   -1    0    0  502    0  0.00000000000E+00  0.00000000000E+00  0.98678965991E+03  0.98678965991E+03  0.00000000000E+00 0. -1.
          1   -1    0    0  501    0 -0.00000000000E+00 -0.00000000000E+00 -0.20256033626E+04  0.20256033626E+04  0.00000000000E+00 0. -1.
         25    2    1    2    0    0 -0.18122780124E+03 -0.83905396939E+03 -0.58299901452E+03  0.10451570693E+04  0.12494146251E+03 0.  0.
          2    1    1    2  501    0  0.17973159429E+03  0.81126512248E+03 -0.10686961401E+04  0.13537230089E+04  0.00000000000E+00 0. -1.
          1    1    1    2  502    0  0.14962069521E+01  0.27788846907E+02  0.61288145197E+03  0.61351294429E+03  0.00000000000E+00 0. -1.
         22    1    3    3    0    0 -0.14720505502E+03 -0.79173242744E+03 -0.51636651217E+03  0.95663155905E+03  0.00000000000E+00 0. -1.
         22    1    3    3    0    0 -0.34022746224E+02 -0.47321541951E+02 -0.66632502342E+02  0.88525510231E+02  0.00000000000E+00 0. -1.
</event>
<event>
 7    1  0.4822463E-005  0.1068567E+03  0.7818608E-02  0.1386446E+00
          2   -1    0    0  502    0  0.00000000000E+00  0.00000000000E+00  0.31468214284E+02  0.31468214284E+02  0.00000000000E+00 0. -1.
          1   -1    0    0  501    0 -0.00000000000E+00 -0.00000000000E+00 -0.24489958975E+04  0.24489958975E+04  0.00000000000E+00 0. -1.
         25    2    1    2    0    0  0.57822906992E+02  0.68861235055E+02 -0.28978305558E+03  0.32815366280E+03  0.12500099536E+03 0.  0.
          2    1    1    2  501    0 -0.92570304552E+02 -0.56421495351E+02 -0.21073628887E+04  0.21101495187E+04  0.00000000000E+00 0. -1.
          1    1    1    2  502    0  0.34747397560E+02 -0.12439739703E+02 -0.20381738872E+02  0.42160930261E+02  0.00000000000E+00 0. -1.
         22    1    3    3    0    0  0.46704678685E+02 -0.12266605668E+02 -0.20369618774E+03  0.20934166696E+03  0.00000000000E+00 0. -1.
         22    1    3    3    0    0  0.11118228308E+02  0.81127840722E+02 -0.86086867836E+02  0.11881199584E+03  0.00000000000E+00 0. -1.
</event>
<event>
 7    1  0.4822463E-005  0.1370450E+03  0.7818608E-02  0.1312065E+00
          2   -1    0    0  502    0  0.00000000000E+00  0.00000000000E+00  0.37284314550E+03  0.37284314550E+03  0.00000000000E+00 0. -1.
          1   -1    0    0  501    0 -0.00000000000E+00 -0.00000000000E+00 -0.40485697257E+03  0.40485697257E+03  0.00000000000E+00 0. -1.
         25    2    1    2    0    0  0.14137155044E+03 -0.24730961685E+01  0.12722193266E+03  0.22760104589E+03  0.12499913784E+03 0.  0.
          2    1    1    2  501    0 -0.12797713403E+03 -0.50196720836E+02 -0.33713440921E+03  0.36408442357E+03  0.00000000000E+00 0. -1.
          1    1    1    2  502    0 -0.13394416411E+02  0.52669817004E+02  0.17789864947E+03  0.18601464861E+03  0.00000000000E+00 0. -1.
         22    1    3    3    0    0 -0.17441698894E+02 -0.20676799849E+02  0.30483745729E+02  0.40755388183E+02  0.00000000000E+00 0. -1.
         22    1    3    3    0    0  0.15881324934E+03  0.18203703681E+02  0.96738186933E+02  0.18684565770E+03  0.00000000000E+00 0. -1.
</event>
<event>
 7    1  0.4822463E-005  0.1756794E+03  0.7818608E-02  0.1212763E+00
          2   -1    0    0  502    0  0.00000000000E+00  0.00000000000E+00  0.32053192487E+04  0.32053192487E+04  0.00000000000E+00 0. -1.
          1   -1    0    0  501    0 -0.00000000000E+00 -0.00000000000E+00 -0.73839563409E+02  0.73839563409E+02  0.00000000000E+00 0. -1.
         25    2    1    2    0    0 -0.85037619290E+02 -0.24504853493E+03  0.14317599330E+04  0.14604250129E+04  0.12499812569E+03 0.  0.
          2    1    1    2  501    0  0.66779587405E+02  0.90212522406E+02  0.36351868128E+00  0.11224056592E+03  0.00000000000E+00 0. -1.
          1    1    1    2  502    0  0.18258031886E+02  0.15483601253E+03  0.16993562336E+04  0.17064932332E+04  0.00000000000E+00 0. -1.
         22    1    3    3    0    0 -0.13932505167E+02 -0.81883273721E+01  0.36568334356E+03  0.36604025894E+03  0.00000000000E+00 0.  1.
         22    1    3    3    0    0 -0.71105114123E+02 -0.23686020756E+03  0.10660765895E+04  0.10943847540E+04  0.00000000000E+00 0.  1.
</event>
<event>
 7    1  0.4822463E-005  0.4157937E+03  0.7818608E-02  0.1148115E+00
          2   -1    0    0  502    0  0.00000000000E+00  0.00000000000E+00  0.68768582934E+03  0.68768582934E+03  0.00000000000E+00 0. -1.
          1   -1    0    0  501    0 -0.00000000000E+00 -0.00000000000E+00 -0.10982983338E+04  0.10982983338E+04  0.00000000000E+00 0. -1.
         25    2    1    2    0    0 -0.38910386682E+02 -0.45046752048E+03 -0.44188843507E+02  0.47118264571E+03  0.12500170614E+03 0.  0.
          2    1    1    2  501    0 -0.76420743525E+02  0.61468572756E+02 -0.75004084461E+03  0.75642566328E+03  0.00000000000E+00 0. -1.
          1    1    1    2  502    0  0.11533113021E+03  0.38899894772E+03  0.38361718365E+03  0.55837585416E+03  0.00000000000E+00 0. -1.
         22    1    3    3    0    0  0.26704624299E+02 -0.33336250554E+03 -0.22277871131E+02  0.33517159874E+03  0.00000000000E+00 0.  1.
         22    1    3    3    0    0 -0.65615010981E+02 -0.11710501494E+03 -0.21910972376E+02  0.13601104698E+03  0.00000000000E+00 0.  1.
</event>
<event>
 7    1  0.4822463E-005  0.6476354E+02  0.7818608E-02  0.1485226E+00
          2   -1    0    0  502    0  0.00000000000E+00  0.00000000000E+00  0.93721265833E+03  0.93721265833E+03  0.00000000000E+00 0. -1.
          1   -1    0    0  501    0 -0.00000000000E+00 -0.00000000000E+00 -0.87920369436E+03  0.87920369436E+03  0.00000000000E+00 0. -1.
         25    2    1    2    0    0  0.64173715161E+02  0.39100664677E+02  0.97038126165E+02  0.17517981109E+03  0.12499776233E+03 0.  0.
          2    1    1    2  501    0 -0.25901047906E+02  0.12939019016E+02 -0.83858036618E+03  0.83908003971E+03  0.00000000000E+00 0. -1.
          1    1    1    2  502    0 -0.38272667255E+02 -0.52039683694E+02  0.79955120398E+03  0.80215650189E+03  0.00000000000E+00 0. -1.
         22    1    3    3    0    0  0.47603492753E+02  0.75338097435E+02  0.24509462834E+02  0.92426377273E+02  0.00000000000E+00 0. -1.
         22    1    3    3    0    0  0.16570222408E+02 -0.36237432757E+02  0.72528663331E+02  0.82753433815E+02  0.00000000000E+00 0. -1.
</event>
<event>
 7    1  0.4822463E-005  0.1745751E+03  0.7818608E-02  0.1282710E+00
          2   -1    0    0  502    0  0.00000000000E+00  0.00000000000E+00  0.53477267285E+02  0.53477267285E+02  0.00000000000E+00 0. -1.
          1   -1    0    0  501    0 -0.00000000000E+00 -0.00000000000E+00 -0.14556703141E+04  0.14556703141E+04  0.00000000000E+00 0. -1.
         25    2    1    2    0    0 -0.17182050676E+03  0.10734953174E+03 -0.51632765511E+03  0.56856488259E+03  0.12500227910E+03 0.  0.
          2    1    1    2  501    0  0.11714065763E+03 -0.11936445181E+03 -0.86471022347E+03  0.88073468003E+03  0.00000000000E+00 0. -1.
          1    1    1    2  502    0  0.54679849124E+02  0.12014920075E+02 -0.21155168206E+02  0.59848018734E+02  0.00000000000E+00 0. -1.
         22    1    3    3    0    0 -0.92360250793E+01 -0.60568119568E+01  0.40075410276E+01  0.11749447452E+02  0.00000000000E+00 0. -1.
         22    1    3    3    0    0 -0.16258448168E+03  0.11340634369E+03 -0.52033519613E+03  0.55681543514E+03  0.00000000000E+00 0. -1.
</event>
<event>
 7    1  0.4822463E-005  0.2862092E+03  0.7818608E-02  0.1202974E+00
          2   -1    0    0  502    0  0.00000000000E+00  0.00000000000E+00  0.85048337452E+03  0.85048337452E+03  0.00000000000E+00 0. -1.
          1   -1    0    0  501    0 -0.00000000000E+00 -0.00000000000E+00 -0.30864342662E+03  0.30864342662E+03  0.00000000000E+00 0. -1.
         25    2    1    2    0    0 -0.27304451772E+03  0.43924564940E+01 -0.84759585972E+02  0.31206090967E+03  0.12500088639E+03 0.  0.
          2    1    1    2  501    0  0.31192207854E+03  0.61508234786E+02  0.12816027499E+03  0.34278813006E+03  0.00000000000E+00 0. -1.
          1    1    1    2  502    0 -0.38877560819E+02 -0.65900691280E+02  0.49843925889E+03  0.50427776141E+03  0.00000000000E+00 0. -1.
         22    1    3    3    0    0 -0.16643928473E+03 -0.42972566942E+02 -0.73397010218E+01  0.17205391081E+03  0.00000000000E+00 0.  1.
         22    1    3    3    0    0 -0.10660523299E+03  0.47365023436E+02 -0.77419884950E+02  0.14000699886E+03  0.00000000000E+00 0.  1.
</event>
<event>
 7    1  0.4822463E-005  0.2550900E+03  0.7818608E-02  0.1192024E+00
          2   -1    0    0  502    0  0.00000000000E+00  0.00000000000E+00  0.33343334588E+04  0.33343334588E+04  0.00000000000E+00 0. -1.
          1   -1    0    0  501    0 -0.00000000000E+00 -0.00000000000E+00 -0.33516057190E+03  0.33516057190E+03  0.00000000000E+00 0. -1.
         25    2    1    2    0    0 -0.29002017116E+03  0.34521942974E+02  0.19629537088E+04  0.19884961472E+04  0.12500480180E+03 0.  0.
          2    1    1    2  501    0  0.24894069284E+03  0.53060223250E+02 -0.27008096033E+03  0.37112070944E+03  0.00000000000E+00 0. -1.
          1    1    1    2  502    0  0.41079478325E+02 -0.87582166224E+02  0.13063001385E+04  0.13098771741E+04  0.00000000000E+00 0. -1.
         22    1    3    3    0    0 -0.42749970984E+02 -0.26563073604E+02  0.58799990603E+03  0.59015002024E+03  0.00000000000E+00 0.  1.
         22    1    3    3    0    0 -0.24727020018E+03  0.61085016578E+02  0.13749538027E+04  0.13983461270E+04  0.00000000000E+00 0.  1.
</event>
<event>
 7    1  0.4822463E-005  0.1739997E+03  0.7818608E-02  0.1368427E+00
          2   -1    0    0  502    0  0.00000000000E+00  0.00000000000E+00  0.39991050545E+04  0.39991050545E+04  0.00000000000E+00 0. -1.
          1   -1    0    0  501    0 -0.00000000000E+00 -0.00000000000E+00 -0.58140801426E+03  0.58140801426E+03  0.00000000000E+00 0. -1.
         25    2    1    2    0    0 -0.91529951030E+02  0.15894683300E+03 -0.18055748205E+03  0.28612266110E+03  0.12499338070E+03 0.  0.
          2    1    1    2  501    0  0.26172091539E+02  0.22431605938E+01 -0.34565277015E+03  0.34664945933E+03  0.00000000000E+00 0. -1.
          1    1    1    2  502    0  0.65357859491E+02 -0.16118999359E+03  0.39439072925E+04  0.39477409484E+04  0.00000000000E+00 0. -1.
         22    1    3    3    0    0 -0.12408716139E+02  0.47856340579E+02  0.11313797998E+02  0.50716935977E+02  0.00000000000E+00 0. -1.
         22    1    3    3    0    0 -0.79121234891E+02  0.11109049242E+03 -0.19187128004E+03  0.23540572513E+03  0.00000000000E+00 0. -1.
</event>
<event>
 7    1  0.4822463E-005  0.4532678E+03  0.7818608E-02  0.1183732E+00
          2   -1    0    0  502    0  0.00000000000E+00  0.00000000000E+00  0.68439883022E+03  0.68439883022E+03  0.00000000000E+00 0. -1.
          1   -1    0    0  501    0 -0.00000000000E+00 -0.00000000000E+00 -0.10895976434E+04  0.10895976434E+04  0.00000000000E+00 0. -1.
         25    2    1    2    0    0  0.31478278067E+03  0.35861772346E+03  0.19243954624E+03  0.52948116103E+03  0.12498980097E+03 0.  0.
          2    1    1    2  501    0 -0.33365197248E+03 -0.30199464356E+03 -0.86258892167E+03  0.97292551167E+03  0.00000000000E+00 0. -1.
          1    1    1    2  502    0  0.18869191803E+02 -0.56623079902E+02  0.26495056220E+03  0.27158980096E+03  0.00000000000E+00 0. -1.
         22    1    3    3    0    0  0.65087048359E+02  0.13841919251E+03  0.10416223745E+03  0.18505666276E+03  0.00000000000E+00 0.  1.
         22    1    3    3    0    0  0.24969573231E+03  0.22019853095E+03  0.88277308784E+02  0.34442449828E+03  0.00000000000E+00 0.  1.
</event>
<event>
 7    1  0.4822463E-005  0.1872930E+03  0.7818608E-02  0.1209083E+00
          2   -1    0    0  502    0  0.00000000000E+00  0.00000000000E+00  0.36927973450E+04  0.36927973450E+04  0.00000000000E+00 0. -1.
          1   -1    0    0  501    0 -0.00000000000E+00 -0.00000000000E+00 -0.68876713862E+03  0.68876713862E+03  0.00000000000E+00 0. -1.
         25    2    1    2    0    0 -0.96932114034E+02 -0.24047986305E+03  0.18083977836E+04  0.18311621254E+04  0.12500314536E+03 0.  0.
          2    1    1    2  501    0  0.14441475490E+01  0.18690316731E+03 -0.66284967224E+03  0.68869773305E+03  0.00000000000E+00 0. -1.
          1    1    1    2  502    0  0.95487966485E+02  0.53576695733E+02  0.18584820950E+04  0.18617046252E+04  0.00000000000E+00 0. -1.
         22    1    3    3    0    0 -0.11947873288E+03 -0.16950597001E+03  0.14778402030E+04  0.14923200418E+04  0.00000000000E+00 0.  1.
         22    1    3    3    0    0  0.22546618844E+02 -0.70973893038E+02  0.33055758059E+03  0.33884208357E+03  0.00000000000E+00 0.  1.
</event>
<event>
 7    1  0.4822463E-005  0.6684194E+02  0.7818608E-02  0.1413063E+00
          2   -1    0    0  502    0  0.00000000000E+00  0.00000000000E+00  0.11653939303E+03  0.11653939303E+03  0.00000000000E+00 0. -1.
          1   -1    0    0  501    0 -0.00000000000E+00 -0.00000000000E+00 -0.85402142900E+03  0.85402142900E+03  0.00000000000E+00 0. -1.
         25    2    1    2    0    0  0.78282360676E+02  0.28174039950E+02 -0.92687268887E+00  0.15016022747E+03  0.12500132119E+03 0.  0.
          2    1    1    2  501    0 -0.64459334202E+02  0.17568235722E+02 -0.76290975172E+03  0.76582957500E+03  0.00000000000E+00 0. -1.
          1    1    1    2  502    0 -0.13823026474E+02 -0.45742275672E+02  0.26354588439E+02  0.54571019565E+02  0.00000000000E+00 0. -1.
         22    1    3    3    0    0  0.58919784338E+02 -0.44517420391E+02  0.85480553219E+01  0.74339834237E+02  0.00000000000E+00 0. -1.
         22    1    3    3    0    0  0.19362576338E+02  0.72691460341E+02 -0.94749280108E+01  0.75820393231E+02  0.00000000000E+00 0. -1.
</event>
<event>
 7    1  0.4822463E-005  0.3913386E+02  0.7818608E-02  0.1530512E+00
          2   -1    0    0  502    0  0.00000000000E+00  0.00000000000E+00  0.30322145283E+04  0.30322145283E+04  0.00000000000E+00 0. -1.
          1   -1    0    0  501    0 -0.00000000000E+00 -0.00000000000E+00 -0.28218736468E+03  0.28218736468E+03  0.00000000000E+00 0. -1.
         25    2    1    2    0    0  0.34488126694E+02  0.37487102791E+02  0.95010298133E+03  0.95964299805E+03  0.12499717923E+03 0.  0.
          2    1    1    2  501    0  0.46257175306E+01 -0.34911490016E+02 -0.27611395721E+03  0.27835072618E+03  0.00000000000E+00 0. -1.
          1    1    1    2  502    0 -0.39113844225E+02 -0.25756127756E+01  0.20760381395E+04  0.20764081688E+04  0.00000000000E+00 0. -1.
         22    1    3    3    0    0  0.10518936059E+02 -0.41384284001E+02  0.51732565256E+03  0.51908490421E+03  0.00000000000E+00 0. -1.
         22    1    3    3    0    0  0.23969190635E+02  0.78871386792E+02  0.43277732877E+03  0.44055809384E+03  0.00000000000E+00 0. -1.
</event>
<event>
 7    1  0.4822463E-005  0.4632274E+03  0.7818608E-02  0.1058597E+00
          2   -1    0    0  502    0  0.00000000000E+00  0.00000000000E+00  0.14674544588E+04  0.14674544588E+04  0.00000000000E+00 0. -1.
          1   -1    0    0  501    0 -0.00000000000E+00 -0.00000000000E+00 -0.20796199303E+04  0.20796199303E+04  0.00000000000E+00 0. -1.
         25    2    1    2    0    0 -0.29411180120E+03 -0.13099986696E+03  0.52978198412E+03  0.63242111221E+03  0.12499918290E+03 0.  0.
          2    1    1    2  501    0  0.24233930214E+03  0.40589169742E+03 -0.19776568527E+04  0.20333723305E+04  0.00000000000E+00 0. -1.
          1    1    1    2  502    0  0.51772499055E+02 -0.27489183046E+03  0.83570939712E+03  0.88128094643E+03  0.00000000000E+00 0. -1.
         22    1    3    3    0    0 -0.17086513334E+03 -0.46357044640E+02  0.18221084687E+03  0.25405641519E+03  0.00000000000E+00 0. -1.
         22    1    3    3    0    0 -0.12324666786E+03 -0.84642822318E+02  0.34757113725E+03  0.37836469703E+03  0.00000000000E+00 0. -1.
</event>
<event>
 7    1  0.4822463E-005  0.4839297E+03  0.7818608E-02  0.1233146E+00
          2   -1    0    0  502    0  0.00000000000E+00  0.00000000000E+00  0.19179323755E+04  0.19179323755E+04  0.00000000000E+00 0. -1.
          1   -1    0    0  501    0 -0.00000000000E+00 -0.00000000000E+00 -0.23969052442E+03  0.23969052442E+03  0.00000000000E+00 0. -1.
         25    2    1    2    0    0  0.19409976479E+03  0.41863017589E+03  0.28547651672E+03  0.55681953051E+03  0.12500082043E+03 0.  0.
          2    1    1    2  501    0 -0.19964678350E+01  0.32870296085E+02 -0.59435487895E+02  0.67948653186E+02  0.00000000000E+00 0. -1.
          1    1    1    2  502    0 -0.19210329696E+03 -0.45150047197E+03  0.14522008222E+04  0.15328547162E+04  0.00000000000E+00 0. -1.
         22    1    3    3    0    0  0.92222486610E+02  0.31436226198E+03  0.16054423122E+03  0.36483293296E+03  0.00000000000E+00 0. -1.
         22    1    3    3    0    0  0.10187727818E+03  0.10426791391E+03  0.12493228550E+03  0.19198659755E+03  0.00000000000E+00 0. -1.
</event>
<event>
 7    1  0.4822463E-005  0.2051555E+03  0.7818608E-02  0.1246113E+00
          2   -1    0    0  502    0  0.00000000000E+00  0.00000000000E+00  0.16854343770E+04  0.16854343770E+04  0.00000000000E+00 0. -1.
          1   -1    0    0  501    0 -0.00000000000E+00 -0.00000000000E+00 -0.12338937059E+03  0.12338937059E+03  0.00000000000E+00 0. -1.
         25    2    1    2    0    0 -0.18400611447E+03 -0.15872380267E+03  0.15033271986E+03  0.31189330781E+03  0.12500405233E+03 0.  0.
          2    1    1    2  501    0  0.13516158634E+03  0.11128618084E+03  0.14208968241E+03  0.22548336150E+03  0.00000000000E+00 0. -1.
          1    1    1    2  502    0  0.48844528132E+02  0.47437621832E+02  0.12696226041E+04  0.12714470783E+04  0.00000000000E+00 0. -1.
         22    1    3    3    0    0 -0.12032331379E+03 -0.11862045789E+03  0.32473044556E+02  0.17205525710E+03  0.00000000000E+00 0.  1.
         22    1    3    3    0    0 -0.63682800679E+02 -0.40103344781E+02  0.11785967530E+03  0.13983805071E+03  0.00000000000E+00 0.  1.
</event>
<event>
 7    1  0.4822463E-005  0.4712718E+03  0.7818608E-02  0.1221086E+00
          2   -1    0    0  502    0  0.00000000000E+00  0.00000000000E+00  0.14581005184E+04  0.14581005184E+04  0.00000000000E+00 0. -1.
          1   -1    0    0  501    0 -0.00000000000E+00 -0.00000000000E+00 -0.56072871023E+03  0.56072871023E+03  0.00000000000E+00 0. -1.
         25    2    1    2    0    0 -0.48296469111E+02  0.46816775682E+03 -0.10989026778E+03  0.49921317224E+03  0.12499729173E+03 0.  0.
          2    1    1    2  501    0  0.86471505537E+02 -0.46481307774E+03 -0.37387319734E+02  0.47426398786E+03  0.00000000000E+00 0. -1.
          1    1    1    2  502    0 -0.38175036426E+02 -0.33546790757E+01  0.10446493957E+04  0.10453520686E+04  0.00000000000E+00 0. -1.
         22    1    3    3    0    0 -0.12540144195E+02  0.44304464418E+03 -0.98056552975E+02  0.45393931261E+03  0.00000000000E+00 0.  1.
         22    1    3    3    0    0 -0.35756324916E+02  0.25123112638E+02 -0.11833714803E+02  0.45273859634E+02  0.00000000000E+00 0.  1.
</event>
<event>
 7    1  0.4822463E-005  0.7662697E+03  0.7818608E-02  0.1224234E+00
          2   -1    0    0  502    0  0.00000000000E+00  0.00000000000E+00  0.62669558819E+03  0.62669558819E+03  0.00000000000E+00 0. -1.
          1   -1    0    0  501    0 -0.00000000000E+00 -0.00000000000E+00 -0.17341362546E+04  0.17341362546E+04  0.00000000000E+00 0. -1.
         25    2    1    2    0    0  0.33532019339E+03  0.68798688974E+03  0.97057732660E+02  0.78154297068E+03  0.12499447585E+03 0.  0.
          2    1    1    2  501    0 -0.31521266743E+03 -0.69874798533E+03 -0.12846409131E+04  0.14959645880E+04  0.00000000000E+00 0. -1.
          1    1    1    2  502    0 -0.20107525963E+02  0.10761095586E+02  0.80142514043E+02  0.83324284190E+02  0.00000000000E+00 0. -1.
         22    1    3    3    0    0  0.27925152339E+02  0.79699605432E+02  0.50524363445E+02  0.98410124178E+02  0.00000000000E+00 0. -1.
         22    1    3    3    0    0  0.30739504105E+03  0.60828728431E+03  0.46533369216E+02  0.68313284650E+03  0.00000000000E+00 0. -1.
</event>
<event>
 7    1  0.4822463E-005  0.2860365E+03  0.7818608E-02  0.1189710E+00
          2   -1    0    0  502    0  0.00000000000E+00  0.00000000000E+00  0.45984302754E+03  0.45984302754E+03  0.00000000000E+00 0. -1.
          1   -1    0    0  501    0 -0.00000000000E+00 -0.00000000000E+00 -0.17818247362E+04  0.17818247362E+04  0.00000000000E+00 0. -1.
         25    2    1    2    0    0 -0.32245745305E+03 -0.12966758414E+03 -0.28533561147E+03  0.46672556556E+03  0.12499540380E+03 0.  0.
          2    1    1    2  501    0  0.23556487297E+03  0.14646813052E+03 -0.13865474664E+04  0.14140217818E+04  0.00000000000E+00 0. -1.
          1    1    1    2  502    0  0.86892580087E+02 -0.16800546387E+02  0.34990136921E+03  0.36092041645E+03  0.00000000000E+00 0. -1.
         22    1    3    3    0    0 -0.32643110228E+02 -0.61729990181E+02 -0.36760760097E+02  0.78914623588E+02  0.00000000000E+00 0.  1.
         22    1    3    3    0    0 -0.28981434283E+03 -0.67937593956E+02 -0.24857485137E+03  0.38781094197E+03  0.00000000000E+00 0.  1.
</event>
<event>
 7    1  0.4822463E-005  0.5457090E+03  0.7818608E-02  0.1124571E+00
          2   -1    0    0  502    0  0.00000000000E+00  0.00000000000E+00  0.79072478760E+03  0.79072478760E+03  0.00000000000E+00 0. -1.
          1   -1    0    0  501    0 -0.00000000000E+00 -0.00000000000E+00 -0.25009547020E+04  0.25009547020E+04  0.00000000000E+00 0. -1.
         25    2    1    2    0    0 -0.62849619366E+02  0.62891654765E+03 -0.11735861554E+03  0.65489274977E+03  0.12500148201E+03 0.  0.
          2    1    1    2  501    0  0.72476177662E+02 -0.52993157773E+03 -0.20758630886E+04  0.21436622486E+04  0.00000000000E+00 0. -1.
          1    1    1    2  502    0 -0.96265582964E+01 -0.98984969919E+02  0.48299178974E+03  0.49312449123E+03  0.00000000000E+00 0. -1.
         22    1    3    3    0    0 -0.99417636083E+02  0.45508150855E+03 -0.69963835090E+02  0.47103925952E+03  0.00000000000E+00 0.  1.
         22    1    3    3    0    0  0.36568016718E+02  0.17383503910E+03 -0.47394780449E+02  0.18385349026E+03  0.00000000000E+00 0.  1.
</event>
<event>
 7    1  0.4822463E-005  0.9762959E+02  0.7818608E-02  0.1354456E+00
          2   -1    0    0  502    0  0.00000000000E+00  0.00000000000E+00  0.53042588718E+03  0.53042588718E+03  0.00000000000E+00 0. -1.
          1   -1    0    0  501    0 -0.00000000000E+00 -0.00000000000E+00 -0.63486175349E+03  0.63486175349E+03  0.00000000000E+00 0. -1.
         25    2    1    2    0    0  0.33657388081E+02 -0.11925859391E+03 -0.31770637007E+03  0.36320459992E+03  0.12499924732E+03 0.  0.
          2    1    1    2  501    0 -0.56570342313E+02  0.71872845272E+02 -0.28588495568E+03  0.30016015292E+03  0.00000000000E+00 0. -1.
          1    1    1    2  502    0  0.22912954232E+02  0.47385748638E+02  0.49915545943E+03  0.50192288783E+03  0.00000000000E+00 0. -1.
         22    1    3    3    0    0  0.40352342517E+02 -0.14325269507E+03 -0.28990860679E+03  0.32587826942E+03  0.00000000000E+00 0. -1.
         22    1    3    3    0    0 -0.66949544361E+01  0.23994101162E+02 -0.27797763277E+02  0.37326330501E+02  0.00000000000E+00 0. -1.
</event>
<event>
 7    1  0.4822463E-005  0.1384238E+04  0.7818608E-02  0.1064526E+00
          2   -1    0    0  502    0  0.00000000000E+00  0.00000000000E+00  0.12747874350E+04  0.12747874350E+04  0.00000000000E+00 0. -1.
          1   -1    0    0  501    0 -0.00000000000E+00 -0.00000000000E+00 -0.27049446462E+04  0.27049446462E+04  0.00000000000E+00 0. -1.
         25    2    1    2    0    0  0.14224178669E+04 -0.82853346439E+02 -0.94257482766E+01  0.14303321582E+04  0.12499589258E+03 0.  0.
          2    1    1    2  501    0 -0.86003301531E+02 -0.54616792993E+01 -0.11866421059E+04  0.11897671559E+04  0.00000000000E+00 0. -1.
          1    1    1    2  502    0 -0.13364145653E+04  0.88315025739E+02 -0.23408935701E+03  0.13596327671E+04  0.00000000000E+00 0. -1.
         22    1    3    3    0    0  0.19428607978E+01 -0.74507135578E+01 -0.14484068652E+01  0.78349041505E+01  0.00000000000E+00 0.  1.
         22    1    3    3    0    0  0.14204750061E+04 -0.75402632881E+02 -0.79773414114E+01  0.14224972541E+04  0.00000000000E+00 0.  1.
</event>
<event>
 7    1  0.4822463E-005  0.6789604E+03  0.7818608E-02  0.1145665E+00
          2   -1    0    0  502    0  0.00000000000E+00  0.00000000000E+00  0.10912806166E+04  0.10912806166E+04  0.00000000000E+00 0. -1.
          1   -1    0    0  501    0 -0.00000000000E+00 -0.00000000000E+00 -0.11983280472E+04  0.11983280472E+04  0.00000000000E+00 0. -1.
         25    2    1    2    0    0 -0.62815826233E+03  0.21279317457E+03 -0.55971893970E+03  0.87679698425E+03  0.12499568975E+03 0.  0.
          2    1    1    2  501    0  0.68181816199E+03 -0.18205755971E+03 -0.21853059050E+03  0.73876693216E+03  0.00000000000E+00 0. -1.
          1    1    1    2  502    0 -0.53659899666E+02 -0.30735614866E+02  0.67120209963E+03  0.67404474733E+03  0.00000000000E+00 0. -1.
         22    1    3    3    0    0 -0.26218583432E+03  0.15372648046E+03 -0.24006578964E+03  0.38730456474E+03  0.00000000000E+00 0. -1.
         22    1    3    3    0    0 -0.36597242801E+03  0.59066694114E+02 -0.31965315006E+03  0.48949241951E+03  0.00000000000E+00 0. -1.
</event>
<event>
 7    1  0.4822463E-005  0.8760354E+03  0.7818608E-02  0.1064901E+00
          2   -1    0    0  502    0  0.00000000000E+00  0.00000000000E+00  0.17396924341E+04  0.17396924341E+04  0.00000000000E+00 0. -1.
          1   -1    0    0  501    0 -0.00000000000E+00 -0.00000000000E+00 -0.76500232874E+03  0.76500232874E+03  0.00000000000E+00 0. -1.
         25    2    1    2    0    0 -0.91385309013E+03 -0.13523743571E+02 -0.18648249573E+03  0.94112226232E+03  0.12500011780E+03 0.  0.
          2    1    1    2  501    0  0.52964762037E+02  0.12468086824E+03  0.31786592870E+02  0.13914371135E+03  0.00000000000E+00 0. -1.
          1    1    1    2  502    0  0.86088832809E+03 -0.11115712467E+03  0.11293860082E+04  0.14244287892E+04  0.00000000000E+00 0. -1.
         22    1    3    3    0    0 -0.76153592825E+03  0.33926321054E+02 -0.16732348330E+03  0.78043905165E+03  0.00000000000E+00 0. -1.
         22    1    3    3    0    0 -0.15231716188E+03 -0.47450064625E+02 -0.19159012434E+02  0.16068321068E+03  0.00000000000E+00 0. -1.
</event>
<event>
 7    1  0.4822463E-005  0.3084531E+03  0.7818608E-02  0.1233494E+00
          2   -1    0    0  502    0  0.00000000000E+00  0.00000000000E+00  0.20899961407E+04  0.20899961407E+04  0.00000000000E+00 0. -1.
          1   -1    0    0  501    0 -0.00000000000E+00 -0.00000000000E+00 -0.22840680173E+03  0.22840680173E+03  0.00000000000E+00 0. -1.
         25    2    1    2    0    0 -0.14771717725E+03 -0.24986357280E+03  0.43162347007E+03  0.53495443608E+03  0.12500103717E+03 0.  0.
          2    1    1    2  501    0  0.11764725465E+03  0.29164912852E+03 -0.36037132425E+02  0.31654188602E+03  0.00000000000E+00 0. -1.
          1    1    1    2  502    0  0.30069922597E+02 -0.41785555713E+02  0.14660030013E+04  0.14669066204E+04  0.00000000000E+00 0. -1.
         22    1    3    3    0    0  0.83234684710E+01  0.75819420576E+01  0.36615844943E+02  0.38307780849E+02  0.00000000000E+00 0.  1.
         22    1    3    3    0    0 -0.15604064572E+03 -0.25744551486E+03  0.39500762513E+03  0.49664665523E+03  0.00000000000E+00 0.  1.
</event>
<event>
 7    1  0.4822463E-005  0.3390441E+03  0.7818608E-02  0.1127004E+00
          2   -1    0    0  502    0  0.00000000000E+00  0.00000000000E+00  0.19092061246E+04  0.19092061246E+04  0.00000000000E+00 0. -1.
          1   -1    0    0  501    0 -0.00000000000E+00 -0.00000000000E+00 -0.35608209532E+03  0.35608209532E+03  0.00000000000E+00 0. -1.
         25    2    1    2    0    0  0.48912383614E+02  0.25361637693E+03  0.41629476760E+03  0.50560833025E+03  0.12499904869E+03 0.  0.
          2    1    1    2  501    0  0.11934920598E+03  0.99408574569E+02 -0.26344206602E+03  0.30582351090E+03  0.00000000000E+00 0. -1.
          1    1    1    2  502    0 -0.16826158959E+03 -0.35302495149E+03  0.14002713277E+04  0.14538563788E+04  0.00000000000E+00 0. -1.
         22    1    3    3    0    0  0.42606708695E+02  0.43418486326E+02  0.35037864484E+02  0.70200772989E+02  0.00000000000E+00 0.  1.
         22    1    3    3    0    0  0.63056749195E+01  0.21019789060E+03  0.38125690312E+03  0.43540755727E+03  0.00000000000E+00 0.  1.
</event>
<event>
 7    1  0.4822463E-005  0.8483827E+02  0.7818608E-02  0.1331464E+00
          2   -1    0    0  502    0  0.00000000000E+00  0.00000000000E+00  0.19558880974E+04  0.19558880974E+04  0.00000000000E+00 0. -1.
          1   -1    0    0  501    0 -0.00000000000E+00 -0.00000000000E+00 -0.15926276927E+03  0.15926276927E+03  0.00000000000E+00 0. -1.
         25    2    1    2    0    0 -0.49756734703E+02 -0.17637356509E+02  0.77349062972E+03  0.78530296695E+03  0.12500474649E+03 0.  0.
          2    1    1    2  501    0  0.46984030949E+02 -0.70640160596E+02 -0.13981926200E+03  0.16354497082E+03  0.00000000000E+00 0. -1.
          1    1    1    2  502    0  0.27727037541E+01  0.88277517106E+02  0.11629539604E+04  0.11663029289E+04  0.00000000000E+00 0. -1.
         22    1    3    3    0    0 -0.24583235427E+02 -0.56865112677E-01  0.73785275639E+03  0.73826216807E+03  0.00000000000E+00 0. -1.
         22    1    3    3    0    0 -0.25173499276E+02 -0.17580491397E+02  0.35637873337E+02  0.47040798883E+02  0.00000000000E+00 0. -1.
</event>
<event>
 7    1  0.4822463E-005  0.1095530E+03  0.7818608E-02  0.1356591E+00
          2   -1    0    0  502    0  0.00000000000E+00  0.00000000000E+00  0.22046499945E+04  0.22046499945E+04  0.00000000000E+00 0. -1.
          1   -1    0    0  501    0 -0.00000000000E+00 -0.00000000000E+00 -0.15514407433E+04  0.15514407433E+04  0.00000000000E+00 0. -1.
         25    2    1    2    0    0 -0.52332702912E+02 -0.49024617472E+02  0.56852686804E+01  0.14422026139E+03  0.12500014641E+03 0.  0.
          2    1    1    2  501    0  0.98368255610E+02  0.50710825564E+02 -0.14798576787E+04  0.14839901114E+04  0.00000000000E+00 0. -1.
          1    1    1    2  502    0 -0.46035552698E+02 -0.16862080923E+01  0.21273816612E+04  0.21278803650E+04  0.00000000000E+00 0. -1.
         22    1    3    3    0    0 -0.85953680107E+02 -0.46485480800E+02  0.30487025441E+02  0.10236402576E+03  0.00000000000E+00 0.  1.
         22    1    3    3    0    0  0.33620977195E+02 -0.25391366717E+01 -0.24801756760E+02  0.41856235629E+02  0.00000000000E+00 0.  1.
</event>
<event>
 7    1  0.4822463E-005  0.3964298E+03  0.7818608E-02  0.1222424E+00
          2   -1    0    0  502    0  0.00000000000E+00  0.00000000000E+00  0.35295163731E+03  0.35295163731E+03  0.00000000000E+00 0. -1.
          1   -1    0    0  501    0 -0.00000000000E+00 -0.00000000000E+00 -0.54682746861E+03  0.54682746861E+03  0.00000000000E+00 0. -1.
         25    2    1    2    0    0 -0.40788564598E+03  0.11209879043E+03 -0.13028042806E+03  0.45992944075E+03  0.12500104606E+03 0.  0.
          2    1    1    2  501    0  0.41853683253E+02 -0.16321264168E+02 -0.40999872068E+02  0.60820259581E+02  0.00000000000E+00 0. -1.
          1    1    1    2  502    0  0.36603196273E+03 -0.95777526259E+02 -0.22595531165E+02  0.37902940560E+03  0.00000000000E+00 0. -1.
         22    1    3    3    0    0 -0.39052482887E+03  0.12822404397E+03 -0.10290150656E+03  0.42372133233E+03  0.00000000000E+00 0.  1.
         22    1    3    3    0    0 -0.17360817113E+02 -0.16125253547E+02 -0.27378921501E+02  0.36208108420E+02  0.00000000000E+00 0.  1.
</event>
<event>
 7    1  0.4822463E-005  0.4259901E+03  0.7818608E-02  0.1265506E+00
          2   -1    0    0  502    0  0.00000000000E+00  0.00000000000E+00  0.12099771783E+04  0.12099771783E+04  0.00000000000E+00 0. -1.
          1   -1    0    0  501    0 -0.00000000000E+00 -0.00000000000E+00 -0.10990843716E+04  0.10990843716E+04  0.00000000000E+00 0. -1.
         25    2    1    2    0    0  0.42595159303E+03  0.61076946744E+02 -0.74020341857E+03  0.86526951592E+03  0.12500032515E+03 0.  0.
          2    1    1    2  501    0 -0.40826108829E+03 -0.81561332304E+02 -0.14985346826E+03  0.44247647292E+03  0.00000000000E+00 0. -1.
          1    1    1    2  502    0 -0.17690504739E+02  0.20484385560E+02  0.10009496934E+04  0.10013155611E+04  0.00000000000E+00 0. -1.
         22    1    3    3    0    0  0.13124506848E+03  0.67100724398E+02 -0.18377636253E+03  0.23558761988E+03  0.00000000000E+00 0.  1.
         22    1    3    3    0    0  0.29470652455E+03 -0.60237776543E+01 -0.55642705604E+03  0.62968189604E+03  0.00000000000E+00 0.  1.
</event>
<event>
 7    1  0.4822463E-005  0.1303917E+03  0.7818608E-02  0.1296729E+00
          2   -1    0    0  502    0  0.00000000000E+00  0.00000000000E+00  0.25653996774E+04  0.25653996774E+04  0.00000000000E+00 0. -1.
          1   -1    0    0  501    0 -0.00000000000E+00 -0.00000000000E+00 -0.15590529943E+03  0.15590529943E+03  0.00000000000E+00 0. -1.
         25    2    1    2    0    0  0.43734413008E+02 -0.14169941953E+03  0.69811587175E+02  0.20613576677E+03  0.12500748882E+03 0.  0.
          2    1    1    2  501    0  0.45868699545E+02  0.47077968272E+02 -0.73424045112E+02  0.98546248509E+02  0.00000000000E+00 0. -1.
          1    1    1    2  502    0 -0.89603112554E+02  0.94621451257E+02  0.24131068359E+04  0.24166229615E+04  0.00000000000E+00 0. -1.
         22    1    3    3    0    0 -0.39984928271E+02 -0.38982921721E+02 -0.10765682764E+01  0.55853573511E+02  0.00000000000E+00 0. -1.
         22    1    3    3    0    0  0.83719341279E+02 -0.10271649781E+03  0.70888155451E+02  0.15028219325E+03  0.00000000000E+00 0. -1.
</event>
<event>
 7    1  0.6945094E-005  0.6206461E+02  0.7818608E-02  0.1481104E+00
          2   -1    0    0  502    0  0.00000000000E+00  0.00000000000E+00  0.21373950351E+04  0.21373950351E+04  0.00000000000E+00 0. -1.
          1   -1    0    0  501    0 -0.00000000000E+00 -0.00000000000E+00 -0.67207611795E+03  0.67207611795E+03  0.00000000000E+00 0. -1.
         25    2    1    2    0    0 -0.31627491023E+02  0.11605286737E+02  0.17731944026E+02  0.13066910896E+03  0.12500005332E+03 0.  0.
          2    1    1    2  501    0  0.51873277133E+02 -0.35213895355E+02 -0.61389360483E+03  0.61708687667E+03  0.00000000000E+00 0. -1.
          1    1    1    2  502    0 -0.20245786110E+02  0.23608608618E+02  0.20614805779E+04  0.20617151674E+04  0.00000000000E+00 0. -1.
         22    1    3    3    0    0 -0.47343952874E+02 -0.48098612980E+02  0.13167909854E+02  0.68762782770E+02  0.00000000000E+00 0. -1.
         22    1    3    3    0    0  0.15716461851E+02  0.59703899717E+02  0.45640341729E+01  0.61906326191E+02  0.00000000000E+00 0. -1.
</event>
<event>
 7    1  0.4822463E-005  0.4018574E+03  0.7818608E-02  0.1268231E+00
          2   -1    0    0  502    0  0.00000000000E+00  0.00000000000E+00  0.25542027308E+03  0.25542027308E+03  0.00000000000E+00 0. -1.
          1   -1    0    0  501    0 -0.00000000000E+00 -0.00000000000E+00 -0.77884936983E+03  0.77884936983E+03  0.00000000000E+00 0. -1.
         25    2    1    2    0    0 -0.20643224423E+03  0.35507285011E+03 -0.12299725853E+03  0.44659489612E+03  0.12501070072E+03 0.  0.
          2    1    1    2  501    0  0.22040272712E+03 -0.33087484629E+03 -0.39240596136E+03  0.55860358443E+03  0.00000000000E+00 0. -1.
          1    1    1    2  502    0 -0.13970482890E+02 -0.24198003826E+02 -0.80258768592E+01  0.29071162356E+02  0.00000000000E+00 0. -1.
         22    1    3    3    0    0 -0.20587980878E+03  0.34509838201E+03 -0.89569435666E+02  0.41170629426E+03  0.00000000000E+00 0. -1.
         22    1    3    3    0    0 -0.55243544932E+00  0.99744681066E+01 -0.33427822859E+02  0.34888601864E+02  0.00000000000E+00 0. -1.
</event>
<event>
 7    1  0.4822463E-005  0.3598338E+03  0.7818608E-02  0.1115243E+00
          2   -1    0    0  502    0  0.00000000000E+00  0.00000000000E+00  0.14853767193E+03  0.14853767193E+03  0.00000000000E+00 0. -1.
          1   -1    0    0  501    0 -0.00000000000E+00 -0.00000000000E+00 -0.20620681668E+04  0.20620681668E+04  0.00000000000E+00 0. -1.
         25    2    1    2    0    0 -0.27955754708E+03 -0.28156114243E+03 -0.23328522949E+03  0.47694476359E+03  0.12500084066E+03 0.  0.
          2    1    1    2  501    0  0.12435021860E+03  0.11516828309E+03 -0.41773503419E+03  0.45080957075E+03  0.00000000000E+00 0. -1.
          1    1    1    2  502    0  0.15520732848E+03  0.16639285934E+03 -0.12625102312E+04  0.12828515044E+04  0.00000000000E+00 0. -1.
         22    1    3    3    0    0 -0.75787238845E+02 -0.44730355709E+02 -0.16551197472E+01  0.88018462353E+02  0.00000000000E+00 0.  1.
         22    1    3    3    0    0 -0.20377030823E+03 -0.23683078672E+03 -0.23163010974E+03  0.38892630124E+03  0.00000000000E+00 0.  1.
</event>
<event>
 7    1  0.4822463E-005  0.2843395E+03  0.7818608E-02  0.1163858E+00
          2   -1    0    0  502    0  0.00000000000E+00  0.00000000000E+00  0.18737622956E+04  0.18737622956E+04  0.00000000000E+00 0. -1.
          1   -1    0    0  501    0 -0.00000000000E+00 -0.00000000000E+00 -0.24054976226E+03  0.24054976226E+03  0.00000000000E+00 0. -1.
         25    2    1    2    0    0 -0.15377814279E+03  0.31098553238E+03  0.16522993455E+04  0.16929495038E+04  0.12500070666E+03 0.  0.
          2    1    1    2  501    0  0.39525727984E+02 -0.27683874342E+03  0.49210414423E+02  0.28394301879E+03  0.00000000000E+00 0. -1.
          1    1    1    2  502    0  0.11425241480E+03 -0.34146788962E+02 -0.68297226663E+02  0.13741953520E+03  0.00000000000E+00 0. -1.
         22    1    3    3    0    0  0.21181644213E+02  0.26542497229E+02  0.18922157340E+03  0.19224455792E+03  0.00000000000E+00 0.  1.
         22    1    3    3    0    0 -0.17495978700E+03  0.28444303515E+03  0.14630777721E+04  0.15007049459E+04  0.00000000000E+00 0.  1.
</event>
<event>
 7    1  0.4822463E-005  0.9373695E+03  0.7818608E-02  0.1173826E+00
          2   -1    0    0  502    0  0.00000000000E+00  0.00000000000E+00  0.20658209638E+04  0.20658209638E+04  0.00000000000E+00 0. -1.
          1   -1    0    0  501    0 -0.00000000000E+00 -0.00000000000E+00 -0.65168470069E+03  0.65168470069E+03  0.00000000000E+00 0. -1.
         25    2    1    2    0    0  0.51163735327E+03 -0.79776835502E+03  0.41944746083E+03  0.10439195947E+04  0.12499927321E+03 0.  0.
          2    1    1    2  501    0 -0.52267500224E+03  0.76744757732E+03  0.29659643867E+03  0.97474837231E+03  0.00000000000E+00 0. -1.
          1    1    1    2  502    0  0.11037648967E+02  0.30320777700E+02  0.69809236361E+03  0.69883769746E+03  0.00000000000E+00 0. -1.
         22    1    3    3    0    0  0.35497816379E+03 -0.61720990901E+03  0.26713859092E+03  0.76047392809E+03  0.00000000000E+00 0.  1.
         22    1    3    3    0    0  0.15665918948E+03 -0.18055844601E+03  0.15230886991E+03  0.28344566662E+03  0.00000000000E+00 0.  1.
</event>
<event>
 7    1  0.6913120E-005  0.6084756E+02  0.7818608E-02  0.1394933E+00
          2   -1    0    0  502    0  0.00000000000E+00  0.00000000000E+00  0.32257726505E+03  0.32257726505E+03  0.00000000000E+00 0. -1.
          1   -1    0    0  501    0 -0.00000000000E+00 -0.00000000000E+00 -0.13705123999E+04  0.13705123999E+04  0.00000000000E+00 0. -1.
         25    2    1    2    0    0 -0.30889518725E+02  0.23106588668E+02 -0.27979582057E+03  0.30886141502E+03  0.12498638197E+03 0.  0.
          2    1    1    2  501    0 -0.19427012759E+02 -0.57662960117E+02 -0.10722889496E+04  0.10740139744E+04  0.00000000000E+00 0. -1.
          1    1    1    2  502    0  0.50316531484E+02  0.34556371448E+02  0.30414963525E+03  0.31021427558E+03  0.00000000000E+00 0. -1.
         22    1    3    3    0    0 -0.38804422626E+02 -0.36025870476E+02 -0.21218590096E+03  0.21869271393E+03  0.00000000000E+00 0. -1.
         22    1    3    3    0    0  0.79149039015E+01  0.59132459144E+02 -0.67609919603E+02  0.90168701094E+02  0.00000000000E+00 0. -1.
</event>
<event>
 7    1  0.4822463E-005  0.1937592E+03  0.7818608E-02  0.1200337E+00
          2   -1    0    0  502    0  0.00000000000E+00  0.00000000000E+00  0.33821244467E+04  0.33821244467E+04  0.00000000000E+00 0. -1.
          1   -1    0    0  501    0 -0.00000000000E+00 -0.00000000000E+00 -0.41708948596E+02  0.41708948596E+02  0.00000000000E+00 0. -1.
         25    2    1    2    0    0  0.24862110232E+03 -0.12579280141E+03  0.10393761027E+04  0.10833124812E+04  0.12500787041E+03 0.  0.
          2    1    1    2  501    0 -0.11624831826E+03  0.33169260403E+01  0.19698935751E+03  0.22875637798E+03  0.00000000000E+00 0. -1.
          1    1    1    2  502    0 -0.13237278407E+03  0.12247587536E+03  0.21040500379E+04  0.21117645361E+04  0.00000000000E+00 0. -1.
         22    1    3    3    0    0  0.93830688221E+02 -0.10893688746E+03  0.60573728944E+03  0.62256654851E+03  0.00000000000E+00 0.  1.
         22    1    3    3    0    0  0.15479041410E+03 -0.16855913948E+02  0.43363881326E+03  0.46074593270E+03  0.00000000000E+00 0.  1.
</event>
<event>
 7    1  0.4822463E-005  0.2952150E+03  0.7818608E-02  0.1239756E+00
          2   -1    0    0  502    0  0.00000000000E+00  0.00000000000E+00  0.19341404255E+04  0.19341404255E+04  0.00000000000E+00 0. -1.
          1   -1    0    0  501    0 -0.00000000000E+00 -0.00000000000E+00 -0.15704754276E+03  0.15704754276E+03  0.00000000000E+00 0. -1.
         25    2    1    2    0    0 -0.20259205088E+03 -0.19693374184E+03  0.86213569999E+03  0.91581927906E+03  0.12498219447E+03 0.  0.
          2    1    1    2  501    0 -0.47236384204E+02  0.17738079250E+02 -0.10154414085E+03  0.11338927634E+03  0.00000000000E+00 0. -1.
          1    1    1    2  502    0  0.24982843509E+03  0.17919566259E+03  0.10165013236E+04  0.10619794128E+04  0.00000000000E+00 0. -1.
         22    1    3    3    0    0 -0.10822356034E+03 -0.37325166296E+02  0.22792434681E+03  0.25505884599E+03  0.00000000000E+00 0. -1.
         22    1    3    3    0    0 -0.94368490544E+02 -0.15960857554E+03  0.63421135318E+03  0.66076043306E+03  0.00000000000E+00 0. -1.
</event>
<event>
 7    1  0.4822463E-005  0.6234382E+03  0.7818608E-02  0.1117309E+00
          2   -1    0    0  502    0  0.00000000000E+00  0.00000000000E+00  0.32529922448E+04  0.32529922448E+04  0.00000000000E+00 0. -1.
          1   -1    0    0  501    0 -0.00000000000E+00 -0.00000000000E+00 -0.37379004774E+03  0.37379004774E+03  0.00000000000E+00 0. -1.
         25    2    1    2    0    0  0.54010109197E+03  0.43456339256E+03  0.13993848487E+04  0.15666707447E+04  0.12499894297E+03 0.  0.
          2    1    1    2  501    0 -0.49886584694E+03 -0.34863113245E+03  0.32311398253E+02  0.60947093960E+03  0.00000000000E+00 0. -1.
          1    1    1    2  502    0 -0.41235245031E+02 -0.85932260101E+02  0.14475059501E+04  0.14506406082E+04  0.00000000000E+00 0. -1.
         22    1    3    3    0    0  0.29427708380E+03  0.18555489649E+03  0.80469253962E+03  0.87667537035E+03  0.00000000000E+00 0.  1.
         22    1    3    3    0    0  0.24582400817E+03  0.24900849607E+03  0.59469230910E+03  0.68999537434E+03  0.00000000000E+00 0.  1.
</event>
<event>
 7    1  0.4822463E-005  0.2612025E+03  0.7818608E-02  0.1198467E+00
          2   -1    0    0  502    0  0.00000000000E+00  0.00000000000E+00  0.39585639118E+03  0.39585639118E+03  0.00000000000E+00 0. -1.
          1   -1    0    0  501    0 -0.00000000000E+00 -0.00000000000E+00 -0.41093806255E+03  0.41093806255E+03  0.00000000000E+00 0. -1.
         25    2    1    2    0    0 -0.28851769701E+03 -0.16126456537E+02  0.11092214889E+03  0.33381288932E+03  0.12499919147E+03 0.  0.
          2    1    1    2  501    0  0.51345615508E+02  0.71516023300E+02 -0.19992951953E+03  0.21845531946E+03  0.00000000000E+00 0. -1.
          1    1    1    2  502    0  0.23717208151E+03 -0.55389566763E+02  0.73925699275E+02  0.25452624494E+03  0.00000000000E+00 0. -1.
         22    1    3    3    0    0 -0.73464803492E+02  0.40485523196E+02 -0.30318499960E+01  0.83936565661E+02  0.00000000000E+00 0.  1.
         22    1    3    3    0    0 -0.21505289352E+03 -0.56611979734E+02  0.11395399889E+03  0.24987632366E+03  0.00000000000E+00 0.  1.
</event>
<event>
 7    1  0.4822463E-005  0.2375910E+03  0.7818608E-02  0.1238624E+00
          2   -1    0    0  502    0  0.00000000000E+00  0.00000000000E+00  0.12217213668E+04  0.12217213668E+04  0.00000000000E+00 0. -1.
          1   -1    0    0  501    0 -0.00000000000E+00 -0.00000000000E+00 -0.73616271488E+03  0.73616271488E+03  0.00000000000E+00 0. -1.
         25    2    1    2    0    0 -0.13587171108E+03  0.18901013097E+03 -0.64006988699E+03  0.69245955514E+03  0.12499929516E+03 0.  0.
          2    1    1    2  501    0  0.17286811315E+03 -0.24052193928E+03  0.25027914582E+03  0.38778065791E+03  0.00000000000E+00 0. -1.
          1    1    1    2  502    0 -0.36996402073E+02  0.51511808311E+02  0.87534939308E+03  0.87764386862E+03  0.00000000000E+00 0. -1.
         22    1    3    3    0    0 -0.92202524410E+02  0.16404147222E+03 -0.59791606530E+03  0.62682894896E+03  0.00000000000E+00 0.  1.
         22    1    3    3    0    0 -0.43669186667E+02  0.24968658746E+02 -0.42153821694E+02  0.65630606177E+02  0.00000000000E+00 0.  1.
</event>
<event>
 7    1  0.4822463E-005  0.1376595E+04  0.7818608E-02  0.1060876E+00
          2   -1    0    0  502    0  0.00000000000E+00  0.00000000000E+00  0.94992615969E+03  0.94992615969E+03  0.00000000000E+00 0. -1.
          1   -1    0    0  501    0 -0.00000000000E+00 -0.00000000000E+00 -0.23083176904E+04  0.23083176904E+04  0.00000000000E+00 0. -1.
         25    2    1    2    0    0 -0.58540492755E+03 -0.12655111867E+04 -0.10466829227E+04  0.17479664293E+04  0.12499601829E+03 0.  0.
          2    1    1    2  501    0  0.49452643591E+03  0.12581939557E+04 -0.37056410227E+03  0.14017582458E+04  0.00000000000E+00 0. -1.
          1    1    1    2  502    0  0.90878491649E+02  0.73172310523E+01  0.58855494265E+02  0.10851917489E+03  0.00000000000E+00 0. -1.
         22    1    3    3    0    0 -0.62876645388E+02 -0.67393913494E+02 -0.55958215239E+02  0.10782733403E+03  0.00000000000E+00 0.  1.
         22    1    3    3    0    0 -0.52252828217E+03 -0.11981172732E+04 -0.99072470744E+03  0.16401390953E+04  0.00000000000E+00 0.  1.
</event>
<event>
 7    1  0.4822463E-005  0.1789780E+03  0.7818608E-02  0.1198884E+00
          2   -1    0    0  502    0  0.00000000000E+00  0.00000000000E+00  0.22392805140E+03  0.22392805140E+03  0.00000000000E+00 0. -1.
          1   -1    0    0  501    0 -0.00000000000E+00 -0.00000000000E+00 -0.18536493338E+04  0.18536493338E+04  0.00000000000E+00 0. -1.
         25    2    1    2    0    0  0.25149820846E+03 -0.10813432064E+03 -0.12017523819E+04  0.12388610843E+04  0.12499447482E+03 0.  0.
          2    1    1    2  501    0 -0.75027168952E+02  0.10358640088E+03 -0.58720867598E+03  0.60097691109E+03  0.00000000000E+00 0. -1.
          1    1    1    2  502    0 -0.17647103951E+03  0.45479197620E+01  0.15923977546E+03  0.23773938977E+03  0.00000000000E+00 0. -1.
         22    1    3    3    0    0  0.10847771327E+03 -0.54237262418E+02 -0.28924906824E+03  0.31364648633E+03  0.00000000000E+00 0.  1.
         22    1    3    3    0    0  0.14302049519E+03 -0.53897058220E+02 -0.91250331366E+03  0.92521459801E+03  0.00000000000E+00 0.  1.
</event>
<event>
 7    1  0.4822463E-005  0.5945401E+02  0.7818608E-02  0.1420553E+00
          2   -1    0    0  502    0  0.00000000000E+00  0.00000000000E+00  0.22821550531E+04  0.22821550531E+04  0.00000000000E+00 0. -1.
          1   -1    0    0  501    0 -0.00000000000E+00 -0.00000000000E+00 -0.11068059161E+04  0.11068059161E+04  0.00000000000E+00 0. -1.
         25    2    1    2    0    0  0.33057077341E+02 -0.10138758487E+03 -0.41246619722E+03  0.44398650573E+03  0.12499376262E+03 0.  0.
          2    1    1    2  501    0 -0.15667432267E+02  0.53760704220E+02 -0.67714013018E+03  0.67945157124E+03  0.00000000000E+00 0. -1.
          1    1    1    2  502    0 -0.17389645073E+02  0.47626880647E+02  0.22649554644E+04  0.22655228922E+04  0.00000000000E+00 0. -1.
         22    1    3    3    0    0  0.51284897772E+02  0.54280657123E+01 -0.89112098611E+02  0.10295907321E+03  0.00000000000E+00 0. -1.
         22    1    3    3    0    0 -0.18227820431E+02 -0.10681565058E+03 -0.32335409861E+03  0.34102743252E+03  0.00000000000E+00 0. -1.
</event>
<event>
 7    1  0.4822463E-005  0.8393384E+03  0.7818608E-02  0.1135297E+00
          2   -1    0    0  502    0  0.00000000000E+00  0.00000000000E+00  0.20128596480E+04  0.20128596480E+04  0.00000000000E+00 0. -1.
          1   -1    0    0  501    0 -0.00000000000E+00 -0.00000000000E+00 -0.15973968291E+04  0.15973968291E+04  0.00000000000E+00 0. -1.
         25    2    1    2    0    0  0.26025835867E+03  0.78182133613E+03 -0.89072355736E+03  0.12198331302E+04  0.12500158026E+03 0.  0.
          2    1    1    2  501    0 -0.30412862814E+03 -0.81771083660E+03 -0.19022920156E+03  0.89293470303E+03  0.00000000000E+00 0. -1.
          1    1    1    2  502    0  0.43870269461E+02  0.35889500474E+02  0.14964155778E+04  0.14974886438E+04  0.00000000000E+00 0. -1.
         22    1    3    3    0    0  0.25032984280E+03  0.58643463661E+03 -0.67132077060E+03  0.92587374423E+03  0.00000000000E+00 0. -1.
         22    1    3    3    0    0  0.99285158735E+01  0.19538669952E+03 -0.21940278676E+03  0.29395938600E+03  0.00000000000E+00 0. -1.
</event>
<event>
 7    1  0.4822463E-005  0.1450583E+03  0.7818608E-02  0.1395594E+00
          2   -1    0    0  502    0  0.00000000000E+00  0.00000000000E+00  0.11164538464E+03  0.11164538464E+03  0.00000000000E+00 0. -1.
          1   -1    0    0  501    0 -0.00000000000E+00 -0.00000000000E+00 -0.12264129570E+04  0.12264129570E+04  0.00000000000E+00 0. -1.
         25    2    1    2    0    0  0.61088989928E+02 -0.15066455664E+03 -0.19300198525E+03  0.28161270257E+03  0.12499709846E+03 0.  0.
          2    1    1    2  501    0 -0.67438991885E+02  0.12621224680E+03 -0.98134907333E+03  0.99172755966E+03  0.00000000000E+00 0. -1.
          1    1    1    2  502    0  0.63500019563E+01  0.24452309841E+02  0.59583486184E+02  0.64718079447E+02  0.00000000000E+00 0. -1.
         22    1    3    3    0    0  0.99807637132E+02 -0.10807145968E+03 -0.13059511376E+03  0.19671321401E+03  0.00000000000E+00 0. -1.
         22    1    3    3    0    0 -0.38718647204E+02 -0.42593096958E+02 -0.62406871487E+02  0.84899488564E+02  0.00000000000E+00 0. -1.
</event>
<event>
 7    1  0.4822463E-005  0.2661953E+03  0.7818608E-02  0.1320723E+00
          2   -1    0    0  502    0  0.00000000000E+00  0.00000000000E+00  0.10174338070E+04  0.10174338070E+04  0.00000000000E+00 0. -1.
          1   -1    0    0  501    0 -0.00000000000E+00 -0.00000000000E+00 -0.52722277123E+04  0.52722277123E+04  0.00000000000E+00 0. -1.
         25    2    1    2    0    0 -0.19919884550E+03  0.15384235765E+03  0.38366301024E+03  0.47557332292E+03  0.12500011598E+03 0.  0.
          2    1    1    2  501    0  0.19664197143E+03 -0.17960083930E+03 -0.52225930547E+04  0.52293788103E+04  0.00000000000E+00 0. -1.
          1    1    1    2  502    0  0.25568740685E+01  0.25758481655E+02  0.58413613925E+03  0.58470938607E+03  0.00000000000E+00 0. -1.
         22    1    3    3    0    0 -0.20600665580E+03  0.14505513764E+03  0.38882362745E+03  0.46331797769E+03  0.00000000000E+00 0.  1.
         22    1    3    3    0    0  0.68078102984E+01  0.87872200075E+01 -0.51606172170E+01  0.12255345225E+02  0.00000000000E+00 0.  1.
</event>
<event>
 7    1  0.4822463E-005  0.4196527E+03  0.7818608E-02  0.1172949E+00
          2   -1    0    0  502    0  0.00000000000E+00  0.00000000000E+00  0.23718093530E+04  0.23718093530E+04  0.00000000000E+00 0. -1.
          1   -1    0    0  501    0 -0.00000000000E+00 -0.00000000000E+00 -0.69297354147E+03  0.69297354147E+03  0.00000000000E+00 0. -1.
         25    2    1    2    0    0  0.35408242899E+03 -0.24009157281E+03  0.29806807041E+03  0.53617151495E+03  0.12496795188E+03 0.  0.
          2    1    1    2  501    0 -0.52259003002E+02 -0.50679208999E+02 -0.54902703842E+03  0.55383217181E+03  0.00000000000E+00 0. -1.
          1    1    1    2  502    0 -0.30182342599E+03  0.29077078181E+03  0.19297947795E+04  0.19747792077E+04  0.00000000000E+00 0. -1.
         22    1    3    3    0    0  0.14634416943E+03 -0.83722294474E+02  0.19156401318E+03  0.25519171159E+03  0.00000000000E+00 0.  1.
         22    1    3    3    0    0  0.20773825956E+03 -0.15636927833E+03  0.10650405723E+03  0.28097980336E+03  0.00000000000E+00 0.  1.
</event>
<event>
 7    1  0.4822463E-005  0.2447938E+03  0.7818608E-02  0.1175686E+00
          2   -1    0    0  502    0  0.00000000000E+00  0.00000000000E+00  0.16045903014E+04  0.16045903014E+04  0.00000000000E+00 0. -1.
          1   -1    0    0  501    0 -0.00000000000E+00 -0.00000000000E+00 -0.76756365040E+03  0.76756365040E+03  0.00000000000E+00 0. -1.
         25    2    1    2    0    0  0.12449089926E+03  0.25045335514E+03 -0.17223197881E+01  0.30635402208E+03  0.12499981344E+03 0.  0.
          2    1    1    2  501    0  0.67908453618E+02 -0.10012080026E+03 -0.59715400071E+03  0.60928534635E+03  0.00000000000E+00 0. -1.
          1    1    1    2  502    0 -0.19239935288E+03 -0.15033255487E+03  0.14359029715E+04  0.14565145834E+04  0.00000000000E+00 0. -1.
         22    1    3    3    0    0  0.13950725494E+03  0.25426117229E+03 -0.66571635768E+01  0.29009539076E+03  0.00000000000E+00 0. -1.
         22    1    3    3    0    0 -0.15016355675E+02 -0.38078171502E+01  0.49348437888E+01  0.16258631320E+02  0.00000000000E+00 0. -1.
</event>
<event>
 7    1  0.4822463E-005  0.3046938E+02  0.7818608E-02  0.1637468E+00
          2   -1    0    0  502    0  0.00000000000E+00  0.00000000000E+00  0.78023663490E+02  0.78023663490E+02  0.00000000000E+00 0. -1.
          1   -1    0    0  501    0 -0.00000000000E+00 -0.00000000000E+00 -0.62989028268E+03  0.62989028268E+03  0.00000000000E+00 0. -1.
         25    2    1    2    0    0  0.28472067742E+02 -0.32764504810E+02 -0.57746696260E+03  0.59243336707E+03  0.12500012043E+03 0.  0.
          2    1    1    2  501    0  0.48922512728E+00  0.23425690376E+02 -0.38189495266E+02  0.44804462495E+02  0.00000000000E+00 0. -1.
          1    1    1    2  502    0 -0.28961292870E+02  0.93388144341E+01  0.63789838677E+02  0.70676116603E+02  0.00000000000E+00 0. -1.
         22    1    3    3    0    0  0.77665589124E+02 -0.20359741421E+02 -0.39295260051E+03  0.40107132664E+03  0.00000000000E+00 0.  1.
         22    1    3    3    0    0 -0.49193521381E+02 -0.12404763389E+02 -0.18451436209E+03  0.19136204043E+03  0.00000000000E+00 0.  1.
</event>
<event>
 7    1  0.4822463E-005  0.6901401E+03  0.7818608E-02  0.1136050E+00
          2   -1    0    0  502    0  0.00000000000E+00  0.00000000000E+00  0.78573411758E+03  0.78573411758E+03  0.00000000000E+00 0. -1.
          1   -1    0    0  501    0 -0.00000000000E+00 -0.00000000000E+00 -0.16183987778E+04  0.16183987778E+04  0.00000000000E+00 0. -1.
         25    2    1    2    0    0  0.59418330626E+03 -0.39275674273E+03  0.12380269058E+03  0.73366478738E+03  0.12500101458E+03 0.  0.
          2    1    1    2  501    0 -0.66151449226E+02 -0.17017731131E+02 -0.99843725411E+03  0.10007709867E+04  0.00000000000E+00 0. -1.
          1    1    1    2  502    0 -0.52803185704E+03  0.40977447386E+03  0.41969903331E+02  0.66969712129E+03  0.00000000000E+00 0. -1.
         22    1    3    3    0    0  0.40401925112E+03 -0.32634846288E+03  0.62443932224E+02  0.52310048668E+03  0.00000000000E+00 0. -1.
         22    1    3    3    0    0  0.19016405514E+03 -0.66408279855E+02  0.61358758353E+02  0.21056430070E+03  0.00000000000E+00 0. -1.
</event>
<event>
 7    1  0.4822463E-005  0.1850207E+03  0.7818608E-02  0.1175388E+00
          2   -1    0    0  502    0  0.00000000000E+00  0.00000000000E+00  0.10319692234E+03  0.10319692234E+03  0.00000000000E+00 0. -1.
          1   -1    0    0  501    0 -0.00000000000E+00 -0.00000000000E+00 -0.16710728971E+04  0.16710728971E+04  0.00000000000E+00 0. -1.
         25    2    1    2    0    0 -0.12810319055E+03  0.12339404969E+03 -0.78762935506E+02  0.23122480538E+03  0.12499916674E+03 0.  0.
          2    1    1    2  501    0  0.19051284414E+03  0.24586737585E+02 -0.11714092691E+04  0.11870548964E+04  0.00000000000E+00 0. -1.
          1    1    1    2  502    0 -0.62409653586E+02 -0.14798078728E+03 -0.31770377024E+03  0.35599011769E+03  0.00000000000E+00 0. -1.
         22    1    3    3    0    0 -0.33780269984E+02 -0.45655345197E+01  0.24219592750E+02  0.41815540397E+02  0.00000000000E+00 0.  1.
         22    1    3    3    0    0 -0.94322920568E+02  0.12795958421E+03 -0.10298252826E+03  0.18940926499E+03  0.00000000000E+00 0.  1.
</event>
<event>
 7    1  0.4822463E-005  0.1468436E+03  0.7818608E-02  0.1245705E+00
          2   -1    0    0  502    0  0.00000000000E+00  0.00000000000E+00  0.35316059755E+03  0.35316059755E+03  0.00000000000E+00 0. -1.
          1   -1    0    0  501    0 -0.00000000000E+00 -0.00000000000E+00 -0.96157841745E+03  0.96157841745E+03  0.00000000000E+00 0. -1.
         25    2    1    2    0    0  0.19579674684E+03  0.59998128165E+01 -0.36491562073E+03  0.43262037021E+03  0.12499844257E+03 0.  0.
          2    1    1    2  501    0 -0.69113597239E+02  0.65932896796E+02 -0.54179601356E+03  0.55015157594E+03  0.00000000000E+00 0. -1.
          1    1    1    2  502    0 -0.12668314960E+03 -0.71932709613E+02  0.29829381438E+03  0.33196706885E+03  0.00000000000E+00 0. -1.
         22    1    3    3    0    0  0.20866855886E+03  0.23882116279E+02 -0.33642640428E+03  0.39660515432E+03  0.00000000000E+00 0. -1.
         22    1    3    3    0    0 -0.12871812027E+02 -0.17882303462E+02 -0.28489216443E+02  0.36015215889E+02  0.00000000000E+00 0. -1.
</event>
<event>
 7    1  0.4822463E-005  0.4600094E+03  0.7818608E-02  0.1113644E+00
          2   -1    0    0  502    0  0.00000000000E+00  0.00000000000E+00  0.38429179333E+03  0.38429179333E+03  0.00000000000E+00 0. -1.
          1   -1    0    0  501    0 -0.00000000000E+00 -0.00000000000E+00 -0.41875947004E+04  0.41875947004E+04  0.00000000000E+00 0. -1.
         25    2    1    2    0    0  0.20666847098E+03  0.51865539618E+03 -0.85563993236E+03  0.10293007211E+04  0.12500001491E+03 0.  0.
          2    1    1    2  501    0  0.14911118820E+02 -0.13445991833E+03 -0.30774896520E+04  0.30804617136E+04  0.00000000000E+00 0. -1.
          1    1    1    2  502    0 -0.22157958980E+03 -0.38419547786E+03  0.12982667723E+03  0.46212405904E+03  0.00000000000E+00 0. -1.
         22    1    3    3    0    0  0.43950992107E+02  0.86652052203E+02 -0.24681907376E+03  0.26525444959E+03  0.00000000000E+00 0. -1.
         22    1    3    3    0    0  0.16271747887E+03  0.43200334398E+03 -0.60882085860E+03  0.76404627151E+03  0.00000000000E+00 0. -1.
</event>
<event>
 7    1  0.4822463E-005  0.1025377E+04  0.7818608E-02  0.1112191E+00
          2   -1    0    0  502    0  0.00000000000E+00  0.00000000000E+00  0.21447090108E+04  0.21447090108E+04  0.00000000000E+00 0. -1.
          1   -1    0    0  501    0 -0.00000000000E+00 -0.00000000000E+00 -0.12413119752E+04  0.12413119752E+04  0.00000000000E+00 0. -1.
         25    2    1    2    0    0 -0.44457489908E+03 -0.94508691490E+03  0.10506080110E+04  0.14866870296E+04  0.12500005406E+03 0.  0.
          2    1    1    2  501    0  0.57792202732E+02  0.21948814242E+02 -0.73567494995E+03  0.73826778416E+03  0.00000000000E+00 0. -1.
          1    1    1    2  502    0  0.38678269635E+03  0.92313810066E+03  0.58846397455E+03  0.11610661723E+04  0.00000000000E+00 0. -1.
         22    1    3    3    0    0 -0.25505926719E+03 -0.40346859875E+03  0.50489124025E+03  0.69480738657E+03  0.00000000000E+00 0.  1.
         22    1    3    3    0    0 -0.18951563190E+03 -0.54161831615E+03  0.54571677077E+03  0.79187964302E+03  0.00000000000E+00 0.  1.
</event>
<event>
 7    1  0.4822463E-005  0.1245523E+03  0.7818608E-02  0.1262930E+00
          2   -1    0    0  502    0  0.00000000000E+00  0.00000000000E+00  0.11479776793E+04  0.11479776793E+04  0.00000000000E+00 0. -1.
          1   -1    0    0  501    0 -0.00000000000E+00 -0.00000000000E+00 -0.11918980512E+04  0.11918980512E+04  0.00000000000E+00 0. -1.
         25    2    1    2    0    0  0.79800378792E+02  0.13879222984E+03  0.62455623808E+03  0.65675419421E+03  0.12499677420E+03 0.  0.
          2    1    1    2  501    0  0.13927021233E+02 -0.12374714727E+03 -0.11680195853E+04  0.11746391234E+04  0.00000000000E+00 0. -1.
          1    1    1    2  502    0 -0.93727400025E+02 -0.15045082570E+02  0.49954297540E+03  0.50848241297E+03  0.00000000000E+00 0. -1.
         22    1    3    3    0    0  0.27491734488E+02 -0.18647256604E+02  0.63234785199E+02  0.71429361632E+02  0.00000000000E+00 0.  1.
         22    1    3    3    0    0  0.52308644304E+02  0.15743948645E+03  0.56132145289E+03  0.58532483258E+03  0.00000000000E+00 0.  1.
</event>
<event>
 7    1  0.4822463E-005  0.3649983E+03  0.7818608E-02  0.1170142E+00
          2   -1    0    0  502    0  0.00000000000E+00  0.00000000000E+00  0.37161450739E+03  0.37161450739E+03  0.00000000000E+00 0. -1.
          1   -1    0    0  501    0 -0.00000000000E+00 -0.00000000000E+00 -0.83153290283E+03  0.83153290283E+03  0.00000000000E+00 0. -1.
         25    2    1    2    0    0  0.11816250661E+03 -0.41173452618E+03  0.11783302844E+03  0.46151607891E+03  0.12499908194E+03 0.  0.
          2    1    1    2  501    0 -0.13530413631E+03  0.32703133084E+03 -0.54370492985E+03  0.64874629201E+03  0.00000000000E+00 0. -1.
          1    1    1    2  502    0  0.17141629701E+02  0.84703195336E+02 -0.34046494030E+02  0.92885039294E+02  0.00000000000E+00 0. -1.
         22    1    3    3    0    0  0.13618563349E+03 -0.40230432065E+03  0.10517513585E+03  0.43755811315E+03  0.00000000000E+00 0.  1.
         22    1    3    3    0    0 -0.18023126875E+02 -0.94302055290E+01  0.12657892590E+02  0.23957965763E+02  0.00000000000E+00 0.  1.
</event>
<event>
 7    1  0.4822463E-005  0.8265957E+03  0.7818608E-02  0.1013946E+00
          2   -1    0    0  502    0  0.00000000000E+00  0.00000000000E+00  0.17993973904E+04  0.17993973904E+04  0.00000000000E+00 0. -1.
          1   -1    0    0  501    0 -0.00000000000E+00 -0.00000000000E+00 -0.12619517949E+04  0.12619517949E+04  0.00000000000E+00 0. -1.
         25    2    1    2    0    0 -0.75803015161E+03 -0.52087660143E+03 -0.60123597520E+03  0.11059073397E+04  0.12499680596E+03 0.  0.
          2    1    1    2  501    0  0.45847991259E+03  0.55659257594E+03 -0.55980928369E+02  0.72327933067E+03  0.00000000000E+00 0. -1.
          1    1    1    2  502    0  0.29955023902E+03 -0.35715974502E+02  0.11946624990E+04  0.12321625149E+04  0.00000000000E+00 0. -1.
         22    1    3    3    0    0 -0.12771571527E+03 -0.71653026573E+02 -0.46560588116E+02  0.15366635451E+03  0.00000000000E+00 0. -1.
         22    1    3    3    0    0 -0.63031443635E+03 -0.44922357486E+03 -0.55467538708E+03  0.95224098521E+03  0.00000000000E+00 0. -1.
</event>
<event>
 7    1  0.4822463E-005  0.8937624E+02  0.7818608E-02  0.1401047E+00
          2   -1    0    0  502    0  0.00000000000E+00  0.00000000000E+00  0.91238545567E+03  0.91238545567E+03  0.00000000000E+00 0. -1.
          1   -1    0    0  501    0 -0.00000000000E+00 -0.00000000000E+00 -0.71706315631E+02  0.71706315631E+02  0.00000000000E+00 0. -1.
         25    2    1    2    0    0 -0.82156996091E+02  0.44387505991E+02  0.10193860749E+03  0.18639693239E+03  0.12502925263E+03 0.  0.
          2    1    1    2  501    0  0.90008919524E+02 -0.59148164693E+01  0.41400421762E+02  0.99250116221E+02  0.00000000000E+00 0. -1.
          1    1    1    2  502    0 -0.78519234331E+01 -0.38472689522E+02  0.69734011078E+03  0.69844472268E+03  0.00000000000E+00 0. -1.
         22    1    3    3    0    0 -0.30770261400E+02 -0.75935610018E+01 -0.24697593812E+02  0.40180123138E+02  0.00000000000E+00 0. -1.
         22    1    3    3    0    0 -0.51386734691E+02  0.51981066993E+02  0.12663620131E+03  0.14621680926E+03  0.00000000000E+00 0. -1.
</event>
<event>
 7    1  0.4822463E-005  0.2605887E+03  0.7818608E-02  0.1195266E+00
          2   -1    0    0  502    0  0.00000000000E+00  0.00000000000E+00  0.32699496699E+04  0.32699496699E+04  0.00000000000E+00 0. -1.
          1   -1    0    0  501    0 -0.00000000000E+00 -0.00000000000E+00 -0.98737694699E+03  0.98737694699E+03  0.00000000000E+00 0. -1.
         25    2    1    2    0    0  0.25502821174E+03  0.64972854284E+02  0.42841765816E+03  0.51810052865E+03  0.12500242952E+03 0.  0.
          2    1    1    2  501    0  0.58164852185E+01 -0.91199774831E+02 -0.93415729508E+03  0.93861657900E+03  0.00000000000E+00 0. -1.
          1    1    1    2  502    0 -0.26084469696E+03  0.26226920547E+02  0.27883123598E+04  0.28006095092E+04  0.00000000000E+00 0. -1.
         22    1    3    3    0    0  0.16189649118E+03 -0.21562694950E+02  0.26089577206E+03  0.30780192909E+03  0.00000000000E+00 0.  1.
         22    1    3    3    0    0  0.93131720562E+02  0.86535549234E+02  0.16752188609E+03  0.21029859956E+03  0.00000000000E+00 0.  1.
</event>
<event>
 7    1  0.4822463E-005  0.5663807E+02  0.7818608E-02  0.1467499E+00
          2   -1    0    0  502    0  0.00000000000E+00  0.00000000000E+00  0.32923704103E+03  0.32923704103E+03  0.00000000000E+00 0. -1.
          1   -1    0    0  501    0 -0.00000000000E+00 -0.00000000000E+00 -0.17381904947E+03  0.17381904947E+03  0.00000000000E+00 0. -1.
         25    2    1    2    0    0  0.90264779884E+02 -0.22629761848E+01  0.29630545415E+03  0.33402863183E+03  0.12500141271E+03 0.  0.
          2    1    1    2  501    0 -0.54252224126E+02  0.12887453289E+02 -0.80799769232E+02  0.98173280391E+02  0.00000000000E+00 0. -1.
          1    1    1    2  502    0 -0.36012555758E+02 -0.10624477104E+02 -0.60087693351E+02  0.70854178269E+02  0.00000000000E+00 0. -1.
         22    1    3    3    0    0  0.83311015557E+02  0.19509255885E+02  0.29901154577E+03  0.31101324873E+03  0.00000000000E+00 0. -1.
         22    1    3    3    0    0  0.69537643266E+01 -0.21772232070E+02 -0.27060916278E+01  0.23015383106E+02  0.00000000000E+00 0. -1.
</event>
<event>
 7    1  0.4822463E-005  0.8705868E+03  0.7818608E-02  0.9800504E-01
          2   -1    0    0  502    0  0.00000000000E+00  0.00000000000E+00  0.31023367727E+04  0.31023367727E+04  0.00000000000E+00 0. -1.
          1   -1    0    0  501    0 -0.00000000000E+00 -0.00000000000E+00 -0.24433829056E+04  0.24433829056E+04  0.00000000000E+00 0. -1.
         25    2    1    2    0    0  0.10410307357E+04  0.18343271759E+03  0.11502639937E+04  0.15672026892E+04  0.12499783693E+03 0.  0.
          2    1    1    2  501    0 -0.25847116819E+03 -0.41667029501E+03 -0.21096237894E+04  0.21658564155E+04  0.00000000000E+00 0. -1.
          1    1    1    2  502    0 -0.78255956752E+03  0.23323757743E+03  0.16183136627E+04  0.18126605736E+04  0.00000000000E+00 0. -1.
         22    1    3    3    0    0  0.63673124542E+03  0.99294190254E+02  0.78721595792E+03  0.10173470300E+04  0.00000000000E+00 0. -1.
         22    1    3    3    0    0  0.40429949029E+03  0.84138527333E+02  0.36304803582E+03  0.54985565919E+03  0.00000000000E+00 0. -1.
</event>
<event>
 7    1  0.4822463E-005  0.6979431E+03  0.7818608E-02  0.1091300E+00
          2   -1    0    0  502    0  0.00000000000E+00  0.00000000000E+00  0.15023261296E+04  0.15023261296E+04  0.00000000000E+00 0. -1.
          1   -1    0    0  501    0 -0.00000000000E+00 -0.00000000000E+00 -0.13793048364E+04  0.13793048364E+04  0.00000000000E+00 0. -1.
         25    2    1    2    0    0  0.66776144335E+03 -0.27865724134E+03  0.77731272540E+03  0.10692967449E+04  0.12500100882E+03 0.  0.
          2    1    1    2  501    0 -0.19072499625E+02  0.11745654837E+03 -0.10358607559E+04  0.10426731543E+04  0.00000000000E+00 0. -1.
          1    1    1    2  502    0 -0.64868894372E+03  0.16120069297E+03  0.38156932369E+03  0.76966106690E+03  0.00000000000E+00 0. -1.
         22    1    3    3    0    0  0.20527125313E+03 -0.13373305537E+03  0.20592058391E+03  0.32003766082E+03  0.00000000000E+00 0.  1.
         22    1    3    3    0    0  0.46249019021E+03 -0.14492418596E+03  0.57139214149E+03  0.74925908408E+03  0.00000000000E+00 0.  1.
</event>
<event>
 7    1  0.4822463E-005  0.1913358E+03  0.7818608E-02  0.1270495E+00
          2   -1    0    0  502    0  0.00000000000E+00  0.00000000000E+00  0.12932422690E+04  0.12932422690E+04  0.00000000000E+00 0. -1.
          1   -1    0    0  501    0 -0.00000000000E+00 -0.00000000000E+00 -0.12383559025E+04  0.12383559025E+04  0.00000000000E+00 0. -1.
         25    2    1    2    0    0 -0.14143115438E+03  0.33811505340E+02 -0.99535653584E+03  0.10136608323E+04  0.12501064055E+03 0.  0.
          2    1    1    2  501    0 -0.32109336959E+02  0.47594217317E+02 -0.22303793340E+03  0.23030879006E+03  0.00000000000E+00 0. -1.
          1    1    1    2  502    0  0.17354049134E+03 -0.81405722657E+02  0.12732808358E+04  0.12876285491E+04  0.00000000000E+00 0. -1.
         22    1    3    3    0    0 -0.26418534386E+02  0.52239239972E+02 -0.16298803290E+03  0.17318191597E+03  0.00000000000E+00 0. -1.
         22    1    3    3    0    0 -0.11501262000E+03 -0.18427734632E+02 -0.83236850294E+03  0.84047891637E+03  0.00000000000E+00 0. -1.
</event>
<event>
 7    1  0.4822463E-005  0.3433511E+03  0.7818608E-02  0.1069229E+00
          2   -1    0    0  502    0  0.00000000000E+00  0.00000000000E+00  0.40205867472E+04  0.40205867472E+04  0.00000000000E+00 0. -1.
          1   -1    0    0  501    0 -0.00000000000E+00 -0.00000000000E+00 -0.11325138247E+04  0.11325138247E+04  0.00000000000E+00 0. -1.
         25    2    1    2    0    0  0.88414467622E+01 -0.46152783317E+03  0.25593745918E+03  0.54241258869E+03  0.12498528467E+03 0.  0.
          2    1    1    2  501    0 -0.24676385488E+03  0.23927435450E+03 -0.95181642252E+03  0.10119778253E+04  0.00000000000E+00 0. -1.
          1    1    1    2  502    0  0.23792240812E+03  0.22225347867E+03  0.35839518857E+04  0.35987101579E+04  0.00000000000E+00 0. -1.
         22    1    3    3    0    0  0.12679302845E+02 -0.15995521591E+03  0.24647061936E+02  0.16233888468E+03  0.00000000000E+00 0. -1.
         22    1    3    3    0    0 -0.38378560827E+01 -0.30157261726E+03  0.23129039724E+03  0.38007370401E+03  0.00000000000E+00 0. -1.
</event>
<event>
 7    1  0.4822463E-005  0.3342427E+02  0.7818608E-02  0.1643923E+00
          2   -1    0    0  502    0  0.00000000000E+00  0.00000000000E+00  0.41704099572E+03  0.41704099572E+03  0.00000000000E+00 0. -1.
          1   -1    0    0  501    0 -0.00000000000E+00 -0.00000000000E+00 -0.11503421894E+03  0.11503421894E+03  0.00000000000E+00 0. -1.
         25    2    1    2    0    0 -0.83347300090E+01  0.19263133085E+02  0.36637782823E+02  0.13193796288E+03  0.12499905158E+03 0.  0.
          2    1    1    2  501    0  0.28901934410E+02 -0.18381383221E+02 -0.62687906728E+02  0.71435080400E+02  0.00000000000E+00 0. -1.
          1    1    1    2  502    0 -0.20567204401E+02 -0.88174986333E+00  0.32805690069E+03  0.32870217138E+03  0.00000000000E+00 0. -1.
         22    1    3    3    0    0 -0.57161730427E+02  0.30516737539E+02 -0.74135399769E+01  0.65220359325E+02  0.00000000000E+00 0. -1.
         22    1    3    3    0    0  0.48827000418E+02 -0.11253604455E+02  0.44051322800E+02  0.66717603550E+02  0.00000000000E+00 0. -1.
</event>
<event>
 7    1  0.4822463E-005  0.2654382E+03  0.7818608E-02  0.1201264E+00
          2   -1    0    0  502    0  0.00000000000E+00  0.00000000000E+00  0.13680605129E+04  0.13680605129E+04  0.00000000000E+00 0. -1.
          1   -1    0    0  501    0 -0.00000000000E+00 -0.00000000000E+00 -0.87555838627E+02  0.87555838627E+02  0.00000000000E+00 0. -1.
         25    2    1    2    0    0 -0.13070214174E+03 -0.24367107931E+03  0.34778960340E+03  0.46156444990E+03  0.12500195371E+03 0.  0.
          2    1    1    2  501    0  0.46971559576E+02  0.25089686591E+03  0.62625723652E+03  0.67627929957E+03  0.00000000000E+00 0. -1.
          1    1    1    2  502    0  0.83730582167E+02 -0.72257866015E+01  0.30645783432E+03  0.31777260202E+03  0.00000000000E+00 0. -1.
         22    1    3    3    0    0 -0.13464397948E+03 -0.22564857245E+03  0.25220743569E+03  0.36421816275E+03  0.00000000000E+00 0.  1.
         22    1    3    3    0    0  0.39418377351E+01 -0.18022506859E+02  0.95582167708E+02  0.97346287151E+02  0.00000000000E+00 0.  1.
</event>
<event>
 7    1  0.4822463E-005  0.2926877E+03  0.7818608E-02  0.1133050E+00
          2   -1    0    0  502    0  0.00000000000E+00  0.00000000000E+00  0.28317352590E+04  0.28317352590E+04  0.00000000000E+00 0. -1.
          1   -1    0    0  501    0 -0.00000000000E+00 -0.00000000000E+00 -0.84466385052E+02  0.84466385052E+02  0.00000000000E+00 0. -1.
         25    2    1    2    0    0 -0.30892722891E+03  0.10870398416E+03  0.23783404894E+04  0.24040344843E+04  0.12500291817E+03 0.  0.
          2    1    1    2  501    0  0.12799349998E+03 -0.10735359022E+03  0.22888101583E+03  0.28336133959E+03  0.00000000000E+00 0. -1.
          1    1    1    2  502    0  0.18093372893E+03 -0.13503939379E+01  0.14004736875E+03  0.22880582012E+03  0.00000000000E+00 0. -1.
         22    1    3    3    0    0 -0.38701848716E+02  0.66465861399E+02  0.49633562621E+03  0.50225949237E+03  0.00000000000E+00 0.  1.
         22    1    3    3    0    0 -0.27022538020E+03  0.42238122760E+02  0.18820048631E+04  0.19017749919E+04  0.00000000000E+00 0.  1.
</event>
<event>
 7    1  0.4822463E-005  0.8864463E+02  0.7818608E-02  0.1408505E+00
          2   -1    0    0  502    0  0.00000000000E+00  0.00000000000E+00  0.72888356955E+03  0.72888356955E+03  0.00000000000E+00 0. -1.
          1   -1    0    0  501    0 -0.00000000000E+00 -0.00000000000E+00 -0.58636316769E+03  0.58636316769E+03  0.00000000000E+00 0. -1.
         25    2    1    2    0    0 -0.23918626158E+02  0.48744608223E+02 -0.91364372812E+02  0.16407630683E+03  0.12500179333E+03 0.  0.
          2    1    1    2  501    0 -0.29295259528E+02  0.23145211951E+02 -0.45498709033E+03  0.45651633644E+03  0.00000000000E+00 0. -1.
          1    1    1    2  502    0  0.53213885687E+02 -0.71889820174E+02  0.68887186501E+03  0.69465409397E+03  0.00000000000E+00 0. -1.
         22    1    3    3    0    0 -0.34434791986E+02  0.86988571246E+01  0.23090606255E+02  0.42362732580E+02  0.00000000000E+00 0. -1.
         22    1    3    3    0    0  0.10516165828E+02  0.40045751098E+02 -0.11445497907E+03  0.12171357425E+03  0.00000000000E+00 0. -1.
</event>
<event>
 7    1  0.4822463E-005  0.2558681E+03  0.7818608E-02  0.1118178E+00
          2   -1    0    0  502    0  0.00000000000E+00  0.00000000000E+00  0.29318168898E+03  0.29318168898E+03  0.00000000000E+00 0. -1.
          1   -1    0    0  501    0 -0.00000000000E+00 -0.00000000000E+00 -0.67429875293E+03  0.67429875293E+03  0.00000000000E+00 0. -1.
         25    2    1    2    0    0  0.10588262667E+03  0.32043871629E+03 -0.21830975765E+03  0.42092329943E+03  0.12500068874E+03 0.  0.
          2    1    1    2  501    0  0.99789997010E+02 -0.21812355745E+03 -0.20191300768E+03  0.31353595087E+03  0.00000000000E+00 0. -1.
          1    1    1    2  502    0 -0.20567262368E+03 -0.10231515884E+03  0.39105701375E+02  0.23302119161E+03  0.00000000000E+00 0. -1.
         22    1    3    3    0    0 -0.14121840152E+02  0.33566609456E+02 -0.64341200319E+02  0.73931953160E+02  0.00000000000E+00 0.  1.
         22    1    3    3    0    0  0.12000446682E+03  0.28687210684E+03 -0.15396855733E+03  0.34699134627E+03  0.00000000000E+00 0.  1.
</event>
<event>
 7    1  0.4822463E-005  0.2350989E+03  0.7818608E-02  0.1192624E+00
          2   -1    0    0  502    0  0.00000000000E+00  0.00000000000E+00  0.19092231356E+04  0.19092231356E+04  0.00000000000E+00 0. -1.
          1   -1    0    0  501    0 -0.00000000000E+00 -0.00000000000E+00 -0.18575831730E+03  0.18575831730E+03  0.00000000000E+00 0. -1.
         25    2    1    2    0    0 -0.23772501596E+03  0.12175648220E+03  0.16500366102E+04  0.16761815087E+04  0.12500324443E+03 0.  0.
          2    1    1    2  501    0  0.96334567618E+02 -0.39903032174E+02 -0.12434222736E+03  0.16227627799E+03  0.00000000000E+00 0. -1.
          1    1    1    2  502    0  0.14139044834E+03 -0.81853450024E+02  0.19777043547E+03  0.25652366618E+03  0.00000000000E+00 0. -1.
         22    1    3    3    0    0 -0.76575890772E+02  0.10170265322E+03  0.57307323792E+03  0.58704363785E+03  0.00000000000E+00 0.  1.
         22    1    3    3    0    0 -0.16114912518E+03  0.20053828976E+02  0.10769633722E+04  0.10891378709E+04  0.00000000000E+00 0.  1.
</event>
<event>
 7    1  0.4822463E-005  0.7030922E+02  0.7818608E-02  0.1384718E+00
          2   -1    0    0  502    0  0.00000000000E+00  0.00000000000E+00  0.13961244170E+04  0.13961244170E+04  0.00000000000E+00 0. -1.
          1   -1    0    0  501    0 -0.00000000000E+00 -0.00000000000E+00 -0.46700203277E+03  0.46700203277E+03  0.00000000000E+00 0. -1.
         25    2    1    2    0    0 -0.81501088008E+02 -0.16311120950E+02  0.40458240376E+03  0.43153112637E+03  0.12499484622E+03 0.  0.
          2    1    1    2  501    0  0.39513380199E+02 -0.40916324849E+02 -0.45044900205E+03  0.45402616258E+03  0.00000000000E+00 0. -1.
          1    1    1    2  502    0  0.41987707809E+02  0.57227445799E+02  0.97498898252E+03  0.97756916083E+03  0.00000000000E+00 0. -1.
         22    1    3    3    0    0  0.24190717691E+02 -0.34201592927E+02  0.13749335751E+03  0.14373365348E+03  0.00000000000E+00 0. -1.
         22    1    3    3    0    0 -0.10569180570E+03  0.17890471977E+02  0.26708904624E+03  0.28779747289E+03  0.00000000000E+00 0. -1.
</event>
<event>
 7    1  0.4822463E-005  0.2930415E+03  0.7818608E-02  0.1159673E+00
          2   -1    0    0  502    0  0.00000000000E+00  0.00000000000E+00  0.13811497965E+04  0.13811497965E+04  0.00000000000E+00 0. -1.
          1   -1    0    0  501    0 -0.00000000000E+00 -0.00000000000E+00 -0.18999168623E+03  0.18999168623E+03  0.00000000000E+00 0. -1.
         25    2    1    2    0    0 -0.24757664780E+03  0.15686711919E+02  0.25182383419E+03  0.37494058291E+03  0.12499971109E+03 0.  0.
          2    1    1    2  501    0 -0.39703883109E+02  0.11478962628E+03 -0.68972988298E+02  0.13967938198E+03  0.00000000000E+00 0. -1.
          1    1    1    2  502    0  0.28728053091E+03 -0.13047633820E+03  0.10083072643E+04  0.10565215178E+04  0.00000000000E+00 0. -1.
         22    1    3    3    0    0 -0.10890421453E+03 -0.18303514592E+02  0.18911961335E+03  0.21900085557E+03  0.00000000000E+00 0.  1.
         22    1    3    3    0    0 -0.13867243328E+03  0.33990226511E+02  0.62704220844E+02  0.15593972733E+03  0.00000000000E+00 0.  1.
</event>
<event>
 7    1  0.4822463E-005  0.3698786E+03  0.7818608E-02  0.1091599E+00
          2   -1    0    0  502    0  0.00000000000E+00  0.00000000000E+00  0.76497148848E+03  0.76497148848E+03  0.00000000000E+00 0. -1.
          1   -1    0    0  501    0 -0.00000000000E+00 -0.00000000000E+00 -0.60145980005E+03  0.60145980005E+03  0.00000000000E+00 0. -1.
         25    2    1    2    0    0  0.22091178721E+03 -0.62888522083E+02  0.30452615454E+03  0.40139196085E+03  0.12498937355E+03 0.  0.
          2    1    1    2  501    0 -0.20638320510E+03 -0.30694651154E+03 -0.37535201720E+03  0.52697184470E+03  0.00000000000E+00 0. -1.
          1    1    1    2  502    0 -0.14528582103E+02  0.36983503362E+03  0.23433755108E+03  0.43806748297E+03  0.00000000000E+00 0. -1.
         22    1    3    3    0    0  0.22796117252E+03 -0.41648575947E+02  0.29909487304E+03  0.37836311017E+03  0.00000000000E+00 0. -1.
         22    1    3    3    0    0 -0.70493853141E+01 -0.21239946136E+02  0.54312815000E+01  0.23028850685E+02  0.00000000000E+00 0. -1.
</event>
<event>
 7    1  0.4822463E-005  0.5100025E+03  0.7818608E-02  0.1213009E+00
          2   -1    0    0  502    0  0.00000000000E+00  0.00000000000E+00  0.20485311499E+04  0.20485311499E+04  0.00000000000E+00 0. -1.
          1   -1    0    0  501    0 -0.00000000000E+00 -0.00000000000E+00 -0.26858307338E+03  0.26858307338E+03  0.00000000000E+00 0. -1.
         25    2    1    2    0    0  0.48798145591E+03 -0.52695134687E+02  0.86849007130E+03  0.10053869489E+04  0.12500093798E+03 0.  0.
          2    1    1    2  501    0 -0.51637803070E+03  0.26605694623E+02  0.13511226582E+03  0.53442441744E+03  0.00000000000E+00 0. -1.
          1    1    1    2  502    0  0.28396574795E+02  0.26089440064E+02  0.77634573940E+03  0.77730285695E+03  0.00000000000E+00 0. -1.
         22    1    3    3    0    0  0.37928486340E+03  0.12819591254E+02  0.64350396526E+03  0.74707342533E+03  0.00000000000E+00 0. -1.
         22    1    3    3    0    0  0.10869659251E+03 -0.65514725940E+02  0.22498610604E+03  0.25831352355E+03  0.00000000000E+00 0. -1.
</event>
<event>
 7    1  0.4822463E-005  0.4557416E+03  0.7818608E-02  0.1132315E+00
          2   -1    0    0  502    0  0.00000000000E+00  0.00000000000E+00  0.78265756409E+03  0.78265756409E+03  0.00000000000E+00 0. -1.
          1   -1    0    0  501    0 -0.00000000000E+00 -0.00000000000E+00 -0.24544485883E+04  0.24544485883E+04  0.00000000000E+00 0. -1.
         25    2    1    2    0    0  0.41313547385E+03  0.34454013007E+02  0.13616947380E+03  0.45391067804E+03  0.12499911712E+03 0.  0.
          2    1    1    2  501    0  0.75639149597E+02 -0.77443087428E+02 -0.21704554936E+04  0.21731534144E+04  0.00000000000E+00 0. -1.
          1    1    1    2  502    0 -0.48877462344E+03  0.42989074421E+02  0.36249499562E+03  0.61004205994E+03  0.00000000000E+00 0. -1.
         22    1    3    3    0    0  0.33932411764E+03  0.74020552688E+02  0.12642321743E+03  0.36959806404E+03  0.00000000000E+00 0. -1.
         22    1    3    3    0    0  0.73811356206E+02 -0.39566539680E+02  0.97462563685E+01  0.84312614006E+02  0.00000000000E+00 0. -1.
</event>
<event>
 7    1  0.4822463E-005  0.1855295E+03  0.7818608E-02  0.1366424E+00
          2   -1    0    0  502    0  0.00000000000E+00  0.00000000000E+00  0.82316225978E+02  0.82316225978E+02  0.00000000000E+00 0. -1.
          1   -1    0    0  501    0 -0.00000000000E+00 -0.00000000000E+00 -0.10847588506E+04  0.10847588506E+04  0.00000000000E+00 0. -1.
         25    2    1    2    0    0 -0.16364548783E+03  0.50641128054E+02 -0.90740397418E+03  0.93185463180E+03  0.12500685140E+03 0.  0.
          2    1    1    2  501    0 -0.20765538707E+02 -0.14008856594E+02 -0.11708524394E+01  0.25076414343E+02  0.00000000000E+00 0. -1.
          1    1    1    2  502    0  0.18441102654E+03 -0.36632271460E+02 -0.93867797970E+02  0.21014403041E+03  0.00000000000E+00 0. -1.
         22    1    3    3    0    0 -0.11147902702E+03 -0.29376987322E+02 -0.44527651241E+03  0.45995842568E+03  0.00000000000E+00 0. -1.
         22    1    3    3    0    0 -0.52166460808E+02  0.80018115377E+02 -0.46212746177E+03  0.47189620612E+03  0.00000000000E+00 0. -1.
</event>
<event>
 7    1  0.4822463E-005  0.3695023E+03  0.7818608E-02  0.1173789E+00
          2   -1    0    0  502    0  0.00000000000E+00  0.00000000000E+00  0.23817867158E+04  0.23817867158E+04  0.00000000000E+00 0. -1.
          1   -1    0    0  501    0 -0.00000000000E+00 -0.00000000000E+00 -0.27926310305E+03  0.27926310305E+03  0.00000000000E+00 0. -1.
         25    2    1    2    0    0  0.27043549903E+03 -0.16001039696E+03  0.11738348539E+04  0.12215776009E+04  0.12499953811E+03 0.  0.
          2    1    1    2  501    0 -0.34964462268E+03  0.13922213334E+03 -0.11426581492E+03  0.39330756545E+03  0.00000000000E+00 0. -1.
          1    1    1    2  502    0  0.79209123656E+02  0.20788263620E+02  0.10429545738E+04  0.10461646525E+04  0.00000000000E+00 0. -1.
         22    1    3    3    0    0  0.43182449590E+02 -0.31341473592E+02  0.74417185219E+02  0.91569259992E+02  0.00000000000E+00 0.  1.
         22    1    3    3    0    0  0.22725304944E+03 -0.12866892337E+03  0.10994176687E+04  0.11300083409E+04  0.00000000000E+00 0.  1.
</event>
<event>
 7    1  0.4822463E-005  0.8013106E+02  0.7818608E-02  0.1383705E+00
          2   -1    0    0  502    0  0.00000000000E+00  0.00000000000E+00  0.12372766911E+04  0.12372766911E+04  0.00000000000E+00 0. -1.
          1   -1    0    0  501    0 -0.00000000000E+00 -0.00000000000E+00 -0.66925792081E+02  0.66925792081E+02  0.00000000000E+00 0. -1.
         25    2    1    2    0    0  0.36754358331E+02 -0.52220423523E+02  0.21456830015E+03  0.25640364335E+03  0.12500166961E+03 0.  0.
          2    1    1    2  501    0  0.42017169226E+02  0.27689044826E+02 -0.29990363225E+02  0.58579412762E+02  0.00000000000E+00 0. -1.
          1    1    1    2  502    0 -0.78771527558E+02  0.24531378697E+02  0.98577296207E+03  0.98921942704E+03  0.00000000000E+00 0. -1.
         22    1    3    3    0    0  0.58547904217E+02 -0.93746880224E+01  0.19616666179E+03  0.20493194251E+03  0.00000000000E+00 0.  1.
         22    1    3    3    0    0 -0.21793545885E+02 -0.42845735500E+02  0.18401638359E+02  0.51471700838E+02  0.00000000000E+00 0.  1.
</event>
<event>
 7    1  0.4822463E-005  0.7240698E+03  0.7818608E-02  0.1100069E+00
          2   -1    0    0  502    0  0.00000000000E+00  0.00000000000E+00  0.38094461723E+03  0.38094461723E+03  0.00000000000E+00 0. -1.
          1   -1    0    0  501    0 -0.00000000000E+00 -0.00000000000E+00 -0.27173805779E+04  0.27173805779E+04  0.00000000000E+00 0. -1.
         25    2    1    2    0    0  0.74683433584E+03 -0.24540676167E+02 -0.21333690310E+03  0.78708451670E+03  0.12500252892E+03 0.  0.
          2    1    1    2  501    0 -0.82734549904E+02 -0.60121614511E+02 -0.98906981759E+03  0.99434336039E+03  0.00000000000E+00 0. -1.
          1    1    1    2  502    0 -0.66409978593E+03  0.84662290678E+02 -0.11340292400E+04  0.13168973181E+04  0.00000000000E+00 0. -1.
         22    1    3    3    0    0  0.96208149996E+01 -0.17640631060E+02 -0.22763159480E+01  0.20222105720E+02  0.00000000000E+00 0.  1.
         22    1    3    3    0    0  0.73721352084E+03 -0.69000451073E+01 -0.21106058715E+03  0.76686241098E+03  0.00000000000E+00 0.  1.
</event>
<event>
 7    1  0.4822463E-005  0.3431081E+03  0.7818608E-02  0.1067784E+00
          2   -1    0    0  502    0  0.00000000000E+00  0.00000000000E+00  0.10771884572E+04  0.10771884572E+04  0.00000000000E+00 0. -1.
          1   -1    0    0  501    0 -0.00000000000E+00 -0.00000000000E+00 -0.14904356872E+04  0.14904356872E+04  0.00000000000E+00 0. -1.
         25    2    1    2    0    0 -0.34594443335E+03 -0.38702625301E+03  0.66912732528E+03  0.85605198970E+03  0.12500704035E+03 0.  0.
          2    1    1    2  501    0  0.16816954449E+02  0.34079108023E+03 -0.12801349241E+04  0.13248270809E+04  0.00000000000E+00 0. -1.
          1    1    1    2  502    0  0.32912747890E+03  0.46235172785E+02  0.19776036894E+03  0.38674507378E+03  0.00000000000E+00 0. -1.
         22    1    3    3    0    0 -0.82668234020E+01 -0.29884280102E+02  0.76094139253E+01  0.31926693325E+02  0.00000000000E+00 0.  1.
         22    1    3    3    0    0 -0.33767760994E+03 -0.35714197291E+03  0.66151791136E+03  0.82412529637E+03  0.00000000000E+00 0.  1.
</event>
<event>
 7    1  0.4822463E-005  0.1483324E+03  0.7818608E-02  0.1242602E+00
          2   -1    0    0  502    0  0.00000000000E+00  0.00000000000E+00  0.13183658629E+04  0.13183658629E+04  0.00000000000E+00 0. -1.
          1   -1    0    0  501    0 -0.00000000000E+00 -0.00000000000E+00 -0.84983574137E+03  0.84983574137E+03  0.00000000000E+00 0. -1.
         25    2    1    2    0    0  0.78062906731E+02 -0.15693999405E+03  0.76285821087E+02  0.22840280966E+03  0.12499735125E+03 0.  0.
          2    1    1    2  501    0 -0.12883709708E+03  0.73626905419E+02 -0.76459039579E+03  0.77885710636E+03  0.00000000000E+00 0. -1.
          1    1    1    2  502    0  0.50774190352E+02  0.83313088631E+02  0.11568346962E+04  0.11609416883E+04  0.00000000000E+00 0. -1.
         22    1    3    3    0    0  0.23249700235E+02 -0.11587664872E+02  0.68050942473E+02  0.72840602068E+02  0.00000000000E+00 0. -1.
         22    1    3    3    0    0  0.54813206496E+02 -0.14535232918E+03  0.82348786140E+01  0.15556220759E+03  0.00000000000E+00 0. -1.
</event>
<event>
 7    1  0.4822463E-005  0.1258657E+03  0.7818608E-02  0.1238046E+00
          2   -1    0    0  502    0  0.00000000000E+00  0.00000000000E+00  0.55395522889E+03  0.55395522889E+03  0.00000000000E+00 0. -1.
          1   -1    0    0  501    0 -0.00000000000E+00 -0.00000000000E+00 -0.42194633950E+03  0.42194633950E+03  0.00000000000E+00 0. -1.
         25    2    1    2    0    0  0.66159884299E+01 -0.68466743691E+01  0.30422279514E+03  0.32903943243E+03  0.12499916301E+03 0.  0.
          2    1    1    2  501    0 -0.73522396924E+02  0.10697326197E+03 -0.38283677733E+03  0.40424351535E+03  0.00000000000E+00 0. -1.
          1    1    1    2  502    0  0.66906408494E+02 -0.10012658761E+03  0.21062287157E+03  0.24261862062E+03  0.00000000000E+00 0. -1.
         22    1    3    3    0    0  0.64336436735E+02 -0.12926757769E+01  0.12376932208E+03  0.13949800425E+03  0.00000000000E+00 0.  1.
         22    1    3    3    0    0 -0.57720448305E+02 -0.55539985923E+01  0.18045347306E+03  0.18954142817E+03  0.00000000000E+00 0.  1.
</event>
<event>
 7    1  0.4822463E-005  0.1481106E+03  0.7818608E-02  0.1389526E+00
          2   -1    0    0  502    0  0.00000000000E+00  0.00000000000E+00  0.42884110318E+03  0.42884110318E+03  0.00000000000E+00 0. -1.
          1   -1    0    0  501    0 -0.00000000000E+00 -0.00000000000E+00 -0.85828586526E+02  0.85828586526E+02  0.00000000000E+00 0. -1.
         25    2    1    2    0    0  0.14498284682E+03  0.66425264347E+02  0.17138948854E+03  0.26538705586E+03  0.12499436396E+03 0.  0.
          2    1    1    2  501    0 -0.13491047096E+03 -0.42483377596E+02  0.10034890594E+03  0.17342311112E+03  0.00000000000E+00 0. -1.
          1    1    1    2  502    0 -0.10072375863E+02 -0.23941886751E+02  0.71274122175E+02  0.75859522728E+02  0.00000000000E+00 0. -1.
         22    1    3    3    0    0  0.31819893659E+00  0.50910595672E+02  0.18074754705E+02  0.54024871679E+02  0.00000000000E+00 0. -1.
         22    1    3    3    0    0  0.14466464789E+03  0.15514668675E+02  0.15331473383E+03  0.21136218418E+03  0.00000000000E+00 0. -1.
</event>
<event>
 7    1  0.4822463E-005  0.1969034E+03  0.7818608E-02  0.1282252E+00
          2   -1    0    0  502    0  0.00000000000E+00  0.00000000000E+00  0.20910554723E+04  0.20910554723E+04  0.00000000000E+00 0. -1.
          1   -1    0    0  501    0 -0.00000000000E+00 -0.00000000000E+00 -0.13839320425E+04  0.13839320425E+04  0.00000000000E+00 0. -1.
         25    2    1    2    0    0 -0.93265322516E+01 -0.20409722793E+03 -0.12100798981E+04  0.12335563852E+04  0.12500133263E+03 0.  0.
          2    1    1    2  501    0 -0.26196067739E+02  0.16912112682E+03 -0.11655712834E+03  0.20705978283E+03  0.00000000000E+00 0. -1.
          1    1    1    2  502    0  0.35522599990E+02  0.34976101113E+02  0.20337604562E+04  0.20343713467E+04  0.00000000000E+00 0. -1.
         22    1    3    3    0    0 -0.50845885347E+02 -0.12275387495E+03 -0.48949744824E+03  0.50720959150E+03  0.00000000000E+00 0. -1.
         22    1    3    3    0    0  0.41519353096E+02 -0.81343352984E+02 -0.72058244984E+03  0.72634679374E+03  0.00000000000E+00 0. -1.
</event>
<event>
 7    1  0.4822463E-005  0.2265477E+03  0.7818608E-02  0.1188077E+00
          2   -1    0    0  502    0  0.00000000000E+00  0.00000000000E+00  0.13154209507E+04  0.13154209507E+04  0.00000000000E+00 0. -1.
          1   -1    0    0  501    0 -0.00000000000E+00 -0.00000000000E+00 -0.14213980529E+04  0.14213980529E+04  0.00000000000E+00 0. -1.
         25    2    1    2    0    0 -0.16957514287E+03  0.12841962536E+03 -0.76800792327E+02  0.25840165217E+03  0.12500289151E+03 0.  0.
          2    1    1    2  501    0  0.92239732952E+02 -0.21187516813E+03 -0.12404606269E+04  0.12618010232E+04  0.00000000000E+00 0. -1.
          1    1    1    2  502    0  0.77335409918E+02  0.83455542777E+02  0.12112843170E+04  0.12166163282E+04  0.00000000000E+00 0. -1.
         22    1    3    3    0    0  0.16369121843E+02  0.31766307734E+02 -0.21341061342E+02  0.41623158892E+02  0.00000000000E+00 0.  1.
         22    1    3    3    0    0 -0.18594426471E+03  0.96653317623E+02 -0.55459730985E+02  0.21677849328E+03  0.00000000000E+00 0.  1.
</event>
<event>
 7    1  0.4822463E-005  0.5396824E+03  0.7818608E-02  0.1100324E+00
          2   -1    0    0  502    0  0.00000000000E+00  0.00000000000E+00  0.92127796044E+03  0.92127796044E+03  0.00000000000E+00 0. -1.
          1   -1    0    0  501    0 -0.00000000000E+00 -0.00000000000E+00 -0.18027332444E+04  0.18027332444E+04  0.00000000000E+00 0. -1.
         25    2    1    2    0    0  0.44354588729E+03  0.98397901736E+02 -0.13240301208E+04  0.14053810134E+04  0.12499972309E+03 0.  0.
          2    1    1    2  501    0  0.10202230563E+03 -0.91077801546E+02 -0.33894290556E+03  0.36549419969E+03  0.00000000000E+00 0. -1.
          1    1    1    2  502    0 -0.54556819291E+03 -0.73201001905E+01  0.78151774244E+03  0.95313599173E+03  0.00000000000E+00 0. -1.
         22    1    3    3    0    0  0.34532293250E+03  0.96676344448E+02 -0.87309643747E+03  0.94387055914E+03  0.00000000000E+00 0.  1.
         22    1    3    3    0    0  0.98222954785E+02  0.17215572880E+01 -0.45093368334E+03  0.46151045425E+03  0.00000000000E+00 0.  1.
</event>
<event>
 7    1  0.4822463E-005  0.5584253E+02  0.7818608E-02  0.1501614E+00
          2   -1    0    0  502    0  0.00000000000E+00  0.00000000000E+00  0.94867737109E+03  0.94867737109E+03  0.00000000000E+00 0. -1.
          1   -1    0    0  501    0 -0.00000000000E+00 -0.00000000000E+00 -0.64547965205E+02  0.64547965205E+02  0.00000000000E+00 0. -1.
         25    2    1    2    0    0 -0.60559270132E+02 -0.56431914962E+02  0.18146576407E+03  0.23538670706E+03  0.12500036843E+03 0.  0.
          2    1    1    2  501    0  0.42154511523E+02  0.32776835112E+02 -0.18153056465E+02  0.56399088828E+02  0.00000000000E+00 0. -1.
          1    1    1    2  502    0  0.18404758610E+02  0.23655079850E+02  0.72081669828E+03  0.72143954041E+03  0.00000000000E+00 0. -1.
         22    1    3    3    0    0  0.18033668385E+02 -0.67568857383E+02  0.95638566857E+02  0.11847995254E+03  0.00000000000E+00 0. -1.
         22    1    3    3    0    0 -0.78592938517E+02  0.11136942421E+02  0.85827197216E+02  0.11690675452E+03  0.00000000000E+00 0. -1.
</event>
<event>
 7    1  0.4822463E-005  0.6450305E+02  0.7818608E-02  0.1395586E+00
          2   -1    0    0  502    0  0.00000000000E+00  0.00000000000E+00  0.36635173064E+03  0.36635173064E+03  0.00000000000E+00 0. -1.
          1   -1    0    0  501    0 -0.00000000000E+00 -0.00000000000E+00 -0.34123125864E+03  0.34123125864E+03  0.00000000000E+00 0. -1.
         25    2    1    2    0    0 -0.11152709134E+03  0.22468983359E+02 -0.23337636670E+03  0.28815369787E+03  0.12499951098E+03 0.  0.
          2    1    1    2  501    0  0.48031391003E+02 -0.30351199596E+02 -0.66917309180E+02  0.87784600623E+02  0.00000000000E+00 0. -1.
          1    1    1    2  502    0  0.63495700338E+02  0.78822162379E+01  0.32541414787E+03  0.33164469079E+03  0.00000000000E+00 0. -1.
         22    1    3    3    0    0 -0.94628160146E+02 -0.36939726793E+02 -0.17922625538E+03  0.20601233634E+03  0.00000000000E+00 0.  1.
         22    1    3    3    0    0 -0.16898931196E+02  0.59408710151E+02 -0.54150111321E+02  0.82141361527E+02  0.00000000000E+00 0.  1.
</event>
<event>
 7    1  0.4822463E-005  0.4298956E+03  0.7818608E-02  0.1103275E+00
          2   -1    0    0  502    0  0.00000000000E+00  0.00000000000E+00  0.75072650206E+03  0.75072650206E+03  0.00000000000E+00 0. -1.
          1   -1    0    0  501    0 -0.00000000000E+00 -0.00000000000E+00 -0.72312664865E+03  0.72312664865E+03  0.00000000000E+00 0. -1.
         25    2    1    2    0    0 -0.17937459565E+03 -0.43083618038E+03 -0.80672011636E+02  0.48982439148E+03  0.12499960452E+03 0.  0.
          2    1    1    2  501    0  0.14428375348E+02  0.42065529423E+03 -0.31755554573E+03  0.52725760231E+03  0.00000000000E+00 0. -1.
          1    1    1    2  502    0  0.16494622031E+03  0.10180886156E+02  0.42582741077E+03  0.45677115692E+03  0.00000000000E+00 0. -1.
         22    1    3    3    0    0 -0.32015548635E+02 -0.81116773164E+02  0.33662354941E+02  0.93477699924E+02  0.00000000000E+00 0.  1.
         22    1    3    3    0    0 -0.14735904702E+03 -0.34971940722E+03 -0.11433436658E+03  0.39634669155E+03  0.00000000000E+00 0.  1.
</event>
<event>
 7    1  0.4822463E-005  0.1213294E+04  0.7818608E-02  0.1147261E+00
          2   -1    0    0  502    0  0.00000000000E+00  0.00000000000E+00  0.17413046109E+04  0.17413046109E+04  0.00000000000E+00 0. -1.
          1   -1    0    0  501    0 -0.00000000000E+00 -0.00000000000E+00 -0.24491559181E+04  0.24491559181E+04  0.00000000000E+00 0. -1.
         25    2    1    2    0    0 -0.11740018600E+04  0.27840094875E+03  0.24809231943E+03  0.12381292207E+04  0.12500685042E+03 0.  0.
          2    1    1    2  501    0 -0.38744845699E+01  0.33731034583E+02 -0.15820110109E+04  0.15823753135E+04  0.00000000000E+00 0. -1.
          1    1    1    2  502    0  0.11778763446E+04 -0.31213198334E+03  0.62606738422E+03  0.13699559948E+04  0.00000000000E+00 0. -1.
         22    1    3    3    0    0 -0.50857943791E+03  0.95895254485E+02  0.16467531160E+03  0.54310855522E+03  0.00000000000E+00 0. -1.
         22    1    3    3    0    0 -0.66542242209E+03  0.18250569427E+03  0.83417007826E+02  0.69502066549E+03  0.00000000000E+00 0. -1.
</event>
<event>
 7    1  0.4822463E-005  0.8910437E+03  0.7818608E-02  0.1097572E+00
          2   -1    0    0  502    0  0.00000000000E+00  0.00000000000E+00  0.32806725686E+04  0.32806725686E+04  0.00000000000E+00 0. -1.
          1   -1    0    0  501    0 -0.00000000000E+00 -0.00000000000E+00 -0.80496330375E+03  0.80496330375E+03  0.00000000000E+00 0. -1.
         25    2    1    2    0    0 -0.30557860788E+03 -0.86093395414E+03  0.15532564332E+04  0.18063267077E+04  0.12500027463E+03 0.  0.
          2    1    1    2  501    0  0.83903756226E+02  0.18179334402E+02 -0.55630399621E+03  0.56288938941E+03  0.00000000000E+00 0. -1.
          1    1    1    2  502    0  0.22167485165E+03  0.84275461974E+03  0.14787568279E+04  0.17164197753E+04  0.00000000000E+00 0. -1.
         22    1    3    3    0    0 -0.13272883503E+03 -0.39205828537E+03  0.82634524716E+03  0.92421486153E+03  0.00000000000E+00 0. -1.
         22    1    3    3    0    0 -0.17284977285E+03 -0.46887566878E+03  0.72691118600E+03  0.88211184613E+03  0.00000000000E+00 0. -1.
</event>
<event>
 7    1  0.4822463E-005  0.1806023E+03  0.7818608E-02  0.1328991E+00
          2   -1    0    0  502    0  0.00000000000E+00  0.00000000000E+00  0.14230114662E+03  0.14230114662E+03  0.00000000000E+00 0. -1.
          1   -1    0    0  501    0 -0.00000000000E+00 -0.00000000000E+00 -0.67804389032E+03  0.67804389032E+03  0.00000000000E+00 0. -1.
         25    2    1    2    0    0 -0.17023486332E+03 -0.10294097147E+03 -0.39105417400E+03  0.45620719131E+03  0.12499952840E+03 0.  0.
          2    1    1    2  501    0  0.13582285558E+03  0.94400687093E+02 -0.22330677709E+03  0.27789432257E+03  0.00000000000E+00 0. -1.
          1    1    1    2  502    0  0.34412007741E+02  0.85402843811E+01  0.78618207397E+02  0.86243523052E+02  0.00000000000E+00 0. -1.
         22    1    3    3    0    0 -0.13063296453E+02 -0.16177962706E+02 -0.17077078677E+03  0.17203208365E+03  0.00000000000E+00 0.  1.
         22    1    3    3    0    0 -0.15717156687E+03 -0.86763008768E+02 -0.22028338724E+03  0.28417510766E+03  0.00000000000E+00 0.  1.
</event>
<event>
 7    1  0.4822463E-005  0.1360770E+03  0.7818608E-02  0.1252409E+00
          2   -1    0    0  502    0  0.00000000000E+00  0.00000000000E+00  0.38100442376E+03  0.38100442376E+03  0.00000000000E+00 0. -1.
          1   -1    0    0  501    0 -0.00000000000E+00 -0.00000000000E+00 -0.45322436293E+03  0.45322436293E+03  0.00000000000E+00 0. -1.
         25    2    1    2    0    0  0.15338511267E+03  0.67717374006E+02  0.29169956815E+03  0.35892641727E+03  0.12500759746E+03 0.  0.
          2    1    1    2  501    0 -0.95524939331E+02  0.12886244824E+02 -0.36351858233E+03  0.37608088098E+03  0.00000000000E+00 0. -1.
          1    1    1    2  502    0 -0.57860173340E+02 -0.80603618830E+02 -0.40092498585E+00  0.99221488440E+02  0.00000000000E+00 0. -1.
         22    1    3    3    0    0 -0.99379835001E+01 -0.19142186401E+02  0.50861913000E+02  0.55246004474E+02  0.00000000000E+00 0.  1.
         22    1    3    3    0    0  0.16332309617E+03  0.86859560407E+02  0.24083765515E+03  0.30368041279E+03  0.00000000000E+00 0.  1.
</event>
<event>
 7    1  0.4822463E-005  0.1607490E+03  0.7818608E-02  0.1241931E+00
          2   -1    0    0  502    0  0.00000000000E+00  0.00000000000E+00  0.84662940879E+03  0.84662940879E+03  0.00000000000E+00 0. -1.
          1   -1    0    0  501    0 -0.00000000000E+00 -0.00000000000E+00 -0.17760690910E+03  0.17760690910E+03  0.00000000000E+00 0. -1.
         25    2    1    2    0    0  0.98535053198E+02  0.14476426336E+03 -0.92739212053E+02  0.23429038442E+03  0.12500229647E+03 0.  0.
          2    1    1    2  501    0 -0.15874986744E+02 -0.10756789900E+03  0.29354636447E+03  0.31303727605E+03  0.00000000000E+00 0. -1.
          1    1    1    2  502    0 -0.82660066454E+02 -0.37196364355E+02  0.46821534726E+03  0.47690865742E+03  0.00000000000E+00 0. -1.
         22    1    3    3    0    0  0.82832117780E+02  0.16788182367E+03 -0.80234568803E+02  0.20367388759E+03  0.00000000000E+00 0. -1.
         22    1    3    3    0    0  0.15702935418E+02 -0.23117560309E+02 -0.12504643250E+02  0.30616496831E+02  0.00000000000E+00 0. -1.
</event>
<event>
 7    1  0.4822463E-005  0.3166791E+03  0.7818608E-02  0.1198437E+00
          2   -1    0    0  502    0  0.00000000000E+00  0.00000000000E+00  0.24052422014E+03  0.24052422014E+03  0.00000000000E+00 0. -1.
          1   -1    0    0  501    0 -0.00000000000E+00 -0.00000000000E+00 -0.57642300576E+03  0.57642300576E+03  0.00000000000E+00 0. -1.
         25    2    1    2    0    0  0.93369656913E+02  0.26588197329E+03 -0.13210097604E+03  0.33539107361E+03  0.12500155133E+03 0.  0.
          2    1    1    2  501    0  0.26202192292E+02  0.67749571696E+02 -0.75149380983E+02  0.10451788750E+03  0.00000000000E+00 0. -1.
          1    1    1    2  502    0 -0.11957184921E+03 -0.33363154498E+03 -0.12864842860E+03  0.37703826478E+03  0.00000000000E+00 0. -1.
         22    1    3    3    0    0  0.48863519342E+02  0.23511954615E+03 -0.64210646563E+02  0.24857966859E+03  0.00000000000E+00 0.  1.
         22    1    3    3    0    0  0.44506137571E+02  0.30762427140E+02 -0.67890329479E+02  0.86811405021E+02  0.00000000000E+00 0.  1.
</event>
<event>
 7    1  0.4822463E-005  0.2573466E+03  0.7818608E-02  0.1161567E+00
          2   -1    0    0  502    0  0.00000000000E+00  0.00000000000E+00  0.11361524266E+04  0.11361524266E+04  0.00000000000E+00 0. -1.
          1   -1    0    0  501    0 -0.00000000000E+00 -0.00000000000E+00 -0.39436275472E+03  0.39436275472E+03  0.00000000000E+00 0. -1.
         25    2    1    2    0    0  0.28547469320E+03 -0.19520352695E+03 -0.76566311136E+02  0.37561662851E+03  0.12500093688E+03 0.  0.
          2    1    1    2  501    0 -0.19347663765E+03  0.95997030672E+02 -0.91842546737E+02  0.23469915340E+03  0.00000000000E+00 0. -1.
          1    1    1    2  502    0 -0.91998055546E+02  0.99206496281E+02  0.91019852978E+03  0.92019939945E+03  0.00000000000E+00 0. -1.
         22    1    3    3    0    0  0.99098905102E+02 -0.25648009624E+01 -0.11540883509E+02  0.99801619168E+02  0.00000000000E+00 0. -1.
         22    1    3    3    0    0  0.18637578809E+03 -0.19263872599E+03 -0.65025427628E+02  0.27581500934E+03  0.00000000000E+00 0. -1.
</event>
<event>
 7    1  0.4822463E-005  0.3576049E+03  0.7818608E-02  0.1197053E+00
          2   -1    0    0  502    0  0.00000000000E+00  0.00000000000E+00  0.79624750706E+03  0.79624750706E+03  0.00000000000E+00 0. -1.
          1   -1    0    0  501    0 -0.00000000000E+00 -0.00000000000E+00 -0.63274848316E+03  0.63274848316E+03  0.00000000000E+00 0. -1.
         25    2    1    2    0    0 -0.83086720506E+02  0.35596180118E+03  0.64066006110E+03  0.74811794522E+03  0.12499175588E+03 0.  0.
          2    1    1    2  501    0  0.54732193304E+02 -0.35623631596E+02 -0.31313553408E+03  0.31987266031E+03  0.00000000000E+00 0. -1.
          1    1    1    2  502    0  0.28354527202E+02 -0.32033816958E+03 -0.16402550312E+03  0.36100538470E+03  0.00000000000E+00 0. -1.
         22    1    3    3    0    0 -0.71913510801E+02  0.75342924740E+02  0.20173309065E+03  0.22703380631E+03  0.00000000000E+00 0. -1.
         22    1    3    3    0    0 -0.11173209705E+02  0.28061887644E+03  0.43892697045E+03  0.52108413891E+03  0.00000000000E+00 0. -1.
</event>
<event>
 7    1  0.4822463E-005  0.5693386E+03  0.7818608E-02  0.1117676E+00
          2   -1    0    0  502    0  0.00000000000E+00  0.00000000000E+00  0.21728713968E+04  0.21728713968E+04  0.00000000000E+00 0. -1.
          1   -1    0    0  501    0 -0.00000000000E+00 -0.00000000000E+00 -0.59334908301E+03  0.59334908301E+03  0.00000000000E+00 0. -1.
         25    2    1    2    0    0  0.27457940822E+03  0.47952228636E+03  0.57812918824E+03  0.80943913322E+03  0.12499150996E+03 0.  0.
          2    1    1    2  501    0 -0.19188488801E+03 -0.54240979142E+03 -0.30163074771E+03  0.64962242883E+03  0.00000000000E+00 0. -1.
          1    1    1    2  502    0 -0.82694520213E+02  0.62887505061E+02  0.13030238733E+04  0.13071589178E+04  0.00000000000E+00 0. -1.
         22    1    3    3    0    0  0.15335869410E+03  0.17751135903E+03  0.30366900917E+03  0.38372390957E+03  0.00000000000E+00 0. -1.
         22    1    3    3    0    0  0.12122071412E+03  0.30201092733E+03  0.27446017907E+03  0.42571522366E+03  0.00000000000E+00 0. -1.
</event>
<event>
 7    1  0.4822463E-005  0.2613761E+03  0.7818608E-02  0.1161715E+00
          2   -1    0    0  502    0  0.00000000000E+00  0.00000000000E+00  0.62883314277E+02  0.62883314277E+02  0.00000000000E+00 0. -1.
          1   -1    0    0  501    0 -0.00000000000E+00 -0.00000000000E+00 -0.32954359731E+04  0.32954359731E+04  0.00000000000E+00 0. -1.
         25    2    1    2    0    0  0.85856151101E+02  0.55616587867E+02 -0.14935191571E+04  0.15022280805E+04  0.12500099920E+03 0.  0.
          2    1    1    2  501    0 -0.31899042077E+03  0.62560653607E+02 -0.13415405825E+04  0.13803622200E+04  0.00000000000E+00 0. -1.
          1    1    1    2  502    0  0.23313426967E+03 -0.11817724147E+03 -0.39749291934E+03  0.47572898695E+03  0.00000000000E+00 0. -1.
         22    1    3    3    0    0  0.85441202686E+02  0.12298475170E+02 -0.47446390929E+03  0.48225247830E+03  0.00000000000E+00 0. -1.
         22    1    3    3    0    0  0.41494841445E+00  0.43318112697E+02 -0.10190552478E+04  0.10199756022E+04  0.00000000000E+00 0. -1.
</event>
<event>
 7    1  0.4822463E-005  0.3073509E+03  0.7818608E-02  0.1132571E+00
          2   -1    0    0  502    0  0.00000000000E+00  0.00000000000E+00  0.69279068947E+03  0.69279068947E+03  0.00000000000E+00 0. -1.
          1   -1    0    0  501    0 -0.00000000000E+00 -0.00000000000E+00 -0.69865728561E+03  0.69865728561E+03  0.00000000000E+00 0. -1.
         25    2    1    2    0    0 -0.15097954655E+03 -0.29224375242E+03 -0.17742053993E+03  0.39408798733E+03  0.12500423779E+03 0.  0.
          2    1    1    2  501    0 -0.10597628098E+03  0.11989413068E+03 -0.35343975200E+03  0.38797581496E+03  0.00000000000E+00 0. -1.
          1    1    1    2  502    0  0.25695582754E+03  0.17234962174E+03  0.52499369579E+03  0.60938417278E+03  0.00000000000E+00 0. -1.
         22    1    3    3    0    0 -0.14585920730E+03 -0.16214158273E+03 -0.83438950623E+02  0.23350987064E+03  0.00000000000E+00 0. -1.
         22    1    3    3    0    0 -0.51203392508E+01 -0.13010216969E+03 -0.93981589302E+02  0.16057811669E+03  0.00000000000E+00 0. -1.
</event>
<event>
 7    1  0.4822463E-005  0.1248888E+04  0.7818608E-02  0.1159928E+00
          2   -1    0    0  502    0  0.00000000000E+00  0.00000000000E+00  0.16844699821E+04  0.16844699821E+04  0.00000000000E+00 0. -1.
          1   -1    0    0  501    0 -0.00000000000E+00 -0.00000000000E+00 -0.27609019294E+04  0.27609019294E+04  0.00000000000E+00 0. -1.
         25    2    1    2    0    0  0.11257973570E+03 -0.12403998522E+04  0.12026384652E+04  0.17358657429E+04  0.12499843688E+03 0.  0.
          2    1    1    2  501    0 -0.51944177860E+01 -0.27936960282E+02 -0.60899772750E+03  0.60966030527E+03  0.00000000000E+00 0. -1.
          1    1    1    2  502    0 -0.10738531791E+03  0.12683368125E+04 -0.16700726850E+04  0.20998458633E+04  0.00000000000E+00 0. -1.
         22    1    3    3    0    0  0.10507015041E+03 -0.12396194582E+04  0.11932265320E+04  0.17237997837E+04  0.00000000000E+00 0.  1.
         22    1    3    3    0    0  0.75095852905E+01 -0.78039406570E+00  0.94119331875E+01  0.12065959243E+02  0.00000000000E+00 0.  1.
</event>
<event>
 7    1  0.4822463E-005  0.1013781E+03  0.7818608E-02  0.1450371E+00
          2   -1    0    0  502    0  0.00000000000E+00  0.00000000000E+00  0.97463574863E+02  0.97463574863E+02  0.00000000000E+00 0. -1.
          1   -1    0    0  501    0 -0.00000000000E+00 -0.00000000000E+00 -0.30510274589E+03  0.30510274589E+03  0.00000000000E+00 0. -1.
         25    2    1    2    0    0  0.74455033802E+02  0.92605618014E+02 -0.20030700878E+03  0.26434194182E+03  0.12503764190E+03 0.  0.
          2    1    1    2  501    0 -0.21859902690E+02 -0.93115741686E+01 -0.28867379252E+02  0.37388318283E+02  0.00000000000E+00 0. -1.
          1    1    1    2  502    0 -0.52595131112E+02 -0.83294043845E+02  0.21535217004E+02  0.10083606065E+03  0.00000000000E+00 0. -1.
         22    1    3    3    0    0  0.59061961389E+02  0.66381422325E+02 -0.33773521271E+02  0.95055032755E+02  0.00000000000E+00 0.  1.
         22    1    3    3    0    0  0.15393072413E+02  0.26224195689E+02 -0.16653348751E+03  0.16928690906E+03  0.00000000000E+00 0.  1.
</event>
<event>
 7    1  0.4822463E-005  0.1468360E+03  0.7818608E-02  0.1345735E+00
          2   -1    0    0  502    0  0.00000000000E+00  0.00000000000E+00  0.10801230488E+04  0.10801230488E+04  0.00000000000E+00 0. -1.
          1   -1    0    0  501    0 -0.00000000000E+00 -0.00000000000E+00 -0.75217162332E+02  0.75217162332E+02  0.00000000000E+00 0. -1.
         25    2    1    2    0    0 -0.81046589043E+02  0.11499776081E+03  0.13126601901E+03  0.22945606159E+03  0.12500512737E+03 0.  0.
          2    1    1    2  501    0  0.29246626548E+02  0.23787679397E+02 -0.20480771171E+01  0.37754648395E+02  0.00000000000E+00 0. -1.
          1    1    1    2  502    0  0.51799962494E+02 -0.13878544021E+03  0.87568794458E+03  0.88812950115E+03  0.00000000000E+00 0. -1.
         22    1    3    3    0    0 -0.75517742021E+00  0.10729341192E+03  0.69129327913E+02  0.12763741815E+03  0.00000000000E+00 0.  1.
         22    1    3    3    0    0 -0.80291411622E+02  0.77043488930E+01  0.62136691098E+02  0.10181864344E+03  0.00000000000E+00 0.  1.
</event>
<event>
 7    1  0.4822463E-005  0.2861571E+03  0.7818608E-02  0.1256104E+00
          2   -1    0    0  502    0  0.00000000000E+00  0.00000000000E+00  0.37356298623E+03  0.37356298623E+03  0.00000000000E+00 0. -1.
          1   -1    0    0  501    0 -0.00000000000E+00 -0.00000000000E+00 -0.14495833360E+04  0.14495833360E+04  0.00000000000E+00 0. -1.
         25    2    1    2    0    0  0.29597026738E+03 -0.89838364803E+01 -0.48308026537E+03  0.58023307381E+03  0.12499907462E+03 0.  0.
          2    1    1    2  501    0 -0.27828601613E+03  0.49477642145E+02 -0.89451990173E+03  0.93811353174E+03  0.00000000000E+00 0. -1.
          1    1    1    2  502    0 -0.17684251250E+02 -0.40493805665E+02  0.30157981736E+03  0.30479971666E+03  0.00000000000E+00 0. -1.
         22    1    3    3    0    0  0.15742314038E+03  0.43843504916E+02 -0.32329386980E+03  0.36224746279E+03  0.00000000000E+00 0. -1.
         22    1    3    3    0    0  0.13854712700E+03 -0.52827341396E+02 -0.15978639558E+03  0.21798561102E+03  0.00000000000E+00 0. -1.
</event>
<event>
 7    1  0.4822463E-005  0.1434804E+04  0.7818608E-02  0.1047543E+00
          2   -1    0    0  502    0  0.00000000000E+00  0.00000000000E+00  0.29628597693E+04  0.29628597693E+04  0.00000000000E+00 0. -1.
          1   -1    0    0  501    0 -0.00000000000E+00 -0.00000000000E+00 -0.14162900550E+04  0.14162900550E+04  0.00000000000E+00 0. -1.
         25    2    1    2    0    0  0.10380908345E+04 -0.10918988145E+04  0.96311741399E+03  0.17925110463E+04  0.12500038481E+03 0.  0.
          2    1    1    2  501    0 -0.94209326435E+03  0.10478141394E+04 -0.50218391826E+03  0.14958752880E+04  0.00000000000E+00 0. -1.
          1    1    1    2  502    0 -0.95997570110E+02  0.44084675086E+02  0.10856362186E+04  0.10907634900E+04  0.00000000000E+00 0. -1.
         22    1    3    3    0    0  0.83097041966E+03 -0.80191134384E+03  0.71392576527E+03  0.13576684573E+04  0.00000000000E+00 0. -1.
         22    1    3    3    0    0  0.20712041480E+03 -0.28998747064E+03  0.24919164872E+03  0.43484258893E+03  0.00000000000E+00 0. -1.
</event>
<event>
 7    1  0.4822463E-005  0.6007655E+03  0.7818608E-02  0.1008068E+00
          2   -1    0    0  502    0  0.00000000000E+00  0.00000000000E+00  0.54602149581E+03  0.54602149581E+03  0.00000000000E+00 0. -1.
          1   -1    0    0  501    0 -0.00000000000E+00 -0.00000000000E+00 -0.18547122653E+04  0.18547122653E+04  0.00000000000E+00 0. -1.
         25    2    1    2    0    0  0.41576599301E+03  0.49853783719E+03 -0.88969647217E+03  0.11084168090E+04  0.12500669526E+03 0.  0.
          2    1    1    2  501    0  0.21193623760E+03 -0.40197753563E+03  0.10796756205E+03  0.46707590648E+03  0.00000000000E+00 0. -1.
          1    1    1    2  502    0 -0.62770223061E+03 -0.96560301562E+02 -0.52696185941E+03  0.82524104565E+03  0.00000000000E+00 0. -1.
         22    1    3    3    0    0  0.27398586663E+03  0.24343548202E+03 -0.44499960855E+03  0.57650129282E+03  0.00000000000E+00 0.  1.
         22    1    3    3    0    0  0.14178012638E+03  0.25510235518E+03 -0.44469686362E+03  0.53191551619E+03  0.00000000000E+00 0.  1.
</event>
<event>
 7    1  0.4822463E-005  0.8644460E+02  0.7818608E-02  0.1483018E+00
          2   -1    0    0  502    0  0.00000000000E+00  0.00000000000E+00  0.24875801048E+03  0.24875801048E+03  0.00000000000E+00 0. -1.
          1   -1    0    0  501    0 -0.00000000000E+00 -0.00000000000E+00 -0.13290348278E+04  0.13290348278E+04  0.00000000000E+00 0. -1.
         25    2    1    2    0    0  0.23171907794E+01  0.85515713251E+02 -0.17918917133E+02  0.15252596757E+03  0.12499910642E+03 0.  0.
          2    1    1    2  501    0 -0.24211284541E+02 -0.83069579160E+02 -0.12416325043E+04  0.12446437310E+04  0.00000000000E+00 0. -1.
          1    1    1    2  502    0  0.21894093762E+02 -0.24461340914E+01  0.17927460414E+03  0.18062313972E+03  0.00000000000E+00 0. -1.
         22    1    3    3    0    0 -0.57816671450E+01  0.11050588304E+02  0.49928161557E+02  0.51462262807E+02  0.00000000000E+00 0.  1.
         22    1    3    3    0    0  0.80988579245E+01  0.74465124947E+02 -0.67847078690E+02  0.10106370476E+03  0.00000000000E+00 0.  1.
</event>
<event>
 7    1  0.4822463E-005  0.1415111E+03  0.7818608E-02  0.1330785E+00
          2   -1    0    0  502    0  0.00000000000E+00  0.00000000000E+00  0.52093629643E+03  0.52093629643E+03  0.00000000000E+00 0. -1.
          1   -1    0    0  501    0 -0.00000000000E+00 -0.00000000000E+00 -0.34046032295E+03  0.34046032295E+03  0.00000000000E+00 0. -1.
         25    2    1    2    0    0 -0.14870403085E+03 -0.16240884138E+02  0.46414333432E+03  0.50341907978E+03  0.12500031995E+03 0.  0.
          2    1    1    2  501    0  0.13881981303E+03 -0.27190313722E+02 -0.27947920191E+03  0.31323933015E+03  0.00000000000E+00 0. -1.
          1    1    1    2  502    0  0.98842178196E+01  0.43431197861E+02 -0.41881589155E+01  0.44738209448E+02  0.00000000000E+00 0. -1.
         22    1    3    3    0    0 -0.12360707671E+03 -0.21190818650E+02  0.46087194197E+03  0.47763030380E+03  0.00000000000E+00 0. -1.
         22    1    3    3    0    0 -0.25096954144E+02  0.49499345115E+01  0.32713923446E+01  0.25788775986E+02  0.00000000000E+00 0. -1.
</event>
<event>
 7    1  0.4822463E-005  0.4582560E+03  0.7818608E-02  0.1172009E+00
          2   -1    0    0  502    0  0.00000000000E+00  0.00000000000E+00  0.13577055334E+03  0.13577055334E+03  0.00000000000E+00 0. -1.
          1   -1    0    0  501    0 -0.00000000000E+00 -0.00000000000E+00 -0.24803264913E+04  0.24803264913E+04  0.00000000000E+00 0. -1.
         25    2    1    2    0    0 -0.59104307524E+02  0.50105410925E+03 -0.15648143229E+04  0.16488833328E+04  0.12499536184E+03 0.  0.
          2    1    1    2  501    0  0.32492405137E+02 -0.59029732752E+02 -0.32716522342E+03  0.33403195828E+03  0.00000000000E+00 0. -1.
          1    1    1    2  502    0  0.26611902387E+02 -0.44202437650E+03 -0.45257639165E+03  0.63318175357E+03  0.00000000000E+00 0. -1.
         22    1    3    3    0    0  0.31904272180E+02  0.50522337772E+02 -0.16037421340E+03  0.17114402567E+03  0.00000000000E+00 0. -1.
         22    1    3    3    0    0 -0.91008579704E+02  0.45053177148E+03 -0.14044401095E+04  0.14777393071E+04  0.00000000000E+00 0. -1.
</event>
<event>
 7    1  0.4822463E-005  0.1393806E+03  0.7818608E-02  0.1353395E+00
          2   -1    0    0  502    0  0.00000000000E+00  0.00000000000E+00  0.40520424092E+03  0.40520424092E+03  0.00000000000E+00 0. -1.
          1   -1    0    0  501    0 -0.00000000000E+00 -0.00000000000E+00 -0.13750656455E+03  0.13750656455E+03  0.00000000000E+00 0. -1.
         25    2    1    2    0    0  0.33790160856E+02  0.13574152451E+03  0.22691487663E+03  0.29441808105E+03  0.12499643501E+03 0.  0.
          2    1    1    2  501    0  0.35115557384E+02 -0.12281306821E+02 -0.62820962471E+02  0.73009630826E+02  0.00000000000E+00 0. -1.
          1    1    1    2  502    0 -0.68905718240E+02 -0.12346021769E+03  0.10360376220E+03  0.17528309360E+03  0.00000000000E+00 0. -1.
         22    1    3    3    0    0  0.46388659021E+02  0.14617288727E+03  0.23126571525E+03  0.27749279577E+03  0.00000000000E+00 0. -1.
         22    1    3    3    0    0 -0.12598498165E+02 -0.10431362757E+02 -0.43508386142E+01  0.16925285275E+02  0.00000000000E+00 0. -1.
</event>
<event>
 7    1  0.4822463E-005  0.2996208E+03  0.7818608E-02  0.1233980E+00
          2   -1    0    0  502    0  0.00000000000E+00  0.00000000000E+00  0.20014982973E+04  0.20014982973E+04  0.00000000000E+00 0. -1.
          1   -1    0    0  501    0 -0.00000000000E+00 -0.00000000000E+00 -0.19190801830E+04  0.19190801830E+04  0.00000000000E+00 0. -1.
         25    2    1    2    0    0  0.29111325936E+03 -0.39477891391E+02 -0.98285920185E+03  0.10334130113E+04  0.12499923048E+03 0.  0.
          2    1    1    2  501    0 -0.29370019527E+03  0.92149243462E+02 -0.88457380397E+03  0.93660135727E+03  0.00000000000E+00 0. -1.
          1    1    1    2  502    0  0.25869359098E+01 -0.52671352071E+02  0.19498511201E+04  0.19505641117E+04  0.00000000000E+00 0. -1.
         22    1    3    3    0    0  0.13252411759E+03  0.66197579634E+00 -0.25483022684E+03  0.28723078607E+03  0.00000000000E+00 0.  1.
         22    1    3    3    0    0  0.15858914177E+03 -0.40139867188E+02 -0.72802897501E+03  0.74618222524E+03  0.00000000000E+00 0.  1.
</event>
<event>
 7    1  0.4822463E-005  0.2955878E+03  0.7818608E-02  0.1129202E+00
          2   -1    0    0  502    0  0.00000000000E+00  0.00000000000E+00  0.28488106620E+04  0.28488106620E+04  0.00000000000E+00 0. -1.
          1   -1    0    0  501    0 -0.00000000000E+00 -0.00000000000E+00 -0.18804501172E+04  0.18804501172E+04  0.00000000000E+00 0. -1.
         25    2    1    2    0    0 -0.19115826638E+03  0.37302057152E+03  0.26490465850E+03  0.51135668550E+03  0.12500140852E+03 0.  0.
          2    1    1    2  501    0  0.14970134436E+03 -0.87509821056E+02 -0.17444542367E+04  0.17530513527E+04  0.00000000000E+00 0. -1.
          1    1    1    2  502    0  0.41456922020E+02 -0.28551075046E+03  0.24479101230E+04  0.24648527411E+04  0.00000000000E+00 0. -1.
         22    1    3    3    0    0 -0.10613080616E+03  0.89774827660E+02  0.59041546723E+02  0.15102705697E+03  0.00000000000E+00 0. -1.
         22    1    3    3    0    0 -0.85027460211E+02  0.28324574386E+03  0.20586311177E+03  0.36032962853E+03  0.00000000000E+00 0. -1.
</event>
<event>
 7    1  0.4822463E-005  0.2807279E+03  0.7818608E-02  0.1198802E+00
          2   -1    0    0  502    0  0.00000000000E+00  0.00000000000E+00  0.21000903893E+04  0.21000903893E+04  0.00000000000E+00 0. -1.
          1   -1    0    0  501    0 -0.00000000000E+00 -0.00000000000E+00 -0.10662600234E+04  0.10662600234E+04  0.00000000000E+00 0. -1.
         25    2    1    2    0    0 -0.10992544007E+03 -0.33455191722E+03  0.32782552204E+03  0.49709510952E+03  0.12500154925E+03 0.  0.
          2    1    1    2  501    0  0.14592770636E+02  0.80302482243E+02 -0.96897619006E+03  0.97240747350E+03  0.00000000000E+00 0. -1.
          1    1    1    2  502    0  0.95332669433E+02  0.25424943497E+03  0.16749810339E+04  0.16968478297E+04  0.00000000000E+00 0. -1.
         22    1    3    3    0    0 -0.19342455347E+01 -0.18566521881E+03  0.12807231421E+03  0.22556115013E+03  0.00000000000E+00 0.  1.
         22    1    3    3    0    0 -0.10799119453E+03 -0.14888669840E+03  0.19975320783E+03  0.27153395938E+03  0.00000000000E+00 0.  1.
</event>
<event>
 7    1  0.4822463E-005  0.6425634E+03  0.7818608E-02  0.1220565E+00
          2   -1    0    0  502    0  0.00000000000E+00  0.00000000000E+00  0.24965564481E+04  0.24965564481E+04  0.00000000000E+00 0. -1.
          1   -1    0    0  501    0 -0.00000000000E+00 -0.00000000000E+00 -0.64722618562E+03  0.64722618562E+03  0.00000000000E+00 0. -1.
         25    2    1    2    0    0  0.36196772425E+03  0.51016677164E+03  0.44509384286E+03  0.77783274186E+03  0.12499790826E+03 0.  0.
          2    1    1    2  501    0 -0.38868564572E+03 -0.51937584807E+03 -0.26189173711E+03  0.69958207861E+03  0.00000000000E+00 0. -1.
          1    1    1    2  502    0  0.26717921467E+02  0.92090764304E+01  0.16661281567E+04  0.16663678133E+04  0.00000000000E+00 0. -1.
         22    1    3    3    0    0  0.29936833364E+03  0.43702402925E+03  0.42580091114E+03  0.67964536139E+03  0.00000000000E+00 0.  1.
         22    1    3    3    0    0  0.62599390615E+02  0.73142742390E+02  0.19292931720E+02  0.98187380472E+02  0.00000000000E+00 0.  1.
</event>
<event>
 7    1  0.4822463E-005  0.6012110E+03  0.7818608E-02  0.1244624E+00
          2   -1    0    0  502    0  0.00000000000E+00  0.00000000000E+00  0.21585365752E+04  0.21585365752E+04  0.00000000000E+00 0. -1.
          1   -1    0    0  501    0 -0.00000000000E+00 -0.00000000000E+00 -0.51614324010E+03  0.51614324010E+03  0.00000000000E+00 0. -1.
         25    2    1    2    0    0  0.40383736923E+03  0.45508352983E+03 -0.75842664134E+02  0.62575546637E+03  0.12502861304E+03 0.  0.
          2    1    1    2  501    0 -0.39800904270E+03 -0.43222949551E+03  0.35707299635E+03  0.68755702279E+03  0.00000000000E+00 0. -1.
          1    1    1    2  502    0 -0.58283265313E+01 -0.22854034314E+02  0.13611630029E+04  0.13613673262E+04  0.00000000000E+00 0. -1.
         22    1    3    3    0    0  0.34595714295E+03  0.38541826785E+03 -0.10908366457E+03  0.52927576161E+03  0.00000000000E+00 0. -1.
         22    1    3    3    0    0  0.57880226282E+02  0.69665261977E+02  0.33241000432E+02  0.96479704759E+02  0.00000000000E+00 0. -1.
</event>
<event>
 7    1  0.4822463E-005  0.3283650E+03  0.7818608E-02  0.1156886E+00
          2   -1    0    0  502    0  0.00000000000E+00  0.00000000000E+00  0.14880849915E+04  0.14880849915E+04  0.00000000000E+00 0. -1.
          1   -1    0    0  501    0 -0.00000000000E+00 -0.00000000000E+00 -0.14022421671E+04  0.14022421671E+04  0.00000000000E+00 0. -1.
         25    2    1    2    0    0 -0.35346704680E+03 -0.13056254264E+03 -0.18728951799E+03  0.43896202483E+03  0.12499905991E+03 0.  0.
          2    1    1    2  501    0  0.25892506706E+03  0.19057618779E+03 -0.10629970778E+04  0.11105513320E+04  0.00000000000E+00 0. -1.
          1    1    1    2  502    0  0.94541979741E+02 -0.60013645150E+02  0.13361294201E+04  0.13408138017E+04  0.00000000000E+00 0. -1.
         22    1    3    3    0    0 -0.28898186798E+03 -0.53929297200E+02 -0.11601677042E+03  0.31603604246E+03  0.00000000000E+00 0.  1.
         22    1    3    3    0    0 -0.64485178819E+02 -0.76633245440E+02 -0.71272747569E+02  0.12292598236E+03  0.00000000000E+00 0.  1.
</event>
<event>
 7    1  0.4822463E-005  0.5972182E+03  0.7818608E-02  0.1060341E+00
          2   -1    0    0  502    0  0.00000000000E+00  0.00000000000E+00  0.16502152049E+04  0.16502152049E+04  0.00000000000E+00 0. -1.
          1   -1    0    0  501    0 -0.00000000000E+00 -0.00000000000E+00 -0.22415404189E+04  0.22415404189E+04  0.00000000000E+00 0. -1.
         25    2    1    2    0    0 -0.30335154228E+03 -0.46897486000E+03  0.96397012913E+02  0.58041113746E+03  0.12500050753E+03 0.  0.
          2    1    1    2  501    0 -0.18841140100E+03  0.96595938281E+02 -0.19208798274E+04  0.19325136332E+04  0.00000000000E+00 0. -1.
          1    1    1    2  502    0  0.49176294328E+03  0.37237892172E+03  0.12331576005E+04  0.13788308531E+04  0.00000000000E+00 0. -1.
         22    1    3    3    0    0 -0.29787335181E+03 -0.38468200259E+03  0.67786958082E+02  0.49122688090E+03  0.00000000000E+00 0. -1.
         22    1    3    3    0    0 -0.54781904651E+01 -0.84292857410E+02  0.28610054831E+02  0.89184256563E+02  0.00000000000E+00 0. -1.
</event>
<event>
 7    1  0.4822463E-005  0.3817952E+03  0.7818608E-02  0.1111889E+00
          2   -1    0    0  502    0  0.00000000000E+00  0.00000000000E+00  0.93324794504E+03  0.93324794504E+03  0.00000000000E+00 0. -1.
          1   -1    0    0  501    0 -0.00000000000E+00 -0.00000000000E+00 -0.63600177034E+03  0.63600177034E+03  0.00000000000E+00 0. -1.
         25    2    1    2    0    0  0.17567342657E+03 -0.49234107285E+03 -0.46776707410E+01  0.53749527771E+03  0.12497362979E+03 0.  0.
          2    1    1    2  501    0 -0.50548959268E+02  0.15881353540E+03 -0.29372361084E+03  0.33771362998E+03  0.00000000000E+00 0. -1.
          1    1    1    2  502    0 -0.12512446730E+03  0.33352753745E+03  0.59564745629E+03  0.69404080769E+03  0.00000000000E+00 0. -1.
         22    1    3    3    0    0  0.38736950946E+02 -0.53717438916E+02  0.37420824638E+02  0.76068605409E+02  0.00000000000E+00 0. -1.
         22    1    3    3    0    0  0.13693647562E+03 -0.43862363393E+03 -0.42098495379E+02  0.46142667230E+03  0.00000000000E+00 0. -1.
</event>
<event>
 7    1  0.4822463E-005  0.3639358E+03  0.7818608E-02  0.1063505E+00
          2   -1    0    0  502    0  0.00000000000E+00  0.00000000000E+00  0.19303856946E+04  0.19303856946E+04  0.00000000000E+00 0. -1.
          1   -1    0    0  501    0 -0.00000000000E+00 -0.00000000000E+00 -0.42353311968E+03  0.42353311968E+03  0.00000000000E+00 0. -1.
         25    2    1    2    0    0 -0.53334074391E+03 -0.10663239834E+03  0.51636027985E+03  0.76031466492E+03  0.12501053394E+03 0.  0.
          2    1    1    2  501    0  0.23589291541E+03  0.25513266587E+03 -0.16971360151E+03  0.38670512186E+03  0.00000000000E+00 0. -1.
          1    1    1    2  502    0  0.29744782850E+03 -0.14850026753E+03  0.11602058966E+04  0.12068990275E+04  0.00000000000E+00 0. -1.
         22    1    3    3    0    0 -0.31994683191E+03 -0.11680017019E+03  0.35987327804E+03  0.49549675201E+03  0.00000000000E+00 0. -1.
         22    1    3    3    0    0 -0.21339391200E+03  0.10167771849E+02  0.15648700182E+03  0.26481791291E+03  0.00000000000E+00 0. -1.
</event>
<event>
 7    1  0.4822463E-005  0.6544768E+03  0.7818608E-02  0.1203063E+00
          2   -1    0    0  502    0  0.00000000000E+00  0.00000000000E+00  0.73290216919E+03  0.73290216919E+03  0.00000000000E+00 0. -1.
          1   -1    0    0  501    0 -0.00000000000E+00 -0.00000000000E+00 -0.96497697399E+03  0.96497697399E+03  0.00000000000E+00 0. -1.
         25    2    1    2    0    0  0.59493267693E+03 -0.26776494810E+03  0.12190324588E+03  0.67537146709E+03  0.12499303857E+03 0.  0.
          2    1    1    2  501    0 -0.61068451013E+03  0.23828084279E+03 -0.53022396571E+03  0.84311967404E+03  0.00000000000E+00 0. -1.
          1    1    1    2  502    0  0.15751833200E+02  0.29484105319E+02  0.17624591503E+03  0.17938800205E+03  0.00000000000E+00 0. -1.
         22    1    3    3    0    0  0.45368892404E+03 -0.25443846375E+03  0.11833065516E+03  0.53345544854E+03  0.00000000000E+00 0. -1.
         22    1    3    3    0    0  0.14124375289E+03 -0.13326484356E+02  0.35725907250E+01  0.14191601854E+03  0.00000000000E+00 0. -1.
</event>
<event>
 7    1  0.4822463E-005  0.1919886E+03  0.7818608E-02  0.1164701E+00
          2   -1    0    0  502    0  0.00000000000E+00  0.00000000000E+00  0.40678958757E+04  0.40678958757E+04  0.00000000000E+00 0. -1.
          1   -1    0    0  501    0 -0.00000000000E+00 -0.00000000000E+00 -0.27155536017E+03  0.27155536017E+03  0.00000000000E+00 0. -1.
         25    2    1    2    0    0  0.14127274210E+02 -0.45076121712E+02  0.16008481268E+04  0.16064158064E+04  0.12500232559E+03 0.  0.
          2    1    1    2  501    0 -0.18891443428E+03  0.51207604152E+02 -0.22956459514E+03  0.30167993891E+03  0.00000000000E+00 0. -1.
          1    1    1    2  502    0  0.17478716007E+03 -0.61314824403E+01  0.24250569838E+04  0.24313554905E+04  0.00000000000E+00 0. -1.
         22    1    3    3    0    0  0.47279327011E+02 -0.28384450143E+02  0.29925445574E+03  0.30429301841E+03  0.00000000000E+00 0. -1.
         22    1    3    3    0    0 -0.33152052801E+02 -0.16691671569E+02  0.13015936711E+04  0.13021227880E+04  0.00000000000E+00 0. -1.
</event>
<event>
 7    1  0.4822463E-005  0.3482262E+03  0.7818608E-02  0.1213827E+00
          2   -1    0    0  502    0  0.00000000000E+00  0.00000000000E+00  0.40139826121E+04  0.40139826121E+04  0.00000000000E+00 0. -1.
          1   -1    0    0  501    0 -0.00000000000E+00 -0.00000000000E+00 -0.53866515222E+02  0.53866515222E+02  0.00000000000E+00 0. -1.
         25    2    1    2    0    0  0.36767501908E+03  0.81685226448E+02  0.20990875806E+04  0.21362704790E+04  0.12500197102E+03 0.  0.
          2    1    1    2  501    0 -0.54695815904E+02  0.11962517582E+02  0.16537412568E+02  0.58379963333E+02  0.00000000000E+00 0. -1.
          1    1    1    2  502    0 -0.31297920318E+03 -0.93647744029E+02  0.18444911037E+04  0.18731986850E+04  0.00000000000E+00 0. -1.
         22    1    3    3    0    0  0.21889006658E+03  0.67319950302E+02  0.93556990940E+03  0.96319047563E+03  0.00000000000E+00 0. -1.
         22    1    3    3    0    0  0.14878495251E+03  0.14365276146E+02  0.11635176712E+04  0.11730800034E+04  0.00000000000E+00 0. -1.
</event>
<event>
 7    1  0.4822463E-005  0.3311369E+03  0.7818608E-02  0.1087094E+00
          2   -1    0    0  502    0  0.00000000000E+00  0.00000000000E+00  0.13185381819E+04  0.13185381819E+04  0.00000000000E+00 0. -1.
          1   -1    0    0  501    0 -0.00000000000E+00 -0.00000000000E+00 -0.40247723500E+03  0.40247723500E+03  0.00000000000E+00 0. -1.
         25    2    1    2    0    0  0.25044677798E+03  0.56394974684E+02 -0.60489118392E+02  0.29186270208E+03  0.12498368553E+03 0.  0.
          2    1    1    2  501    0 -0.26199039956E+03  0.27454067494E+03 -0.19012220422E+02  0.37996449332E+03  0.00000000000E+00 0. -1.
          1    1    1    2  502    0  0.11543621575E+02 -0.33093564963E+03  0.99556228569E+03  0.10491882215E+04  0.00000000000E+00 0. -1.
         22    1    3    3    0    0  0.18394916518E+03  0.72338497334E+02 -0.90243051710E+02  0.21728773999E+03  0.00000000000E+00 0. -1.
         22    1    3    3    0    0  0.66497612798E+02 -0.15943522649E+02  0.29753933318E+02  0.74574962087E+02  0.00000000000E+00 0. -1.
</event>
<event>
 7    1  0.4822463E-005  0.3470285E+03  0.7818608E-02  0.1184910E+00
          2   -1    0    0  502    0  0.00000000000E+00  0.00000000000E+00  0.25273287095E+04  0.25273287095E+04  0.00000000000E+00 0. -1.
          1   -1    0    0  501    0 -0.00000000000E+00 -0.00000000000E+00 -0.10263699579E+04  0.10263699579E+04  0.00000000000E+00 0. -1.
         25    2    1    2    0    0 -0.34456556481E+03 -0.28797345266E+02  0.24375489304E+04  0.24651216364E+04  0.12500071538E+03 0.  0.
          2    1    1    2  501    0 -0.46967741612E+02 -0.60939102171E+02 -0.45498823444E+03  0.46144754458E+03  0.00000000000E+00 0. -1.
          1    1    1    2  502    0  0.39153330643E+03  0.89736447437E+02 -0.48160194433E+03  0.62712948648E+03  0.00000000000E+00 0. -1.
         22    1    3    3    0    0 -0.15608214653E+03 -0.75496105802E+02  0.11205868173E+04  0.11339206822E+04  0.00000000000E+00 0.  1.
         22    1    3    3    0    0 -0.18848341828E+03  0.46698760536E+02  0.13169621131E+04  0.13312009542E+04  0.00000000000E+00 0.  1.
</event>
<event>
 7    1  0.4822463E-005  0.4090058E+03  0.7818608E-02  0.1268789E+00
          2   -1    0    0  502    0  0.00000000000E+00  0.00000000000E+00  0.46531770447E+03  0.46531770447E+03  0.00000000000E+00 0. -1.
          1   -1    0    0  501    0 -0.00000000000E+00 -0.00000000000E+00 -0.78505141138E+03  0.78505141138E+03  0.00000000000E+00 0. -1.
         25    2    1    2    0    0 -0.34569255652E+03  0.25021453532E+03 -0.10222813616E+03  0.45627409897E+03  0.12499921699E+03 0.  0.
          2    1    1    2  501    0  0.25151128977E+02 -0.10629139099E+02 -0.36617146501E+03  0.36718809849E+03  0.00000000000E+00 0. -1.
          1    1    1    2  502    0  0.32054142754E+03 -0.23958539622E+03  0.14866589426E+03  0.42690691839E+03  0.00000000000E+00 0. -1.
         22    1    3    3    0    0 -0.21398433517E+03  0.22203692380E+03 -0.53095960464E+02  0.31290393453E+03  0.00000000000E+00 0.  1.
         22    1    3    3    0    0 -0.13170822135E+03  0.28177611521E+02 -0.49132175696E+02  0.14337016444E+03  0.00000000000E+00 0.  1.
</event>
<event>
 7    1  0.6520421E-005  0.4517954E+03  0.7818608E-02  0.1136018E+00
          2   -1    0    0  502    0  0.00000000000E+00  0.00000000000E+00  0.25483610610E+04  0.25483610610E+04  0.00000000000E+00 0. -1.
          1   -1    0    0  501    0 -0.00000000000E+00 -0.00000000000E+00 -0.17435841334E+04  0.17435841334E+04  0.00000000000E+00 0. -1.
         25    2    1    2    0    0  0.42472651631E+03 -0.68660239244E+02 -0.63883493130E+03  0.78028320233E+03  0.12499985712E+03 0.  0.
          2    1    1    2  501    0 -0.47199313276E+03 -0.24404973233E+02 -0.97883668727E+03  0.10869656758E+04  0.00000000000E+00 0. -1.
          1    1    1    2  502    0  0.47266616450E+02  0.93065212477E+02  0.24224485462E+04  0.24246963162E+04  0.00000000000E+00 0. -1.
         22    1    3    3    0    0  0.36775754649E+03 -0.90683926639E+02 -0.48945169451E+03  0.61889591113E+03  0.00000000000E+00 0.  1.
         22    1    3    3    0    0  0.56968969825E+02  0.22023687395E+02 -0.14938323678E+03  0.16138729120E+03  0.00000000000E+00 0.  1.
</event>
<event>
 7    1  0.4822463E-005  0.1178366E+03  0.7818608E-02  0.1339694E+00
          2   -1    0    0  502    0  0.00000000000E+00  0.00000000000E+00  0.74275505920E+03  0.74275505920E+03  0.00000000000E+00 0. -1.
          1   -1    0    0  501    0 -0.00000000000E+00 -0.00000000000E+00 -0.22177956934E+03  0.22177956934E+03  0.00000000000E+00 0. -1.
         25    2    1    2    0    0  0.34455901387E+01  0.81692818454E+02  0.36406473420E+02  0.15374307005E+03  0.12500364636E+03 0.  0.
          2    1    1    2  501    0  0.17682847409E+02 -0.12644544208E+03 -0.13699147127E+03  0.18726397442E+03  0.00000000000E+00 0. -1.
          1    1    1    2  502    0 -0.21128437547E+02  0.44752623629E+02  0.62156048772E+03  0.62352758406E+03  0.00000000000E+00 0. -1.
         22    1    3    3    0    0  0.47989875801E+02  0.29742741363E+02  0.59014930555E+02  0.81672644573E+02  0.00000000000E+00 0.  1.
         22    1    3    3    0    0 -0.44544285662E+02  0.51950077090E+02 -0.22608457135E+02  0.72070425480E+02  0.00000000000E+00 0.  1.
</event>
<event>
 7    1  0.4822463E-005  0.3928954E+03  0.7818608E-02  0.1187406E+00
          2   -1    0    0  502    0  0.00000000000E+00  0.00000000000E+00  0.19997743743E+04  0.19997743743E+04  0.00000000000E+00 0. -1.
          1   -1    0    0  501    0 -0.00000000000E+00 -0.00000000000E+00 -0.24135373170E+03  0.24135373170E+03  0.00000000000E+00 0. -1.
         25    2    1    2    0    0  0.33698213725E+03  0.17883896194E+03  0.13823931066E+04  0.14395054543E+04  0.12499966706E+03 0.  0.
          2    1    1    2  501    0  0.60891563954E+02 -0.25707932673E+02 -0.12643431341E+03  0.14266855285E+03  0.00000000000E+00 0. -1.
          1    1    1    2  502    0 -0.39787370121E+03 -0.15313102927E+03  0.50246184944E+03  0.65895409884E+03  0.00000000000E+00 0. -1.
         22    1    3    3    0    0  0.24963954565E+03  0.14256271095E+03  0.81343062984E+03  0.86273600763E+03  0.00000000000E+00 0. -1.
         22    1    3    3    0    0  0.87342591604E+02  0.36276250987E+02  0.56896247674E+03  0.57676944669E+03  0.00000000000E+00 0. -1.
</event>
<event>
 7    1  0.4822463E-005  0.2328812E+03  0.7818608E-02  0.1174927E+00
          2   -1    0    0  502    0  0.00000000000E+00  0.00000000000E+00  0.19764129198E+04  0.19764129198E+04  0.00000000000E+00 0. -1.
          1   -1    0    0  501    0 -0.00000000000E+00 -0.00000000000E+00 -0.58357371495E+03  0.58357371495E+03  0.00000000000E+00 0. -1.
         25    2    1    2    0    0 -0.18519652270E+03 -0.22718386660E+03  0.32977712920E+03  0.45857169081E+03  0.12499911763E+03 0.  0.
          2    1    1    2  501    0 -0.19629123274E+02  0.12675442207E+03 -0.50286161301E+03  0.51896222197E+03  0.00000000000E+00 0. -1.
          1    1    1    2  502    0  0.20482564597E+03  0.10042944453E+03  0.15659236887E+04  0.15824527220E+04  0.00000000000E+00 0. -1.
         22    1    3    3    0    0 -0.19463699566E+03 -0.19761066729E+03  0.32482520808E+03  0.42713575326E+03  0.00000000000E+00 0.  1.
         22    1    3    3    0    0  0.94404729605E+01 -0.29573199304E+02  0.49519211146E+01  0.31435937548E+02  0.00000000000E+00 0.  1.
</event>
<event>
 7    1  0.4822463E-005  0.5062225E+03  0.7818608E-02  0.1129342E+00
          2   -1    0    0  502    0  0.00000000000E+00  0.00000000000E+00  0.96580453185E+03  0.96580453185E+03  0.00000000000E+00 0. -1.
          1   -1    0    0  501    0 -0.00000000000E+00 -0.00000000000E+00 -0.10384051677E+04  0.10384051677E+04  0.00000000000E+00 0. -1.
         25    2    1    2    0    0  0.50723428460E+03 -0.72510396416E+02 -0.74536845819E+03  0.91309538929E+03  0.12499869766E+03 0.  0.
          2    1    1    2  501    0 -0.49125961535E+03 -0.27295598580E+02  0.90664880030E+02  0.50030108919E+03  0.00000000000E+00 0. -1.
          1    1    1    2  502    0 -0.15974669251E+02  0.99805994997E+02  0.58210294233E+03  0.59081322104E+03  0.00000000000E+00 0. -1.
         22    1    3    3    0    0  0.33205692145E+03 -0.45009954629E+02 -0.37783614301E+03  0.50502261936E+03  0.00000000000E+00 0. -1.
         22    1    3    3    0    0  0.17517736315E+03 -0.27500441787E+02 -0.36753231518E+03  0.40807276993E+03  0.00000000000E+00 0. -1.
</event>
<event>
 7    1  0.4822463E-005  0.4969963E+03  0.7818608E-02  0.1186022E+00
          2   -1    0    0  502    0  0.00000000000E+00  0.00000000000E+00  0.38055963317E+04  0.38055963317E+04  0.00000000000E+00 0. -1.
          1   -1    0    0  501    0 -0.00000000000E+00 -0.00000000000E+00 -0.25154679263E+03  0.25154679263E+03  0.00000000000E+00 0. -1.
         25    2    1    2    0    0 -0.36706064548E+03 -0.33454319522E+03  0.13452410764E+03  0.52950388337E+03  0.12499984017E+03 0.  0.
          2    1    1    2  501    0  0.33204223700E+03  0.37440796293E+03  0.11110100680E+04  0.12185141530E+04  0.00000000000E+00 0. -1.
          1    1    1    2  502    0  0.35018408476E+02 -0.39864767708E+02  0.23085153634E+04  0.23091250879E+04  0.00000000000E+00 0. -1.
         22    1    3    3    0    0 -0.21800992685E+03 -0.23738924629E+03  0.14023497522E+03  0.35149371365E+03  0.00000000000E+00 0. -1.
         22    1    3    3    0    0 -0.14905071863E+03 -0.97153948930E+02 -0.57108675775E+01  0.17801016973E+03  0.00000000000E+00 0. -1.
</event>
<event>
 7    1  0.4822463E-005  0.8503856E+02  0.7818608E-02  0.1335475E+00
          2   -1    0    0  502    0  0.00000000000E+00  0.00000000000E+00  0.22221510321E+03  0.22221510321E+03  0.00000000000E+00 0. -1.
          1   -1    0    0  501    0 -0.00000000000E+00 -0.00000000000E+00 -0.23600065531E+04  0.23600065531E+04  0.00000000000E+00 0. -1.
         25    2    1    2    0    0  0.12418203510E+03  0.65179945686E+02 -0.35043122177E+03  0.39761682717E+03  0.12500998719E+03 0.  0.
          2    1    1    2  501    0 -0.53047796099E+02 -0.64313845210E+02 -0.19787065846E+04  0.19804620893E+04  0.00000000000E+00 0. -1.
          1    1    1    2  502    0 -0.71134238998E+02 -0.86610047564E+00  0.19134635647E+03  0.20414273982E+03  0.00000000000E+00 0. -1.
         22    1    3    3    0    0  0.11782505215E+03 -0.40024191303E+01 -0.23437207142E+03  0.26235287331E+03  0.00000000000E+00 0.  1.
         22    1    3    3    0    0  0.63569829456E+01  0.69182364816E+02 -0.11605915035E+03  0.13526395386E+03  0.00000000000E+00 0.  1.
</event>
<event>
 7    1  0.4822463E-005  0.3836828E+03  0.7818608E-02  0.1294636E+00
          2   -1    0    0  502    0  0.00000000000E+00  0.00000000000E+00  0.50409980451E+03  0.50409980451E+03  0.00000000000E+00 0. -1.
          1   -1    0    0  501    0 -0.00000000000E+00 -0.00000000000E+00 -0.49019700008E+03  0.49019700008E+03  0.00000000000E+00 0. -1.
         25    2    1    2    0    0 -0.27678586705E+03 -0.26538330111E+03 -0.50590562582E+00  0.40331346166E+03  0.12499111852E+03 0.  0.
          2    1    1    2  501    0 -0.15720801228E+02  0.16479809751E+02 -0.16535907344E+03  0.16692019317E+03  0.00000000000E+00 0. -1.
          1    1    1    2  502    0  0.29250666828E+03  0.24890349136E+03  0.17976778349E+03  0.42406314975E+03  0.00000000000E+00 0. -1.
         22    1    3    3    0    0 -0.41693601216E+02 -0.11940017150E+03  0.42678433212E+01  0.12654237165E+03  0.00000000000E+00 0. -1.
         22    1    3    3    0    0 -0.23509226583E+03 -0.14598312961E+03 -0.47737489470E+01  0.27677109001E+03  0.00000000000E+00 0. -1.
</event>
<event>
 7    1  0.4822463E-005  0.4441369E+03  0.7818608E-02  0.1185104E+00
          2   -1    0    0  502    0  0.00000000000E+00  0.00000000000E+00  0.56169514392E+03  0.56169514392E+03  0.00000000000E+00 0. -1.
          1   -1    0    0  501    0 -0.00000000000E+00 -0.00000000000E+00 -0.80876088076E+03  0.80876088076E+03  0.00000000000E+00 0. -1.
         25    2    1    2    0    0 -0.23695966023E+03 -0.42456011849E+03 -0.74030300471E+02  0.50745122743E+03  0.12500035216E+03 0.  0.
          2    1    1    2  501    0  0.21574649866E+03  0.36844972667E+03 -0.42593162874E+03  0.60309162250E+03  0.00000000000E+00 0. -1.
          1    1    1    2  502    0  0.21213161567E+02  0.56110391817E+02  0.25289619237E+03  0.25991317475E+03  0.00000000000E+00 0. -1.
         22    1    3    3    0    0 -0.41825399303E+02 -0.12186718156E+03 -0.71392947103E+02  0.14730216178E+03  0.00000000000E+00 0. -1.
         22    1    3    3    0    0 -0.19513426093E+03 -0.30269293693E+03 -0.26373533682E+01  0.36014906565E+03  0.00000000000E+00 0. -1.
</event>
<event>
 7    1  0.4822463E-005  0.2266291E+03  0.7818608E-02  0.1306394E+00
          2   -1    0    0  502    0  0.00000000000E+00  0.00000000000E+00  0.18275895701E+03  0.18275895701E+03  0.00000000000E+00 0. -1.
          1   -1    0    0  501    0 -0.00000000000E+00 -0.00000000000E+00 -0.15192219121E+04  0.15192219121E+04  0.00000000000E+00 0. -1.
         25    2    1    2    0    0  0.21292541198E+03  0.68053270905E+02 -0.27933248809E+03  0.37897324213E+03  0.12500240238E+03 0.  0.
          2    1    1    2  501    0  0.12401787357E+02 -0.32302167057E+02 -0.10917082455E+04  0.10922564386E+04  0.00000000000E+00 0. -1.
          1    1    1    2  502    0 -0.22532719934E+03 -0.35751103848E+02  0.34577778494E+02  0.23075118841E+03  0.00000000000E+00 0. -1.
         22    1    3    3    0    0  0.10205358426E+03  0.89070101844E+02 -0.19787862759E+03  0.23980068465E+03  0.00000000000E+00 0.  1.
         22    1    3    3    0    0  0.11087182772E+03 -0.21016830939E+02 -0.81453860503E+02  0.13917255748E+03  0.00000000000E+00 0.  1.
</event>
<event>
 7    1  0.4822463E-005  0.1093004E+03  0.7818608E-02  0.1326073E+00
          2   -1    0    0  502    0  0.00000000000E+00  0.00000000000E+00  0.34461189153E+02  0.34461189153E+02  0.00000000000E+00 0. -1.
          1   -1    0    0  501    0 -0.00000000000E+00 -0.00000000000E+00 -0.92361076605E+03  0.92361076605E+03  0.00000000000E+00 0. -1.
         25    2    1    2    0    0 -0.12061315164E+03  0.84169136127E+02 -0.53003676491E+03  0.56408816483E+03  0.12499803883E+03 0.  0.
          2    1    1    2  501    0  0.28031056429E+02 -0.53178913056E+02 -0.18298454263E+03  0.19260602213E+03  0.00000000000E+00 0. -1.
          1    1    1    2  502    0  0.92582095212E+02 -0.30990223071E+02 -0.17612826936E+03  0.20137776825E+03  0.00000000000E+00 0. -1.
         22    1    3    3    0    0 -0.12783718644E+03  0.23451678421E+02 -0.32167156022E+03  0.34693647850E+03  0.00000000000E+00 0. -1.
         22    1    3    3    0    0  0.72240347968E+01  0.60717457706E+02 -0.20836520469E+03  0.21715168633E+03  0.00000000000E+00 0. -1.
</event>
<event>
 7    1  0.4822463E-005  0.2887893E+03  0.7818608E-02  0.1163410E+00
          2   -1    0    0  502    0  0.00000000000E+00  0.00000000000E+00  0.25731341875E+04  0.25731341875E+04  0.00000000000E+00 0. -1.
          1   -1    0    0  501    0 -0.00000000000E+00 -0.00000000000E+00 -0.94374616084E+03  0.94374616084E+03  0.00000000000E+00 0. -1.
         25    2    1    2    0    0 -0.25325803616E+03 -0.18095592400E+02  0.82310680835E+03  0.87039938922E+03  0.12499278160E+03 0.  0.
          2    1    1    2  501    0  0.25644625385E+03  0.13607095616E+03 -0.89510503515E+03  0.94100638158E+03  0.00000000000E+00 0. -1.
          1    1    1    2  502    0 -0.31882176937E+01 -0.11797536376E+03  0.17013862535E+04  0.17054745775E+04  0.00000000000E+00 0. -1.
         22    1    3    3    0    0 -0.15467381067E+03  0.50658771735E+02  0.48171474459E+03  0.50846769221E+03  0.00000000000E+00 0. -1.
         22    1    3    3    0    0 -0.98584225492E+02 -0.68754364134E+02  0.34139206376E+03  0.36193169701E+03  0.00000000000E+00 0. -1.
</event>
<event>
 7    1  0.4822463E-005  0.3364665E+03  0.7818608E-02  0.1132600E+00
          2   -1    0    0  502    0  0.00000000000E+00  0.00000000000E+00  0.94262644877E+03  0.94262644877E+03  0.00000000000E+00 0. -1.
          1   -1    0    0  501    0 -0.00000000000E+00 -0.00000000000E+00 -0.23925381969E+03  0.23925381969E+03  0.00000000000E+00 0. -1.
         25    2    1    2    0    0 -0.20078573047E+03 -0.23988567506E+03  0.23103549953E+03  0.40848702081E+03  0.12499678983E+03 0.  0.
          2    1    1    2  501    0  0.10577854944E+03  0.35090170040E+03  0.10991786112E+03  0.38262650334E+03  0.00000000000E+00 0. -1.
          1    1    1    2  502    0  0.95007181034E+02 -0.11101602534E+03  0.36241926843E+03  0.39076674431E+03  0.00000000000E+00 0. -1.
         22    1    3    3    0    0 -0.84610427795E+02 -0.77286770868E+02  0.17321744417E+02  0.11589742134E+03  0.00000000000E+00 0.  1.
         22    1    3    3    0    0 -0.11617530268E+03 -0.16259890419E+03  0.21371375511E+03  0.29258959947E+03  0.00000000000E+00 0.  1.
</event>
<event>
 7    1  0.4822463E-005  0.2200039E+03  0.7818608E-02  0.1151328E+00
          2   -1    0    0  502    0  0.00000000000E+00  0.00000000000E+00  0.20133825545E+04  0.20133825545E+04  0.00000000000E+00 0. -1.
          1   -1    0    0  501    0 -0.00000000000E+00 -0.00000000000E+00 -0.24245976298E+03  0.24245976298E+03  0.00000000000E+00 0. -1.
         25    2    1    2    0    0  0.15951342492E+03  0.27575991398E+03  0.63730881823E+03  0.72337859187E+03  0.12500397788E+03 0.  0.
          2    1    1    2  501    0  0.23461029788E+02 -0.17687738971E+03 -0.14939145681E+03  0.23270977263E+03  0.00000000000E+00 0. -1.
          1    1    1    2  502    0 -0.18297445470E+03 -0.98882524276E+02  0.12830054301E+04  0.12997539530E+04  0.00000000000E+00 0. -1.
         22    1    3    3    0    0 -0.66510252871E+01  0.99687297112E+02  0.19788309795E+03  0.22167434176E+03  0.00000000000E+00 0. -1.
         22    1    3    3    0    0  0.16616445020E+03  0.17607261687E+03  0.43942572028E+03  0.50170425010E+03  0.00000000000E+00 0. -1.
</event>
<event>
 7    1  0.4822463E-005  0.2621427E+03  0.7818608E-02  0.1189730E+00
          2   -1    0    0  502    0  0.00000000000E+00  0.00000000000E+00  0.25226900662E+03  0.25226900662E+03  0.00000000000E+00 0. -1.
          1   -1    0    0  501    0 -0.00000000000E+00 -0.00000000000E+00 -0.50794035966E+03  0.50794035966E+03  0.00000000000E+00 0. -1.
         25    2    1    2    0    0 -0.21140415555E+03  0.15580159965E+03 -0.16272279979E+03  0.33327020830E+03  0.12499786691E+03 0.  0.
          2    1    1    2  501    0 -0.46567535939E+02 -0.84573949306E+02 -0.12440393508E+03  0.15747262419E+03  0.00000000000E+00 0. -1.
          1    1    1    2  502    0  0.25797169149E+03 -0.71227650345E+02  0.31455381833E+02  0.26946653378E+03  0.00000000000E+00 0. -1.
         22    1    3    3    0    0 -0.22308843158E+03  0.15226734981E+03 -0.13285756718E+03  0.30100652365E+03  0.00000000000E+00 0.  1.
         22    1    3    3    0    0  0.11684276030E+02  0.35342498427E+01 -0.29865232618E+02  0.32263684657E+02  0.00000000000E+00 0.  1.
</event>
<event>
 7    1  0.4822463E-005  0.2484065E+03  0.7818608E-02  0.1194856E+00
          2   -1    0    0  502    0  0.00000000000E+00  0.00000000000E+00  0.33295837133E+03  0.33295837133E+03  0.00000000000E+00 0. -1.
          1   -1    0    0  501    0 -0.00000000000E+00 -0.00000000000E+00 -0.15799818807E+04  0.15799818807E+04  0.00000000000E+00 0. -1.
         25    2    1    2    0    0 -0.32565131545E+03 -0.62053949806E+02  0.92622258958E+02  0.36620214471E+03  0.12500262396E+03 0.  0.
          2    1    1    2  501    0  0.23113017789E+03  0.80465359110E+02 -0.14077027755E+04  0.14288187210E+04  0.00000000000E+00 0. -1.
          1    1    1    2  502    0  0.94521137559E+02 -0.18411409304E+02  0.68057007229E+02  0.11791938632E+03  0.00000000000E+00 0. -1.
         22    1    3    3    0    0 -0.19241663743E+03 -0.91202448490E+02  0.86024227967E+02  0.22965673682E+03  0.00000000000E+00 0. -1.
         22    1    3    3    0    0 -0.13323467802E+03  0.29148498684E+02  0.65980309913E+01  0.13654540789E+03  0.00000000000E+00 0. -1.
</event>
<event>
 7    1  0.4822463E-005  0.1216611E+03  0.7818608E-02  0.1338421E+00
          2   -1    0    0  502    0  0.00000000000E+00  0.00000000000E+00  0.75684549985E+03  0.75684549985E+03  0.00000000000E+00 0. -1.
          1   -1    0    0  501    0 -0.00000000000E+00 -0.00000000000E+00 -0.15754660252E+03  0.15754660252E+03  0.00000000000E+00 0. -1.
         25    2    1    2    0    0 -0.79924575767E+02  0.34849829511E+01  0.30697017364E+03  0.34096145043E+03  0.12499576098E+03 0.  0.
          2    1    1    2  501    0  0.12439141281E+03  0.15793952972E+02 -0.11084168764E+03  0.16735755809E+03  0.00000000000E+00 0. -1.
          1    1    1    2  502    0 -0.44466837043E+02 -0.19278935923E+02  0.40317041134E+03  0.40607309384E+03  0.00000000000E+00 0. -1.
         22    1    3    3    0    0  0.11457629274E+02  0.24735824549E+02  0.18542508767E+03  0.18741825264E+03  0.00000000000E+00 0.  1.
         22    1    3    3    0    0 -0.91382205041E+02 -0.21250841597E+02  0.12154508596E+03  0.15354319779E+03  0.00000000000E+00 0.  1.
</event>
<event>
 7    1  0.4822463E-005  0.7342170E+02  0.7818608E-02  0.1361554E+00
          2   -1    0    0  502    0  0.00000000000E+00  0.00000000000E+00  0.89893266742E+02  0.89893266742E+02  0.00000000000E+00 0. -1.
          1   -1    0    0  501    0 -0.00000000000E+00 -0.00000000000E+00 -0.13750469902E+04  0.13750469902E+04  0.00000000000E+00 0. -1.
         25    2    1    2    0    0  0.95975099379E+02 -0.52501132228E+02 -0.18590484639E+02  0.16714599762E+03  0.12499835925E+03 0.  0.
          2    1    1    2  501    0 -0.72614297884E+02 -0.91455775938E+01 -0.12061703278E+04  0.12083887361E+04  0.00000000000E+00 0. -1.
          1    1    1    2  502    0 -0.23360801496E+02  0.61646709822E+02 -0.60392910950E+02  0.89405523159E+02  0.00000000000E+00 0. -1.
         22    1    3    3    0    0  0.73490511782E+02  0.70335872096E+01  0.37060404895E+02  0.82606296867E+02  0.00000000000E+00 0. -1.
         22    1    3    3    0    0  0.22484587597E+02 -0.59534719438E+02 -0.55650889534E+02  0.84539700756E+02  0.00000000000E+00 0. -1.
</event>
<event>
 7    1  0.4822463E-005  0.2422787E+03  0.7818608E-02  0.1123449E+00
          2   -1    0    0  502    0  0.00000000000E+00  0.00000000000E+00  0.14070029212E+04  0.14070029212E+04  0.00000000000E+00 0. -1.
          1   -1    0    0  501    0 -0.00000000000E+00 -0.00000000000E+00 -0.53052101793E+03  0.53052101793E+03  0.00000000000E+00 0. -1.
         25    2    1    2    0    0  0.17128574213E+03  0.21209898931E+03  0.29428536742E+03  0.42018215952E+03  0.12499753190E+03 0.  0.
          2    1    1    2  501    0 -0.24836642785E+03  0.15713702394E+01 -0.42097094233E+03  0.48877897456E+03  0.00000000000E+00 0. -1.
          1    1    1    2  502    0  0.77080685721E+02 -0.21367035955E+03  0.10031674782E+04  0.10285628051E+04  0.00000000000E+00 0. -1.
         22    1    3    3    0    0  0.13949421704E+03  0.22051377433E+03  0.22937340613E+03  0.34741491145E+03  0.00000000000E+00 0.  1.
         22    1    3    3    0    0  0.31791525085E+02 -0.84147850170E+01  0.64911961287E+02  0.72767248074E+02  0.00000000000E+00 0.  1.
</event>
<event>
 7    1  0.4822463E-005  0.7274675E+03  0.7818608E-02  0.1135013E+00
          2   -1    0    0  502    0  0.00000000000E+00  0.00000000000E+00  0.23649446192E+04  0.23649446192E+04  0.00000000000E+00 0. -1.
          1   -1    0    0  501    0 -0.00000000000E+00 -0.00000000000E+00 -0.13237261851E+04  0.13237261851E+04  0.00000000000E+00 0. -1.
         25    2    1    2    0    0 -0.74493921018E+03 -0.12417262128E+03  0.11019741314E+03  0.77338195813E+03  0.12499166596E+03 0.  0.
          2    1    1    2  501    0  0.71681074457E+03  0.64883951777E+02 -0.86092056990E+03  0.11221460682E+04  0.00000000000E+00 0. -1.
          1    1    1    2  502    0  0.28128465608E+02  0.59288669501E+02  0.17919415909E+04  0.17931427780E+04  0.00000000000E+00 0. -1.
         22    1    3    3    0    0 -0.73397433013E+03 -0.13811122772E+03  0.10180558085E+03  0.75376216727E+03  0.00000000000E+00 0. -1.
         22    1    3    3    0    0 -0.10964880047E+02  0.13938606447E+02  0.83918322898E+01  0.19619790858E+02  0.00000000000E+00 0. -1.
</event>
<event>
 7    1  0.4822463E-005  0.2332590E+03  0.7818608E-02  0.1188737E+00
          2   -1    0    0  502    0  0.00000000000E+00  0.00000000000E+00  0.87387164262E+02  0.87387164262E+02  0.00000000000E+00 0. -1.
          1   -1    0    0  501    0 -0.00000000000E+00 -0.00000000000E+00 -0.19489950444E+04  0.19489950444E+04  0.00000000000E+00 0. -1.
         25    2    1    2    0    0  0.23575015007E+03 -0.36146308492E+02 -0.87433205836E+03  0.91485842922E+03  0.12499883346E+03 0.  0.
          2    1    1    2  501    0 -0.10264928781E+02  0.10921874829E+03 -0.82964231665E+03  0.83686347591E+03  0.00000000000E+00 0. -1.
          1    1    1    2  502    0 -0.22548522128E+03 -0.73072439796E+02 -0.15763350517E+03  0.28466030357E+03  0.00000000000E+00 0. -1.
         22    1    3    3    0    0  0.18741844935E+03 -0.59028218188E+02 -0.79682122028E+03  0.82069121038E+03  0.00000000000E+00 0.  1.
         22    1    3    3    0    0  0.48331700711E+02  0.22881909696E+02 -0.77510838075E+02  0.94167218839E+02  0.00000000000E+00 0.  1.
</event>
<event>
 7    1  0.4822463E-005  0.2051077E+03  0.7818608E-02  0.1222329E+00
          2   -1    0    0  502    0  0.00000000000E+00  0.00000000000E+00  0.23355789030E+04  0.23355789030E+04  0.00000000000E+00 0. -1.
          1   -1    0    0  501    0 -0.00000000000E+00 -0.00000000000E+00 -0.30933176500E+03  0.30933176500E+03  0.00000000000E+00 0. -1.
         25    2    1    2    0    0 -0.83468755261E+02 -0.22744392944E+03  0.13077085503E+04  0.13358235056E+04  0.12500004562E+03 0.  0.
          2    1    1    2  501    0 -0.36132393131E+00  0.20449691415E+03 -0.25770359225E+03  0.32898367727E+03  0.00000000000E+00 0. -1.
          1    1    1    2  502    0  0.83830079192E+02  0.22947015294E+02  0.97624217996E+03  0.98010348516E+03  0.00000000000E+00 0. -1.
         22    1    3    3    0    0 -0.58193657272E+02 -0.17363103035E+03  0.11894222099E+04  0.12034365085E+04  0.00000000000E+00 0. -1.
         22    1    3    3    0    0 -0.25275097989E+02 -0.53812899086E+02  0.11828634035E+03  0.13238699710E+03  0.00000000000E+00 0. -1.
</event>
<event>
 7    1  0.4822463E-005  0.9925238E+02  0.7818608E-02  0.1286800E+00
          2   -1    0    0  502    0  0.00000000000E+00  0.00000000000E+00  0.72938223686E+03  0.72938223686E+03  0.00000000000E+00 0. -1.
          1   -1    0    0  501    0 -0.00000000000E+00 -0.00000000000E+00 -0.72761821627E+02  0.72761821627E+02  0.00000000000E+00 0. -1.
         25    2    1    2    0    0  0.59325993285E+02 -0.15929462001E+02  0.25254751899E+03  0.28840604635E+03  0.12499790792E+03 0.  0.
          2    1    1    2  501    0 -0.20964901840E+02  0.10746886228E+03  0.12996396786E+02  0.11026327493E+03  0.00000000000E+00 0. -1.
          1    1    1    2  502    0 -0.38361091445E+02 -0.91539400274E+02  0.39107649946E+03  0.40347473721E+03  0.00000000000E+00 0. -1.
         22    1    3    3    0    0 -0.38648359334E+02 -0.57758728433E+01  0.93367884583E+02  0.10121570164E+03  0.00000000000E+00 0. -1.
         22    1    3    3    0    0  0.97974352619E+02 -0.10153589158E+02  0.15917963441E+03  0.18719034471E+03  0.00000000000E+00 0. -1.
</event>
<event>
 7    1  0.4822463E-005  0.4094041E+03  0.7818608E-02  0.1154417E+00
          2   -1    0    0  502    0  0.00000000000E+00  0.00000000000E+00  0.22563418549E+04  0.22563418549E+04  0.00000000000E+00 0. -1.
          1   -1    0    0  501    0 -0.00000000000E+00 -0.00000000000E+00 -0.16887384078E+04  0.16887384078E+04  0.00000000000E+00 0. -1.
         25    2    1    2    0    0 -0.46595741647E+03 -0.70940291836E+02  0.63376158840E+03  0.79964050624E+03  0.12498939682E+03 0.  0.
          2    1    1    2  501    0  0.38873240528E+03  0.12177391757E+03 -0.15785297950E+04  0.16302447925E+04  0.00000000000E+00 0. -1.
          1    1    1    2  502    0  0.77225011185E+02 -0.50833625731E+02  0.15123716537E+04  0.15151949639E+04  0.00000000000E+00 0. -1.
         22    1    3    3    0    0 -0.17040842095E+03 -0.83204126302E+02  0.28503877279E+03  0.34235808528E+03  0.00000000000E+00 0. -1.
         22    1    3    3    0    0 -0.29554899552E+03  0.12263834466E+02  0.34872281561E+03  0.45728242096E+03  0.00000000000E+00 0. -1.
</event>
<event>
 7    1  0.4822463E-005  0.3562496E+03  0.7818608E-02  0.1161744E+00
          2   -1    0    0  502    0  0.00000000000E+00  0.00000000000E+00  0.95839549396E+03  0.95839549396E+03  0.00000000000E+00 0. -1.
          1   -1    0    0  501    0 -0.00000000000E+00 -0.00000000000E+00 -0.58267387286E+03  0.58267387286E+03  0.00000000000E+00 0. -1.
         25    2    1    2    0    0 -0.37366448200E+03  0.12563499829E+03  0.34053691248E+03  0.53572357727E+03  0.12500025830E+03 0.  0.
          2    1    1    2  501    0  0.37661585977E+02 -0.89971375489E+02 -0.42409343509E+03  0.43516489421E+03  0.00000000000E+00 0. -1.
          1    1    1    2  502    0  0.33600289602E+03 -0.35663622802E+02  0.45927814370E+03  0.57018089534E+03  0.00000000000E+00 0. -1.
         22    1    3    3    0    0 -0.28485621204E+03  0.69790722711E+02  0.18052495013E+03  0.34438795585E+03  0.00000000000E+00 0.  1.
         22    1    3    3    0    0 -0.88808269962E+02  0.55844275580E+02  0.16001196235E+03  0.19133562142E+03  0.00000000000E+00 0.  1.
</event>
<event>
 7    1  0.4822463E-005  0.3632042E+03  0.7818608E-02  0.1151882E+00
          2   -1    0    0  502    0  0.00000000000E+00  0.00000000000E+00  0.11239006954E+03  0.11239006954E+03  0.00000000000E+00 0. -1.
          1   -1    0    0  501    0 -0.00000000000E+00 -0.00000000000E+00 -0.20630433610E+04  0.20630433610E+04  0.00000000000E+00 0. -1.
         25    2    1    2    0    0  0.14441723301E+03  0.41337876241E+03 -0.76719971950E+03  0.89216435947E+03  0.12499398510E+03 0.  0.
          2    1    1    2  501    0 -0.13125372867E+03 -0.30681526403E+03 -0.10932068383E+04  0.11430067099E+04  0.00000000000E+00 0. -1.
          1    1    1    2  502    0 -0.13163504342E+02 -0.10656349839E+03 -0.90246733705E+02  0.14026236124E+03  0.00000000000E+00 0. -1.
         22    1    3    3    0    0  0.13803000522E+03  0.42045796948E+03 -0.76230781888E+03  0.88144789816E+03  0.00000000000E+00 0. -1.
         22    1    3    3    0    0  0.63872277896E+01 -0.70792070650E+01 -0.48919006188E+01  0.10716461318E+02  0.00000000000E+00 0. -1.
</event>
<event>
 7    1  0.4822463E-005  0.5902669E+03  0.7818608E-02  0.1119240E+00
          2   -1    0    0  502    0  0.00000000000E+00  0.00000000000E+00  0.95016701100E+03  0.95016701100E+03  0.00000000000E+00 0. -1.
          1   -1    0    0  501    0 -0.00000000000E+00 -0.00000000000E+00 -0.19253586844E+04  0.19253586844E+04  0.00000000000E+00 0. -1.
         25    2    1    2    0    0  0.31731036152E+03  0.45616904727E+03 -0.10383984431E+04  0.11843422934E+04  0.12497710252E+03 0.  0.
          2    1    1    2  501    0  0.94230050968E+02 -0.27854009927E+02 -0.70966033437E+03  0.71643069347E+03  0.00000000000E+00 0. -1.
          1    1    1    2  502    0 -0.41154041249E+03 -0.42831503734E+03  0.77286710403E+03  0.97475270854E+03  0.00000000000E+00 0. -1.
         22    1    3    3    0    0  0.10891862424E+03  0.26402507258E+03 -0.54581196279E+03  0.61602208108E+03  0.00000000000E+00 0. -1.
         22    1    3    3    0    0  0.20839173728E+03  0.19214397469E+03 -0.49258648027E+03  0.56832021231E+03  0.00000000000E+00 0. -1.
</event>
<event>
 7    1  0.4822463E-005  0.6545602E+03  0.7818608E-02  0.1220943E+00
          2   -1    0    0  502    0  0.00000000000E+00  0.00000000000E+00  0.97305174852E+03  0.97305174852E+03  0.00000000000E+00 0. -1.
          1   -1    0    0  501    0 -0.00000000000E+00 -0.00000000000E+00 -0.17816644001E+04  0.17816644001E+04  0.00000000000E+00 0. -1.
         25    2    1    2    0    0  0.15671097615E+03 -0.63410390272E+03  0.77133389822E+03  0.10184427557E+04  0.12499429837E+03 0.  0.
          2    1    1    2  501    0 -0.16429950241E+02 -0.22217710788E+02 -0.19861558280E+03  0.20052860063E+03  0.00000000000E+00 0. -1.
          1    1    1    2  502    0 -0.14028102591E+03  0.65632161351E+03 -0.13813309670E+04  0.15357447922E+04  0.00000000000E+00 0. -1.
         22    1    3    3    0    0  0.35927778018E+01 -0.26199603383E+03  0.32606258982E+03  0.41829611793E+03  0.00000000000E+00 0. -1.
         22    1    3    3    0    0  0.15311819835E+03 -0.37210786889E+03  0.44527130841E+03  0.60014663779E+03  0.00000000000E+00 0. -1.
</event>
<event>
 7    1  0.4822463E-005  0.1556595E+03  0.7818608E-02  0.1222131E+00
          2   -1    0    0  502    0  0.00000000000E+00  0.00000000000E+00  0.27788405622E+03  0.27788405622E+03  0.00000000000E+00 0. -1.
          1   -1    0    0  501    0 -0.00000000000E+00 -0.00000000000E+00 -0.57015828384E+03  0.57015828384E+03  0.00000000000E+00 0. -1.
         25    2    1    2    0    0 -0.16351767896E+03  0.27869860250E+02  0.77474752113E+02  0.22168082851E+03  0.12500116828E+03 0.  0.
          2    1    1    2  501    0  0.99380434227E+02 -0.12303621355E+03 -0.45609847599E+03  0.48274237472E+03  0.00000000000E+00 0. -1.
          1    1    1    2  502    0  0.64137244733E+02  0.95166353301E+02  0.86349496253E+02  0.14361913684E+03  0.00000000000E+00 0. -1.
         22    1    3    3    0    0 -0.10982703483E+03 -0.22606621731E+02 -0.35121340203E+01  0.11218454444E+03  0.00000000000E+00 0. -1.
         22    1    3    3    0    0 -0.53690644132E+02  0.50476481982E+02  0.80986886133E+02  0.10949628407E+03  0.00000000000E+00 0. -1.
</event>
<event>
 7    1  0.4822463E-005  0.2178437E+03  0.7818608E-02  0.1176895E+00
          2   -1    0    0  502    0  0.00000000000E+00  0.00000000000E+00  0.23732911677E+04  0.23732911677E+04  0.00000000000E+00 0. -1.
          1   -1    0    0  501    0 -0.00000000000E+00 -0.00000000000E+00 -0.59156966529E+03  0.59156966529E+03  0.00000000000E+00 0. -1.
         25    2    1    2    0    0 -0.23683030474E+03 -0.24647578406E+03  0.39647171221E+03  0.53819432098E+03  0.12499761271E+03 0.  0.
          2    1    1    2  501    0  0.89041741573E+02  0.10027018281E+03 -0.50628437784E+03  0.52374269689E+03  0.00000000000E+00 0. -1.
          1    1    1    2  502    0  0.14778856317E+03  0.14620560126E+03  0.18915341680E+04  0.19029238151E+04  0.00000000000E+00 0. -1.
         22    1    3    3    0    0 -0.68243998886E+02 -0.77605418292E+02  0.43480836177E+02  0.11211791760E+03  0.00000000000E+00 0.  1.
         22    1    3    3    0    0 -0.16858630585E+03 -0.16887036577E+03  0.35299087604E+03  0.42607640338E+03  0.00000000000E+00 0.  1.
</event>
<event>
 7    1  0.4822463E-005  0.4776093E+03  0.7818608E-02  0.1151883E+00
          2   -1    0    0  502    0  0.00000000000E+00  0.00000000000E+00  0.52181694185E+03  0.52181694185E+03  0.00000000000E+00 0. -1.
          1   -1    0    0  501    0 -0.00000000000E+00 -0.00000000000E+00 -0.10107347239E+04  0.10107347239E+04  0.00000000000E+00 0. -1.
         25    2    1    2    0    0 -0.21655831673E+03 -0.47356034836E+03 -0.37559970302E+03  0.65410662608E+03  0.12499373302E+03 0.  0.
          2    1    1    2  501    0  0.21411217984E+03  0.39194383720E+03 -0.38816659974E+03  0.59172401188E+03  0.00000000000E+00 0. -1.
          1    1    1    2  502    0  0.24461368902E+01  0.81616511152E+02  0.27484852068E+03  0.28672102783E+03  0.00000000000E+00 0. -1.
         22    1    3    3    0    0 -0.17929636978E+03 -0.37156180242E+03 -0.22958500569E+03  0.47213836539E+03  0.00000000000E+00 0.  1.
         22    1    3    3    0    0 -0.37261946953E+02 -0.10199854594E+03 -0.14601469733E+03  0.18196826069E+03  0.00000000000E+00 0.  1.
</event>
<event>
 7    1  0.4822463E-005  0.2769982E+03  0.7818608E-02  0.1181443E+00
          2   -1    0    0  502    0  0.00000000000E+00  0.00000000000E+00  0.20940085525E+04  0.20940085525E+04  0.00000000000E+00 0. -1.
          1   -1    0    0  501    0 -0.00000000000E+00 -0.00000000000E+00 -0.26414547530E+03  0.26414547530E+03  0.00000000000E+00 0. -1.
         25    2    1    2    0    0 -0.68582150198E+02 -0.36127272441E+03  0.17002367148E+04  0.17440332168E+04  0.12500192926E+03 0.  0.
          2    1    1    2  501    0  0.23304599105E+02  0.27188717983E+03 -0.15398325934E+03  0.31333143323E+03  0.00000000000E+00 0. -1.
          1    1    1    2  502    0  0.45277551093E+02  0.89385544586E+02  0.28360962176E+03  0.30078937776E+03  0.00000000000E+00 0. -1.
         22    1    3    3    0    0  0.24331266136E+02 -0.18061541530E+03  0.69682137328E+03  0.72025965111E+03  0.00000000000E+00 0.  1.
         22    1    3    3    0    0 -0.92913416334E+02 -0.18065730912E+03  0.10034153415E+04  0.10237735657E+04  0.00000000000E+00 0.  1.
</event>
<event>
 7    1  0.4822463E-005  0.4638711E+02  0.7818608E-02  0.1533077E+00
          2   -1    0    0  502    0  0.00000000000E+00  0.00000000000E+00  0.97510421903E+03  0.97510421903E+03  0.00000000000E+00 0. -1.
          1   -1    0    0  501    0 -0.00000000000E+00 -0.00000000000E+00 -0.20801188436E+03  0.20801188436E+03  0.00000000000E+00 0. -1.
         25    2    1    2    0    0  0.26315777693E+01  0.60013895849E+02  0.37861381241E+03  0.40321327429E+03  0.12499573082E+03 0.  0.
          2    1    1    2  501    0 -0.22471423074E+02 -0.18666233148E+02 -0.19371523489E+03  0.19590555210E+03  0.00000000000E+00 0. -1.
          1    1    1    2  502    0  0.19839845305E+02 -0.41347662701E+02  0.58219375715E+03  0.58399727700E+03  0.00000000000E+00 0. -1.
         22    1    3    3    0    0 -0.34121525779E+02  0.61495090651E+02  0.10041445580E+03  0.12259277152E+03  0.00000000000E+00 0. -1.
         22    1    3    3    0    0  0.36753103548E+02 -0.14811948020E+01  0.27819935661E+03  0.28062050277E+03  0.00000000000E+00 0. -1.
</event>
<event>
 7    1  0.4822463E-005  0.7666216E+02  0.7818608E-02  0.1426692E+00
          2   -1    0    0  502    0  0.00000000000E+00  0.00000000000E+00  0.11374313239E+03  0.11374313239E+03  0.00000000000E+00 0. -1.
          1   -1    0    0  501    0 -0.00000000000E+00 -0.00000000000E+00 -0.33495696571E+03  0.33495696571E+03  0.00000000000E+00 0. -1.
         25    2    1    2    0    0  0.50453675084E+02  0.33344869264E+02 -0.71951346228E+02  0.15639882691E+03  0.12500457271E+03 0.  0.
          2    1    1    2  501    0 -0.90804786984E+01  0.36401657824E+02 -0.19542143723E+03  0.19899013522E+03  0.00000000000E+00 0. -1.
          1    1    1    2  502    0 -0.41373196386E+02 -0.69746527088E+02  0.46158950139E+02  0.93311135980E+02  0.00000000000E+00 0. -1.
         22    1    3    3    0    0  0.85415130782E+02  0.39718108459E+02 -0.24897473985E+02  0.97432832849E+02  0.00000000000E+00 0. -1.
         22    1    3    3    0    0 -0.34961455698E+02 -0.63732391953E+01 -0.47053872243E+02  0.58965994060E+02  0.00000000000E+00 0. -1.
</event>
<event>
 7    1  0.4822463E-005  0.9044163E+02  0.7818608E-02  0.1433623E+00
          2   -1    0    0  502    0  0.00000000000E+00  0.00000000000E+00  0.20696391967E+04  0.20696391967E+04  0.00000000000E+00 0. -1.
          1   -1    0    0  501    0 -0.00000000000E+00 -0.00000000000E+00 -0.10269083545E+03  0.10269083545E+03  0.00000000000E+00 0. -1.
         25    2    1    2    0    0 -0.43418482629E+02  0.95440197672E+02  0.18763841376E+04  0.18834639726E+04  0.12500043379E+03 0.  0.
          2    1    1    2  501    0  0.58156689357E+02 -0.69110472205E+02 -0.76948637363E+02  0.11865728245E+03  0.00000000000E+00 0. -1.
          1    1    1    2  502    0 -0.14738206727E+02 -0.26329725467E+02  0.16751286104E+03  0.17020877708E+03  0.00000000000E+00 0. -1.
         22    1    3    3    0    0 -0.32380964434E+02 -0.25647407602E+02  0.43132082339E+03  0.43329432152E+03  0.00000000000E+00 0.  1.
         22    1    3    3    0    0 -0.11037518195E+02  0.12108760527E+03  0.14450633142E+04  0.14501696511E+04  0.00000000000E+00 0.  1.
</event>
<event>
 7    1  0.4822463E-005  0.3063864E+03  0.7818608E-02  0.1108146E+00
          2   -1    0    0  502    0  0.00000000000E+00  0.00000000000E+00  0.10151199585E+04  0.10151199585E+04  0.00000000000E+00 0. -1.
          1   -1    0    0  501    0 -0.00000000000E+00 -0.00000000000E+00 -0.13524026497E+04  0.13524026497E+04  0.00000000000E+00 0. -1.
         25    2    1    2    0    0  0.13632618027E+03 -0.26554007374E+03  0.27358702576E+03  0.42376646349E+03  0.12502718397E+03 0.  0.
          2    1    1    2  501    0  0.78639141641E+02  0.30070856894E+03 -0.12398028152E+04  0.12781708723E+04  0.00000000000E+00 0. -1.
          1    1    1    2  502    0 -0.21496532191E+03 -0.35168495199E+02  0.62893309836E+03  0.66558527245E+03  0.00000000000E+00 0. -1.
         22    1    3    3    0    0  0.11080245905E+03 -0.26773273190E+03  0.21814379568E+03  0.36269093766E+03  0.00000000000E+00 0. -1.
         22    1    3    3    0    0  0.25523721216E+02  0.21926581659E+01  0.55443230080E+02  0.61075525837E+02  0.00000000000E+00 0. -1.
</event>
<event>
 7    1  0.4822463E-005  0.2480528E+03  0.7818608E-02  0.1179632E+00
          2   -1    0    0  502    0  0.00000000000E+00  0.00000000000E+00  0.26492549864E+04  0.26492549864E+04  0.00000000000E+00 0. -1.
          1   -1    0    0  501    0 -0.00000000000E+00 -0.00000000000E+00 -0.15503597034E+03  0.15503597034E+03  0.00000000000E+00 0. -1.
         25    2    1    2    0    0 -0.23907762859E+03  0.17612392224E+02  0.48020882978E+01  0.27040128150E+03  0.12500193652E+03 0.  0.
          2    1    1    2  501    0  0.35127647640E+03  0.36148985072E+01  0.16694943043E+04  0.17060537689E+04  0.00000000000E+00 0. -1.
          1    1    1    2  502    0 -0.11219884781E+03 -0.21227290731E+02  0.81992262348E+03  0.82783590633E+03  0.00000000000E+00 0. -1.
         22    1    3    3    0    0 -0.39433533225E+02 -0.43925119121E+02  0.16093160900E+02  0.61183408374E+02  0.00000000000E+00 0.  1.
         22    1    3    3    0    0 -0.19964409536E+03  0.61537511345E+02 -0.11291072603E+02  0.20921787313E+03  0.00000000000E+00 0.  1.
</event>
<event>
 7    1  0.4822463E-005  0.1590662E+04  0.7818608E-02  0.1094253E+00
          2   -1    0    0  502    0  0.00000000000E+00  0.00000000000E+00  0.32370786827E+04  0.32370786827E+04  0.00000000000E+00 0. -1.
          1   -1    0    0  501    0 -0.00000000000E+00 -0.00000000000E+00 -0.27156380173E+04  0.27156380173E+04  0.00000000000E+00 0. -1.
         25    2    1    2    0    0  0.17544609258E+03  0.16007587103E+04 -0.32040568116E+03  0.16466616504E+04  0.12500004179E+03 0.  0.
          2    1    1    2  501    0 -0.21160949017E+03 -0.15659081791E+04 -0.13713825077E+04  0.20922564336E+04  0.00000000000E+00 0. -1.
          1    1    1    2  502    0  0.36163397596E+02 -0.34850531200E+02  0.22132288542E+04  0.22137986159E+04  0.00000000000E+00 0. -1.
         22    1    3    3    0    0  0.77112064305E+02  0.45025302746E+03 -0.14123256880E+03  0.47814296784E+03  0.00000000000E+00 0. -1.
         22    1    3    3    0    0  0.98334028274E+02  0.11505056828E+04 -0.17917311235E+03  0.11685186826E+04  0.00000000000E+00 0. -1.
</event>
<event>
 7    1  0.4822463E-005  0.3762581E+03  0.7818608E-02  0.1117885E+00
          2   -1    0    0  502    0  0.00000000000E+00  0.00000000000E+00  0.33395845380E+03  0.33395845380E+03  0.00000000000E+00 0. -1.
          1   -1    0    0  501    0 -0.00000000000E+00 -0.00000000000E+00 -0.92952951039E+03  0.92952951039E+03  0.00000000000E+00 0. -1.
         25    2    1    2    0    0 -0.29848376604E+03  0.29703379676E+03 -0.26539891492E+02  0.44005629582E+03  0.12499417043E+03 0.  0.
          2    1    1    2  501    0  0.34030827011E+03 -0.14592550063E+03 -0.55342083523E+03  0.66586679697E+03  0.00000000000E+00 0. -1.
          1    1    1    2  502    0 -0.41824504074E+02 -0.15110829614E+03 -0.15610329876E+02  0.15756487141E+03  0.00000000000E+00 0. -1.
         22    1    3    3    0    0 -0.33694450453E+02  0.10151663557E+03 -0.29266857979E+02  0.11089405875E+03  0.00000000000E+00 0. -1.
         22    1    3    3    0    0 -0.26478931559E+03  0.19551716119E+03  0.27269664876E+01  0.32916223707E+03  0.00000000000E+00 0. -1.
</event>
<event>
 7    1  0.4822463E-005  0.3334650E+02  0.7818608E-02  0.1613783E+00
          2   -1    0    0  502    0  0.00000000000E+00  0.00000000000E+00  0.10512050025E+02  0.10512050025E+02  0.00000000000E+00 0. -1.
          1   -1    0    0  501    0 -0.00000000000E+00 -0.00000000000E+00 -0.18032671544E+04  0.18032671544E+04  0.00000000000E+00 0. -1.
         25    2    1    2    0    0  0.92905737313E+01 -0.92498853444E+01 -0.10216016736E+04  0.10293041617E+04  0.12500081045E+03 0.  0.
          2    1    1    2  501    0  0.24425830978E+02  0.27045208161E+01 -0.73191805156E+03  0.73233050588E+03  0.00000000000E+00 0. -1.
          1    1    1    2  502    0 -0.33716404709E+02  0.65453645283E+01 -0.39235379265E+02  0.52144536908E+02  0.00000000000E+00 0. -1.
         22    1    3    3    0    0  0.47053379318E+02 -0.28578399428E+02 -0.22735147386E+03  0.23392186320E+03  0.00000000000E+00 0.  1.
         22    1    3    3    0    0 -0.37762805586E+02  0.19328514084E+02 -0.79425019973E+03  0.79538229846E+03  0.00000000000E+00 0.  1.
</event>
<event>
 7    1  0.4822463E-005  0.1330632E+04  0.7818608E-02  0.1104813E+00
          2   -1    0    0  502    0  0.00000000000E+00  0.00000000000E+00  0.18844961613E+04  0.18844961613E+04  0.00000000000E+00 0. -1.
          1   -1    0    0  501    0 -0.00000000000E+00 -0.00000000000E+00 -0.13587919109E+04  0.13587919109E+04  0.00000000000E+00 0. -1.
         25    2    1    2    0    0 -0.14102965085E+03 -0.13356782863E+04 -0.58781408231E+03  0.14714201038E+04  0.12500351759E+03 0.  0.
          2    1    1    2  501    0  0.11736249419E+03  0.12889894800E+04  0.96519820408E+03  0.16145821155E+04  0.00000000000E+00 0. -1.
          1    1    1    2  502    0  0.23667156658E+02  0.46688806338E+02  0.14832012873E+03  0.15728585292E+03  0.00000000000E+00 0. -1.
         22    1    3    3    0    0 -0.48542113490E+02 -0.98532422122E+03 -0.42538414240E+03  0.10743238926E+04  0.00000000000E+00 0. -1.
         22    1    3    3    0    0 -0.92487537358E+02 -0.35035406511E+03 -0.16242993991E+03  0.39709621112E+03  0.00000000000E+00 0. -1.
</event>
<event>
 7    1  0.4822463E-005  0.3300119E+03  0.7818608E-02  0.1179369E+00
          2   -1    0    0  502    0  0.00000000000E+00  0.00000000000E+00  0.11471981290E+04  0.11471981290E+04  0.00000000000E+00 0. -1.
          1   -1    0    0  501    0 -0.00000000000E+00 -0.00000000000E+00 -0.18077162547E+04  0.18077162547E+04  0.00000000000E+00 0. -1.
         25    2    1    2    0    0  0.31371193700E+03  0.13038792242E+03  0.42254133795E+03  0.55640119830E+03  0.12499968588E+03 0.  0.
          2    1    1    2  501    0  0.11410361313E+02 -0.85325296784E+02 -0.16986786037E+04  0.17008584895E+04  0.00000000000E+00 0. -1.
          1    1    1    2  502    0 -0.32512229831E+03 -0.45062625635E+02  0.61561914011E+03  0.69765469593E+03  0.00000000000E+00 0. -1.
         22    1    3    3    0    0  0.24072472038E+03  0.63580955111E+02  0.36533203420E+03  0.44210680165E+03  0.00000000000E+00 0. -1.
         22    1    3    3    0    0  0.72987216617E+02  0.66806967307E+02  0.57209303754E+02  0.11429439665E+03  0.00000000000E+00 0. -1.
</event>
<event>
 7    1  0.4822463E-005  0.3926360E+03  0.7818608E-02  0.1068267E+00
          2   -1    0    0  502    0  0.00000000000E+00  0.00000000000E+00  0.21951675907E+04  0.21951675907E+04  0.00000000000E+00 0. -1.
          1   -1    0    0  501    0 -0.00000000000E+00 -0.00000000000E+00 -0.19110644516E+03  0.19110644516E+03  0.00000000000E+00 0. -1.
         25    2    1    2    0    0 -0.21397403570E+03 -0.53659617600E+03  0.65450493585E+03  0.88188542024E+03  0.12499935728E+03 0.  0.
          2    1    1    2  501    0 -0.31269250257E+02  0.28680724470E+03  0.40663769036E+03  0.49858838018E+03  0.00000000000E+00 0. -1.
          1    1    1    2  502    0  0.24524328596E+03  0.24978893130E+03  0.94291851933E+03  0.10058002354E+04  0.00000000000E+00 0. -1.
         22    1    3    3    0    0 -0.37883822463E+02 -0.15777949961E+03  0.26495884314E+03  0.31069718869E+03  0.00000000000E+00 0. -1.
         22    1    3    3    0    0 -0.17609021324E+03 -0.37881667640E+03  0.38954609270E+03  0.57118823154E+03  0.00000000000E+00 0. -1.
</event>
<event>
 7    1  0.4822463E-005  0.3239508E+03  0.7818608E-02  0.1173868E+00
          2   -1    0    0  502    0  0.00000000000E+00  0.00000000000E+00  0.77754745624E+03  0.77754745624E+03  0.00000000000E+00 0. -1.
          1   -1    0    0  501    0 -0.00000000000E+00 -0.00000000000E+00 -0.19610784749E+03  0.19610784749E+03  0.00000000000E+00 0. -1.
         25    2    1    2    0    0 -0.19937596128E+03  0.28288301207E+03  0.17931226608E+03  0.40933008767E+03  0.12499863782E+03 0.  0.
          2    1    1    2  501    0  0.10606873990E+03 -0.28121305343E+03  0.33019702048E+03  0.44649908324E+03  0.00000000000E+00 0. -1.
          1    1    1    2  502    0  0.93307221372E+02 -0.16699586334E+01  0.71930322199E+02  0.11782613281E+03  0.00000000000E+00 0. -1.
         22    1    3    3    0    0 -0.63183155089E+02  0.93967629885E+02 -0.34552187965E+01  0.11328709145E+03  0.00000000000E+00 0. -1.
         22    1    3    3    0    0 -0.13619280619E+03  0.18891538218E+03  0.18276748488E+03  0.29604299622E+03  0.00000000000E+00 0. -1.
</event>
<event>
 7    1  0.4822463E-005  0.4414730E+03  0.7818608E-02  0.1031920E+00
          2   -1    0    0  502    0  0.00000000000E+00  0.00000000000E+00  0.11689859896E+04  0.11689859896E+04  0.00000000000E+00 0. -1.
          1   -1    0    0  501    0 -0.00000000000E+00 -0.00000000000E+00 -0.88841269468E+03  0.88841269468E+03  0.00000000000E+00 0. -1.
         25    2    1    2    0    0  0.19435442933E+03 -0.40131600846E+03 -0.53424691888E+03  0.70701681257E+03  0.12499928030E+03 0.  0.
          2    1    1    2  501    0 -0.55150730849E+03  0.16008591931E+03  0.21809666344E+03  0.61429143530E+03  0.00000000000E+00 0. -1.
          1    1    1    2  502    0  0.35715287917E+03  0.24123008916E+03  0.59672355038E+03  0.73609043642E+03  0.00000000000E+00 0. -1.
         22    1    3    3    0    0  0.12895018134E+03 -0.16540455487E+03 -0.31468558691E+03  0.37817169996E+03  0.00000000000E+00 0.  1.
         22    1    3    3    0    0  0.65404247981E+02 -0.23591145360E+03 -0.21956133198E+03  0.32884511262E+03  0.00000000000E+00 0.  1.
</event>
<event>
 7    1  0.4822463E-005  0.1369241E+03  0.7818608E-02  0.1271651E+00
          2   -1    0    0  502    0  0.00000000000E+00  0.00000000000E+00  0.24956693410E+03  0.24956693410E+03  0.00000000000E+00 0. -1.
          1   -1    0    0  501    0 -0.00000000000E+00 -0.00000000000E+00 -0.11118962297E+04  0.11118962297E+04  0.00000000000E+00 0. -1.
         25    2    1    2    0    0  0.96123003565E+01  0.14310912421E+03 -0.28900867934E+03  0.34601773850E+03  0.12501856211E+03 0.  0.
          2    1    1    2  501    0  0.72481276504E+02 -0.32262255569E+02 -0.77062938404E+03  0.77470254687E+03  0.00000000000E+00 0. -1.
          1    1    1    2  502    0 -0.82093576861E+02 -0.11084686864E+03  0.19730876780E+03  0.24074287840E+03  0.00000000000E+00 0. -1.
         22    1    3    3    0    0  0.18737173286E+02  0.20217843427E+02  0.42770070855E+01  0.27895082814E+02  0.00000000000E+00 0.  1.
         22    1    3    3    0    0 -0.91248729295E+01  0.12289128079E+03 -0.29328568643E+03  0.31812265569E+03  0.00000000000E+00 0.  1.
</event>
<event>
 7    1  0.4822463E-005  0.1806577E+03  0.7818608E-02  0.1227177E+00
          2   -1    0    0  502    0  0.00000000000E+00  0.00000000000E+00  0.24248619623E+03  0.24248619623E+03  0.00000000000E+00 0. -1.
          1   -1    0    0  501    0 -0.00000000000E+00 -0.00000000000E+00 -0.16578330920E+04  0.16578330920E+04  0.00000000000E+00 0. -1.
         25    2    1    2    0    0 -0.77904174174E+02 -0.20849507574E+03 -0.25714098995E+03  0.36233434571E+03  0.12500172963E+03 0.  0.
          2    1    1    2  501    0 -0.45982330282E+02  0.81776336914E+02 -0.13046939263E+04  0.13080626841E+04  0.00000000000E+00 0. -1.
          1    1    1    2  502    0  0.12388650446E+03  0.12671873882E+03  0.14648802055E+03  0.22992225843E+03  0.00000000000E+00 0. -1.
         22    1    3    3    0    0 -0.53819743193E+02 -0.14413118071E+02 -0.85913251735E+02  0.10239819116E+03  0.00000000000E+00 0. -1.
         22    1    3    3    0    0 -0.24084430981E+02 -0.19408195767E+03 -0.17122773821E+03  0.25993615455E+03  0.00000000000E+00 0. -1.
</event>
<event>
 7    1  0.4822463E-005  0.1068330E+04  0.7818608E-02  0.1146981E+00
          2   -1    0    0  502    0  0.00000000000E+00  0.00000000000E+00  0.17832179491E+04  0.17832179491E+04  0.00000000000E+00 0. -1.
          1   -1    0    0  501    0 -0.00000000000E+00 -0.00000000000E+00 -0.14356544458E+04  0.14356544458E+04  0.00000000000E+00 0. -1.
         25    2    1    2    0    0  0.97203116390E+03 -0.48235154976E+03  0.74885839165E+03  0.13243569185E+04  0.12499902249E+03 0.  0.
          2    1    1    2  501    0 -0.36851145401E+02  0.11782386235E+02 -0.78019908938E+03  0.78115776295E+03  0.00000000000E+00 0. -1.
          1    1    1    2  502    0 -0.93518001850E+03  0.47056916352E+03  0.37890420103E+03  0.11133577135E+04  0.00000000000E+00 0. -1.
         22    1    3    3    0    0  0.47671747165E+03 -0.25559725794E+03  0.44602433858E+03  0.70109002036E+03  0.00000000000E+00 0. -1.
         22    1    3    3    0    0  0.49531369225E+03 -0.22675429182E+03  0.30283405307E+03  0.62326689811E+03  0.00000000000E+00 0. -1.
</event>
<event>
 7    1  0.4822463E-005  0.1571108E+03  0.7818608E-02  0.1222565E+00
          2   -1    0    0  502    0  0.00000000000E+00  0.00000000000E+00  0.31260633351E+04  0.31260633351E+04  0.00000000000E+00 0. -1.
          1   -1    0    0  501    0 -0.00000000000E+00 -0.00000000000E+00 -0.52976996985E+02  0.52976996985E+02  0.00000000000E+00 0. -1.
         25    2    1    2    0    0  0.15128075696E+03  0.20578555060E+03  0.64685258390E+03  0.70659528681E+03  0.12500029512E+03 0.  0.
          2    1    1    2  501    0 -0.40135250567E+02 -0.10583083055E+03  0.13426838528E+03  0.17561037076E+03  0.00000000000E+00 0. -1.
          1    1    1    2  502    0 -0.11114550640E+03 -0.99954720052E+02  0.22919653689E+04  0.22968346745E+04  0.00000000000E+00 0. -1.
         22    1    3    3    0    0  0.15324066702E+02  0.12427739812E+03  0.26246999457E+03  0.29080955410E+03  0.00000000000E+00 0. -1.
         22    1    3    3    0    0  0.13595669026E+03  0.81508152480E+02  0.38438258933E+03  0.41578573271E+03  0.00000000000E+00 0. -1.
</event>
<event>
 7    1  0.4822463E-005  0.2318715E+03  0.7818608E-02  0.1194527E+00
          2   -1    0    0  502    0  0.00000000000E+00  0.00000000000E+00  0.20542090208E+04  0.20542090208E+04  0.00000000000E+00 0. -1.
          1   -1    0    0  501    0 -0.00000000000E+00 -0.00000000000E+00 -0.19416450993E+03  0.19416450993E+03  0.00000000000E+00 0. -1.
         25    2    1    2    0    0  0.24857122334E+03 -0.17891922009E+03  0.32610304646E+03  0.46450832119E+03  0.12500017259E+03 0.  0.
          2    1    1    2  501    0 -0.19545034881E+03  0.90047050106E+02 -0.29315188122E+02  0.21718354067E+03  0.00000000000E+00 0. -1.
          1    1    1    2  502    0 -0.53120874527E+02  0.88872169988E+02  0.15632566525E+04  0.15666816689E+04  0.00000000000E+00 0. -1.
         22    1    3    3    0    0  0.96108862730E+02 -0.73503799458E+02  0.21961546278E+03  0.25074025110E+03  0.00000000000E+00 0.  1.
         22    1    3    3    0    0  0.15246236061E+03 -0.10541542064E+03  0.10648758369E+03  0.21376807009E+03  0.00000000000E+00 0.  1.
</event>
<event>
 7    1  0.4822463E-005  0.1056931E+04  0.7818608E-02  0.1104341E+00
          2   -1    0    0  502    0  0.00000000000E+00  0.00000000000E+00  0.14301769357E+04  0.14301769357E+04  0.00000000000E+00 0. -1.
          1   -1    0    0  501    0 -0.00000000000E+00 -0.00000000000E+00 -0.10602744529E+04  0.10602744529E+04  0.00000000000E+00 0. -1.
         25    2    1    2    0    0 -0.41638230823E+03  0.10241160227E+04  0.70850449339E+03  0.13190116977E+04  0.12500154744E+03 0.  0.
          2    1    1    2  501    0  0.39297633743E+03 -0.96208344682E+03 -0.36295850877E+03  0.11008059954E+04  0.00000000000E+00 0. -1.
          1    1    1    2  502    0  0.23405970799E+02 -0.62032575875E+02  0.24356498140E+02  0.70633695503E+02  0.00000000000E+00 0. -1.
         22    1    3    3    0    0 -0.17154834005E+03  0.44826345720E+03  0.23561152800E+03  0.53467911139E+03  0.00000000000E+00 0. -1.
         22    1    3    3    0    0 -0.24483396818E+03  0.57585256549E+03  0.47289296539E+03  0.78433258626E+03  0.00000000000E+00 0. -1.
</event>
<event>
 7    1  0.4822463E-005  0.2788550E+03  0.7818608E-02  0.1163699E+00
          2   -1    0    0  502    0  0.00000000000E+00  0.00000000000E+00  0.26538199191E+04  0.26538199191E+04  0.00000000000E+00 0. -1.
          1   -1    0    0  501    0 -0.00000000000E+00 -0.00000000000E+00 -0.11164668941E+03  0.11164668941E+03  0.00000000000E+00 0. -1.
         25    2    1    2    0    0  0.15048474442E+03  0.32439947718E+03  0.21675160018E+04  0.22003712905E+04  0.12501007376E+03 0.  0.
          2    1    1    2  501    0 -0.42267359544E+02 -0.26847000827E+03  0.15226033362E+03  0.31152188401E+03  0.00000000000E+00 0. -1.
          1    1    1    2  502    0 -0.10821738487E+03 -0.55929468907E+02  0.22239689418E+03  0.25357343399E+03  0.00000000000E+00 0. -1.
         22    1    3    3    0    0  0.86978606393E+02  0.15426584739E+03  0.71773536871E+03  0.73926131316E+03  0.00000000000E+00 0. -1.
         22    1    3    3    0    0  0.63506138025E+02  0.17013362979E+03  0.14497806331E+04  0.14611099773E+04  0.00000000000E+00 0. -1.
</event>
<event>
 7    1  0.4822463E-005  0.3813800E+03  0.7818608E-02  0.1277333E+00
          2   -1    0    0  502    0  0.00000000000E+00  0.00000000000E+00  0.21530816488E+04  0.21530816488E+04  0.00000000000E+00 0. -1.
          1   -1    0    0  501    0 -0.00000000000E+00 -0.00000000000E+00 -0.15217777302E+03  0.15217777302E+03  0.00000000000E+00 0. -1.
         25    2    1    2    0    0 -0.17876105676E+03 -0.33437119289E+03  0.47658965071E+03  0.62170636086E+03  0.12498597491E+03 0.  0.
          2    1    1    2  501    0 -0.24744706762E+02  0.10732179827E+02 -0.53590509526E+02  0.59995190706E+02  0.00000000000E+00 0. -1.
          1    1    1    2  502    0  0.20350576352E+03  0.32363901306E+03  0.15779047346E+04  0.16235578703E+04  0.00000000000E+00 0. -1.
         22    1    3    3    0    0 -0.39202850792E+02 -0.20228417415E+03  0.26879078965E+03  0.33868014294E+03  0.00000000000E+00 0.  1.
         22    1    3    3    0    0 -0.13955820597E+03 -0.13208701874E+03  0.20779886106E+03  0.28302621792E+03  0.00000000000E+00 0.  1.
</event>
<event>
 7    1  0.4822463E-005  0.3721303E+03  0.7818608E-02  0.1059915E+00
          2   -1    0    0  502    0  0.00000000000E+00  0.00000000000E+00  0.62134389361E+03  0.62134389361E+03  0.00000000000E+00 0. -1.
          1   -1    0    0  501    0 -0.00000000000E+00 -0.00000000000E+00 -0.11819311021E+04  0.11819311021E+04  0.00000000000E+00 0. -1.
         25    2    1    2    0    0  0.16944161283E+03 -0.20384568343E+03  0.75554728502E+02  0.30264788839E+03  0.12499481804E+03 0.  0.
          2    1    1    2  501    0  0.64000805588E+02 -0.33578538168E+03 -0.81687786032E+03  0.88551531006E+03  0.00000000000E+00 0. -1.
          1    1    1    2  502    0 -0.23344241842E+03  0.53963106511E+03  0.18073592332E+03  0.61511179726E+03  0.00000000000E+00 0. -1.
         22    1    3    3    0    0  0.55443339910E+02 -0.76721773319E+01  0.48663719820E+02  0.74168617839E+02  0.00000000000E+00 0. -1.
         22    1    3    3    0    0  0.11399827292E+03 -0.19617350610E+03  0.26891008682E+02  0.22847927055E+03  0.00000000000E+00 0. -1.
</event>
<event>
 7    1  0.4822463E-005  0.8271893E+03  0.7818608E-02  0.1207985E+00
          2   -1    0    0  502    0  0.00000000000E+00  0.00000000000E+00  0.24875732219E+04  0.24875732219E+04  0.00000000000E+00 0. -1.
          1   -1    0    0  501    0 -0.00000000000E+00 -0.00000000000E+00 -0.48437030397E+03  0.48437030397E+03  0.00000000000E+00 0. -1.
         25    2    1    2    0    0 -0.32568216134E+03  0.77637435675E+03  0.75186418462E+03  0.11356720767E+04  0.12500120639E+03 0.  0.
          2    1    1    2  501    0  0.17945045938E+02 -0.17527171836E+02 -0.18296295203E+03  0.18467449267E+03  0.00000000000E+00 0. -1.
          1    1    1    2  502    0  0.30773711540E+03 -0.75884718491E+03  0.14343016853E+04  0.16515969565E+04  0.00000000000E+00 0. -1.
         22    1    3    3    0    0 -0.62978080072E+02  0.25097126059E+03  0.28816590099E+03  0.38728852127E+03  0.00000000000E+00 0. -1.
         22    1    3    3    0    0 -0.26270408126E+03  0.52540309615E+03  0.46369828363E+03  0.74838355541E+03  0.00000000000E+00 0. -1.
</event>
<event>
 7    1  0.4822463E-005  0.7401047E+02  0.7818608E-02  0.1397244E+00
          2   -1    0    0  502    0  0.00000000000E+00  0.00000000000E+00  0.74514595635E+02  0.74514595635E+02  0.00000000000E+00 0. -1.
          1   -1    0    0  501    0 -0.00000000000E+00 -0.00000000000E+00 -0.38595014072E+03  0.38595014072E+03  0.00000000000E+00 0. -1.
         25    2    1    2    0    0  0.38607362822E+02  0.30779018247E+02 -0.18208831404E+03  0.22631649543E+03  0.12500050227E+03 0.  0.
          2    1    1    2  501    0 -0.40103384852E+02 -0.79625603235E+02 -0.15510778390E+03  0.17890484285E+03  0.00000000000E+00 0. -1.
          1    1    1    2  502    0  0.14960220302E+01  0.48846584987E+02  0.25760552860E+02  0.55243398071E+02  0.00000000000E+00 0. -1.
         22    1    3    3    0    0 -0.34128036948E+02 -0.42276804894E+01 -0.93332402022E+01  0.35632928043E+02  0.00000000000E+00 0. -1.
         22    1    3    3    0    0  0.72735399770E+02  0.35006698737E+02 -0.17275507384E+03  0.19068356739E+03  0.00000000000E+00 0. -1.
</event>
<event>
 7    1  0.4822463E-005  0.8172242E+02  0.7818608E-02  0.1355835E+00
          2   -1    0    0  502    0  0.00000000000E+00  0.00000000000E+00  0.97468760983E+03  0.97468760983E+03  0.00000000000E+00 0. -1.
          1   -1    0    0  501    0 -0.00000000000E+00 -0.00000000000E+00 -0.15555619470E+03  0.15555619470E+03  0.00000000000E+00 0. -1.
         25    2    1    2    0    0  0.54280477660E+01  0.20266399497E+02  0.54733607006E+03  0.56182060386E+03  0.12500170672E+03 0.  0.
          2    1    1    2  501    0 -0.14174480061E+02 -0.81798190370E+02 -0.13414359857E+03  0.15775412790E+03  0.00000000000E+00 0. -1.
          1    1    1    2  502    0  0.87464322951E+01  0.61531790873E+02  0.40593894364E+03  0.41066907277E+03  0.00000000000E+00 0. -1.
         22    1    3    3    0    0 -0.10864117029E+02  0.84482539336E+01  0.54033547670E+03  0.54051071166E+03  0.00000000000E+00 0. -1.
         22    1    3    3    0    0  0.16292164795E+02  0.11818145564E+02  0.70005933544E+01  0.21309892201E+02  0.00000000000E+00 0. -1.
</event>
<event>
 7    1  0.4822463E-005  0.3245166E+03  0.7818608E-02  0.1265422E+00
          2   -1    0    0  502    0  0.00000000000E+00  0.00000000000E+00  0.14800499026E+04  0.14800499026E+04  0.00000000000E+00 0. -1.
          1   -1    0    0  501    0 -0.00000000000E+00 -0.00000000000E+00 -0.13016281243E+04  0.13016281243E+04  0.00000000000E+00 0. -1.
         25    2    1    2    0    0  0.34179776085E+03 -0.35839088309E+02 -0.56130659708E+03  0.66992564133E+03  0.12500047767E+03 0.  0.
          2    1    1    2  501    0 -0.31169480783E+03  0.16913103811E+02 -0.65026338558E+03  0.72130588306E+03  0.00000000000E+00 0. -1.
          1    1    1    2  502    0 -0.30102953026E+02  0.18925984498E+02  0.13899917609E+04  0.13904465024E+04  0.00000000000E+00 0. -1.
         22    1    3    3    0    0  0.20599808310E+02 -0.31201890774E+02 -0.10838882519E+03  0.11465621447E+03  0.00000000000E+00 0. -1.
         22    1    3    3    0    0  0.32119795254E+03 -0.46371975351E+01 -0.45291777188E+03  0.55526942686E+03  0.00000000000E+00 0. -1.
</event>
<event>
 7    1  0.4822463E-005  0.2267184E+03  0.7818608E-02  0.1286210E+00
          2   -1    0    0  502    0  0.00000000000E+00  0.00000000000E+00  0.11049764646E+03  0.11049764646E+03  0.00000000000E+00 0. -1.
          1   -1    0    0  501    0 -0.00000000000E+00 -0.00000000000E+00 -0.18151412957E+04  0.18151412957E+04  0.00000000000E+00 0. -1.
         25    2    1    2    0    0  0.39186585954E+02 -0.21990731513E+03 -0.18696425208E+03  0.31697815759E+03  0.12499882027E+03 0.  0.
          2    1    1    2  501    0 -0.39703130235E+02 -0.12769156123E+02 -0.12630318455E+04  0.12637202351E+04  0.00000000000E+00 0. -1.
          1    1    1    2  502    0  0.51654428079E+00  0.23267647125E+03 -0.25464755171E+03  0.34494054949E+03  0.00000000000E+00 0. -1.
         22    1    3    3    0    0  0.18941967999E+02  0.31779004612E+01  0.72262046477E+01  0.20521092481E+02  0.00000000000E+00 0. -1.
         22    1    3    3    0    0  0.20244617955E+02 -0.22308521559E+03 -0.19419045673E+03  0.29645706511E+03  0.00000000000E+00 0. -1.
</event>
<event>
 7    1  0.4822463E-005  0.3781563E+03  0.7818608E-02  0.1250242E+00
          2   -1    0    0  502    0  0.00000000000E+00  0.00000000000E+00  0.14375478204E+04  0.14375478204E+04  0.00000000000E+00 0. -1.
          1   -1    0    0  501    0 -0.00000000000E+00 -0.00000000000E+00 -0.22803328606E+04  0.22803328606E+04  0.00000000000E+00 0. -1.
         25    2    1    2    0    0 -0.32129196125E+03 -0.22688562230E+03 -0.10323155648E+03  0.42542610910E+03  0.12500004033E+03 0.  0.
          2    1    1    2  501    0 -0.30392015399E+01  0.35312118088E+02 -0.19880524646E+04  0.19883683724E+04  0.00000000000E+00 0. -1.
          1    1    1    2  502    0  0.32433116279E+03  0.19157350421E+03  0.12484989809E+04  0.13040861995E+04  0.00000000000E+00 0. -1.
         22    1    3    3    0    0 -0.17632749584E+03 -0.81612228540E+02 -0.10360768545E+03  0.22019648980E+03  0.00000000000E+00 0.  1.
         22    1    3    3    0    0 -0.14496446541E+03 -0.14527339376E+03  0.37612896963E+00  0.20522961930E+03  0.00000000000E+00 0.  1.
</event>
<event>
 7    1  0.4822463E-005  0.1097407E+04  0.7818608E-02  0.1119236E+00
          2   -1    0    0  502    0  0.00000000000E+00  0.00000000000E+00  0.25318125446E+04  0.25318125446E+04  0.00000000000E+00 0. -1.
          1   -1    0    0  501    0 -0.00000000000E+00 -0.00000000000E+00 -0.65938004200E+03  0.65938004200E+03  0.00000000000E+00 0. -1.
         25    2    1    2    0    0 -0.31403796084E+03 -0.10578209188E+04  0.51808220222E+03  0.12254138326E+04  0.12499982228E+03 0.  0.
          2    1    1    2  501    0 -0.46930157651E+02  0.24313775401E+02 -0.11901859388E+03  0.13022682159E+03  0.00000000000E+00 0. -1.
          1    1    1    2  502    0  0.36096811850E+03  0.10335071434E+04  0.14733688943E+04  0.18355519325E+04  0.00000000000E+00 0. -1.
         22    1    3    3    0    0 -0.75612220038E+02 -0.47183090992E+03  0.21933269316E+03  0.52578364910E+03  0.00000000000E+00 0.  1.
         22    1    3    3    0    0 -0.23842574081E+03 -0.58599000893E+03  0.29874950905E+03  0.69963018346E+03  0.00000000000E+00 0.  1.
</event>
<event>
 7    1  0.4822463E-005  0.9220423E+03  0.7818608E-02  0.1120560E+00
          2   -1    0    0  502    0  0.00000000000E+00  0.00000000000E+00  0.19794893445E+04  0.19794893445E+04  0.00000000000E+00 0. -1.
          1   -1    0    0  501    0 -0.00000000000E+00 -0.00000000000E+00 -0.10009551383E+04  0.10009551383E+04  0.00000000000E+00 0. -1.
         25    2    1    2    0    0  0.58796014104E+03  0.71573996587E+03  0.96494431136E+03  0.13433997680E+04  0.12499834541E+03 0.  0.
          2    1    1    2  501    0  0.40221906750E+02 -0.47016955881E+02 -0.55448007014E+03  0.55792162900E+03  0.00000000000E+00 0. -1.
          1    1    1    2  502    0 -0.62818204779E+03 -0.66872300999E+03  0.56806996504E+03  0.10791230859E+04  0.00000000000E+00 0. -1.
         22    1    3    3    0    0  0.52979910197E+02  0.10494738544E+03  0.78865005075E+02  0.14156452106E+03  0.00000000000E+00 0. -1.
         22    1    3    3    0    0  0.53498023084E+03  0.61079258043E+03  0.88607930628E+03  0.12018352469E+04  0.00000000000E+00 0. -1.
</event>
<event>
 7    1  0.4822463E-005  0.3875230E+02  0.7818608E-02  0.1584150E+00
          2   -1    0    0  502    0  0.00000000000E+00  0.00000000000E+00  0.27377824313E+03  0.27377824313E+03  0.00000000000E+00 0. -1.
          1   -1    0    0  501    0 -0.00000000000E+00 -0.00000000000E+00 -0.55375793897E+03  0.55375793897E+03  0.00000000000E+00 0. -1.
         25    2    1    2    0    0 -0.63619897672E+01 -0.17754850735E+02  0.96305904809E+02  0.15892179874E+03  0.12500240467E+03 0.  0.
          2    1    1    2  501    0 -0.23015581401E+02 -0.10458711018E+02 -0.51929887819E+03  0.51991386451E+03  0.00000000000E+00 0. -1.
          1    1    1    2  502    0  0.29377571168E+02  0.28213561753E+02  0.14301327754E+03  0.14870051885E+03  0.00000000000E+00 0. -1.
         22    1    3    3    0    0  0.41581960528E+02 -0.50372271886E+02  0.33383201169E+02  0.73354368218E+02  0.00000000000E+00 0. -1.
         22    1    3    3    0    0 -0.47943950295E+02  0.32617421150E+02  0.62922703640E+02  0.85567430520E+02  0.00000000000E+00 0. -1.
</event>
<event>
 7    1  0.4822463E-005  0.4969026E+03  0.7818608E-02  0.1188960E+00
          2   -1    0    0  502    0  0.00000000000E+00  0.00000000000E+00  0.15096886477E+04  0.15096886477E+04  0.00000000000E+00 0. -1.
          1   -1    0    0  501    0 -0.00000000000E+00 -0.00000000000E+00 -0.13729488015E+04  0.13729488015E+04  0.00000000000E+00 0. -1.
         25    2    1    2    0    0  0.25984347087E+03  0.38291491220E+03  0.12978409221E+03  0.49660060152E+03  0.12500314995E+03 0.  0.
          2    1    1    2  501    0 -0.25404790681E+03 -0.43395605164E+03 -0.11357957737E+04  0.12421313269E+04  0.00000000000E+00 0. -1.
          1    1    1    2  502    0 -0.57955640545E+01  0.51041139440E+02  0.11427515277E+04  0.11439055208E+04  0.00000000000E+00 0. -1.
         22    1    3    3    0    0  0.16671567751E+03  0.13623676860E+03  0.68032148769E+02  0.22579403782E+03  0.00000000000E+00 0.  1.
         22    1    3    3    0    0  0.93127793356E+02  0.24667814360E+03  0.61751943445E+02  0.27080656370E+03  0.00000000000E+00 0.  1.
</event>
<event>
 7    1  0.4822463E-005  0.7607416E+03  0.7818608E-02  0.1143397E+00
          2   -1    0    0  502    0  0.00000000000E+00  0.00000000000E+00  0.15370375718E+04  0.15370375718E+04  0.00000000000E+00 0. -1.
          1   -1    0    0  501    0 -0.00000000000E+00 -0.00000000000E+00 -0.13272518842E+04  0.13272518842E+04  0.00000000000E+00 0. -1.
         25    2    1    2    0    0  0.70892105782E+03  0.25412144667E+03 -0.68008070628E+03  0.10223902783E+04  0.12500135268E+03 0.  0.
          2    1    1    2  501    0 -0.71109972984E+03 -0.31078861675E+03 -0.15844183650E+03  0.79205820849E+03  0.00000000000E+00 0. -1.
          1    1    1    2  502    0  0.21786720195E+01  0.56667170080E+02  0.10483082304E+04  0.10498409692E+04  0.00000000000E+00 0. -1.
         22    1    3    3    0    0  0.29300069785E+02  0.10618818210E+02 -0.72140611337E+02  0.78584484433E+02  0.00000000000E+00 0. -1.
         22    1    3    3    0    0  0.67962098803E+03  0.24350262846E+03 -0.60794009494E+03  0.94380579384E+03  0.00000000000E+00 0. -1.
</event>
<event>
 7    1  0.4822463E-005  0.1377599E+03  0.7818608E-02  0.1324548E+00
          2   -1    0    0  502    0  0.00000000000E+00  0.00000000000E+00  0.14243126705E+04  0.14243126705E+04  0.00000000000E+00 0. -1.
          1   -1    0    0  501    0 -0.00000000000E+00 -0.00000000000E+00 -0.44698767400E+02  0.44698767400E+02  0.00000000000E+00 0. -1.
         25    2    1    2    0    0 -0.65903098468E+02  0.14149212817E+03  0.62553415773E+03  0.65671963553E+03  0.12499782593E+03 0.  0.
          2    1    1    2  501    0 -0.22675287938E+02 -0.42697024530E+02  0.17774442939E+01  0.48377307645E+02  0.00000000000E+00 0. -1.
          1    1    1    2  502    0  0.88578386406E+02 -0.98795103636E+02  0.75230230103E+03  0.76391449467E+03  0.00000000000E+00 0. -1.
         22    1    3    3    0    0 -0.12102897183E+02 -0.15305863109E+02  0.16580730757E+02  0.25606057841E+02  0.00000000000E+00 0. -1.
         22    1    3    3    0    0 -0.53800201285E+02  0.15679799127E+03  0.60895342697E+03  0.63111357769E+03  0.00000000000E+00 0. -1.
</event>
<event>
 7    1  0.4822463E-005  0.6207178E+02  0.7818608E-02  0.1496705E+00
          2   -1    0    0  502    0  0.00000000000E+00  0.00000000000E+00  0.11300030163E+04  0.11300030163E+04  0.00000000000E+00 0. -1.
          1   -1    0    0  501    0 -0.00000000000E+00 -0.00000000000E+00 -0.74728463865E+03  0.74728463865E+03  0.00000000000E+00 0. -1.
         25    2    1    2    0    0 -0.43099165497E+02 -0.45647244595E+00  0.47710402376E+03  0.49508651728E+03  0.12499865466E+03 0.  0.
          2    1    1    2  501    0 -0.19691314556E+02 -0.19750920068E+02 -0.73633941299E+03  0.73686740858E+03  0.00000000000E+00 0. -1.
          1    1    1    2  502    0  0.62790480054E+02  0.20207392514E+02  0.64195376689E+03  0.64533372911E+03  0.00000000000E+00 0. -1.
         22    1    3    3    0    0 -0.31827192532E+02  0.15410716130E+02  0.26820211351E+02  0.44382249752E+02  0.00000000000E+00 0. -1.
         22    1    3    3    0    0 -0.11271972965E+02 -0.15867188576E+02  0.45028381241E+03  0.45070426753E+03  0.00000000000E+00 0. -1.
</event>
<event>
 7    1  0.4822463E-005  0.2967079E+03  0.7818608E-02  0.1234105E+00
          2   -1    0    0  502    0  0.00000000000E+00  0.00000000000E+00  0.40059581023E+04  0.40059581023E+04  0.00000000000E+00 0. -1.
          1   -1    0    0  501    0 -0.00000000000E+00 -0.00000000000E+00 -0.88481963963E+03  0.88481963963E+03  0.00000000000E+00 0. -1.
         25    2    1    2    0    0 -0.90609430039E+02 -0.33477300193E+03  0.70534250044E+03  0.79587404614E+03  0.12499769100E+03 0.  0.
          2    1    1    2  501    0  0.66411775350E+02  0.28741255035E+03 -0.81341661212E+03  0.86525319004E+03  0.00000000000E+00 0. -1.
          1    1    1    2  502    0  0.24197654688E+02  0.47360451586E+02  0.32292125744E+04  0.32296505058E+04  0.00000000000E+00 0. -1.
         22    1    3    3    0    0 -0.59410289132E+02 -0.11615522192E+03  0.38727646538E+03  0.40866205925E+03  0.00000000000E+00 0. -1.
         22    1    3    3    0    0 -0.31199140907E+02 -0.21861778002E+03  0.31806603507E+03  0.38721198690E+03  0.00000000000E+00 0. -1.
</event>
<event>
 7    1  0.4822463E-005  0.8698262E+02  0.7818608E-02  0.1318261E+00
          2   -1    0    0  502    0  0.00000000000E+00  0.00000000000E+00  0.45776219265E+04  0.45776219265E+04  0.00000000000E+00 0. -1.
          1   -1    0    0  501    0 -0.00000000000E+00 -0.00000000000E+00 -0.67269872860E+02  0.67269872860E+02  0.00000000000E+00 0. -1.
         25    2    1    2    0    0 -0.57276744157E+02  0.14538866119E+03  0.30195387635E+04  0.30261620933E+04  0.12499672994E+03 0.  0.
          2    1    1    2  501    0  0.57582335898E+02 -0.64409325453E+02 -0.33208050376E+02  0.92558420592E+02  0.00000000000E+00 0. -1.
          1    1    1    2  502    0 -0.30559174038E+00 -0.80979335739E+02  0.15240213404E+04  0.15261712854E+04  0.00000000000E+00 0. -1.
         22    1    3    3    0    0 -0.23571484827E+01 -0.33172081014E+01  0.11236822233E+04  0.11236895919E+04  0.00000000000E+00 0. -1.
         22    1    3    3    0    0 -0.54919595675E+02  0.14870586929E+03  0.18958565402E+04  0.19024725014E+04  0.00000000000E+00 0. -1.
</event>
<event>
 7    1  0.4822463E-005  0.1872202E+03  0.7818608E-02  0.1205131E+00
          2   -1    0    0  502    0  0.00000000000E+00  0.00000000000E+00  0.26546517494E+03  0.26546517494E+03  0.00000000000E+00 0. -1.
          1   -1    0    0  501    0 -0.00000000000E+00 -0.00000000000E+00 -0.10507986400E+04  0.10507986400E+04  0.00000000000E+00 0. -1.
         25    2    1    2    0    0 -0.14336261497E+03 -0.23084902288E+03 -0.63762522968E+02  0.30583216944E+03  0.12499418303E+03 0.  0.
          2    1    1    2  501    0  0.29277499537E+02  0.11046550658E+03 -0.81303635188E+03  0.82102856807E+03  0.00000000000E+00 0. -1.
          1    1    1    2  502    0  0.11408511543E+03  0.12038351630E+03  0.91465409768E+02  0.18940307744E+03  0.00000000000E+00 0. -1.
         22    1    3    3    0    0  0.18689469314E+02 -0.20008386837E+02 -0.25044469473E+02  0.37106027250E+02  0.00000000000E+00 0. -1.
         22    1    3    3    0    0 -0.16205208429E+03 -0.21084063604E+03 -0.38718053495E+02  0.26872614219E+03  0.00000000000E+00 0. -1.
</event>
<event>
 7    1  0.4822463E-005  0.1026194E+03  0.7818608E-02  0.1295220E+00
          2   -1    0    0  502    0  0.00000000000E+00  0.00000000000E+00  0.20698134918E+04  0.20698134918E+04  0.00000000000E+00 0. -1.
          1   -1    0    0  501    0 -0.00000000000E+00 -0.00000000000E+00 -0.53103282271E+02  0.53103282271E+02  0.00000000000E+00 0. -1.
         25    2    1    2    0    0 -0.17704733373E+03  0.22656344332E+01  0.53194024935E+03  0.57440162824E+03  0.12500364060E+03 0.  0.
          2    1    1    2  501    0  0.92882883225E+02  0.71961979232E+01  0.40200074027E+02  0.10146458107E+03  0.00000000000E+00 0. -1.
          1    1    1    2  502    0  0.84164450500E+02 -0.94618323565E+01  0.14445698861E+04  0.14470505648E+04  0.00000000000E+00 0. -1.
         22    1    3    3    0    0 -0.10825609055E+03  0.28376037434E+02  0.16001223813E+03  0.19526519657E+03  0.00000000000E+00 0.  1.
         22    1    3    3    0    0 -0.68791243173E+02 -0.26110403000E+02  0.37192801123E+03  0.37913643167E+03  0.00000000000E+00 0.  1.
</event>
<event>
 7    1  0.4822463E-005  0.4961762E+03  0.7818608E-02  0.1137525E+00
          2   -1    0    0  502    0  0.00000000000E+00  0.00000000000E+00  0.29791250353E+04  0.29791250353E+04  0.00000000000E+00 0. -1.
          1   -1    0    0  501    0 -0.00000000000E+00 -0.00000000000E+00 -0.43985856509E+03  0.43985856509E+03  0.00000000000E+00 0. -1.
         25    2    1    2    0    0 -0.44683758323E+03 -0.37049601646E+03  0.17857191004E+04  0.18818471560E+04  0.12499955627E+03 0.  0.
          2    1    1    2  501    0  0.38759500174E+03  0.29838981284E+03 -0.23606568910E+03  0.54313292604E+03  0.00000000000E+00 0. -1.
          1    1    1    2  502    0  0.59242581499E+02  0.72106203616E+02  0.98961305894E+03  0.99400351835E+03  0.00000000000E+00 0. -1.
         22    1    3    3    0    0 -0.80489566858E+02 -0.21032096559E+02  0.18212562557E+03  0.20022652908E+03  0.00000000000E+00 0. -1.
         22    1    3    3    0    0 -0.36634801638E+03 -0.34946391990E+03  0.16035934748E+04  0.16816206269E+04  0.00000000000E+00 0. -1.
</event>
<event>
 7    1  0.4822463E-005  0.1467076E+04  0.7818608E-02  0.9834149E-01
          2   -1    0    0  502    0  0.00000000000E+00  0.00000000000E+00  0.21231109005E+04  0.21231109005E+04  0.00000000000E+00 0. -1.
          1   -1    0    0  501    0 -0.00000000000E+00 -0.00000000000E+00 -0.45947570028E+04  0.45947570028E+04  0.00000000000E+00 0. -1.
         25    2    1    2    0    0  0.11106642673E+04 -0.10891101329E+04 -0.51117077748E+03  0.16421494138E+04  0.12499254948E+03 0.  0.
          2    1    1    2  501    0 -0.11900118802E+04  0.82540575342E+03 -0.33550138091E+04  0.36542496620E+04  0.00000000000E+00 0. -1.
          1    1    1    2  502    0  0.79347612945E+02  0.26370437948E+03  0.13945384842E+04  0.14214688275E+04  0.00000000000E+00 0. -1.
         22    1    3    3    0    0  0.93097688390E+03 -0.87261689839E+03 -0.45873976666E+03  0.13559573678E+04  0.00000000000E+00 0.  1.
         22    1    3    3    0    0  0.17968738339E+03 -0.21649323451E+03 -0.52431010820E+02  0.28619204607E+03  0.00000000000E+00 0.  1.
</event>
<event>
 7    1  0.4822463E-005  0.2145520E+03  0.7818608E-02  0.1228715E+00
          2   -1    0    0  502    0  0.00000000000E+00  0.00000000000E+00  0.26894813648E+04  0.26894813648E+04  0.00000000000E+00 0. -1.
          1   -1    0    0  501    0 -0.00000000000E+00 -0.00000000000E+00 -0.35093700032E+03  0.35093700032E+03  0.00000000000E+00 0. -1.
         25    2    1    2    0    0  0.17663020222E+03 -0.18572485993E+03  0.12727788764E+04  0.13043325551E+04  0.12500157722E+03 0.  0.
          2    1    1    2  501    0 -0.76248839301E+02  0.15196379623E+02 -0.32354429478E+03  0.33275475373E+03  0.00000000000E+00 0. -1.
          1    1    1    2  502    0 -0.10038136291E+03  0.17052848031E+03  0.13893097829E+04  0.14033310562E+04  0.00000000000E+00 0. -1.
         22    1    3    3    0    0  0.58291848938E+02 -0.24038752704E+01  0.15862869852E+03  0.16901710643E+03  0.00000000000E+00 0.  1.
         22    1    3    3    0    0  0.11833835328E+03 -0.18332098466E+03  0.11141501778E+04  0.11353154487E+04  0.00000000000E+00 0.  1.
</event>
<event>
 7    1  0.4822463E-005  0.4059260E+03  0.7818608E-02  0.1060610E+00
          2   -1    0    0  502    0  0.00000000000E+00  0.00000000000E+00  0.18465347061E+04  0.18465347061E+04  0.00000000000E+00 0. -1.
          1   -1    0    0  501    0 -0.00000000000E+00 -0.00000000000E+00 -0.22229149480E+03  0.22229149480E+03  0.00000000000E+00 0. -1.
         25    2    1    2    0    0  0.16682250410E+03 -0.52144428081E+03  0.86085939539E+03  0.10278316299E+04  0.12500029946E+03 0.  0.
          2    1    1    2  501    0  0.98991597542E+02  0.29412775183E+03  0.17438963401E+03  0.35598063884E+03  0.00000000000E+00 0. -1.
          1    1    1    2  502    0 -0.26581410164E+03  0.22731652899E+03  0.58899418191E+03  0.68501393220E+03  0.00000000000E+00 0. -1.
         22    1    3    3    0    0  0.11928201073E+03 -0.32077278570E+03  0.42513448958E+03  0.54576800232E+03  0.00000000000E+00 0. -1.
         22    1    3    3    0    0  0.47540493369E+02 -0.20067149511E+03  0.43572490581E+03  0.48206362755E+03  0.00000000000E+00 0. -1.
</event>
<event>
 7    1  0.4822463E-005  0.6289066E+03  0.7818608E-02  0.1113854E+00
          2   -1    0    0  502    0  0.00000000000E+00  0.00000000000E+00  0.99257784041E+03  0.99257784041E+03  0.00000000000E+00 0. -1.
          1   -1    0    0  501    0 -0.00000000000E+00 -0.00000000000E+00 -0.25626027214E+04  0.25626027214E+04  0.00000000000E+00 0. -1.
         25    2    1    2    0    0  0.13354998055E+03  0.68007490852E+03 -0.56911171279E+03  0.90545792047E+03  0.12501370165E+03 0.  0.
          2    1    1    2  501    0 -0.16610052488E+03 -0.58690622384E+03 -0.17711246318E+04  0.18732140191E+04  0.00000000000E+00 0. -1.
          1    1    1    2  502    0  0.32550544325E+02 -0.93168684684E+02  0.77021146361E+03  0.77650862225E+03  0.00000000000E+00 0. -1.
         22    1    3    3    0    0  0.37699398134E+02  0.39670683432E+03 -0.26303995971E+03  0.47748044716E+03  0.00000000000E+00 0.  1.
         22    1    3    3    0    0  0.95850582419E+02  0.28336807420E+03 -0.30607175308E+03  0.42797747331E+03  0.00000000000E+00 0.  1.
</event>
<event>
 7    1  0.4822463E-005  0.9728645E+03  0.7818608E-02  0.1138896E+00
          2   -1    0    0  502    0  0.00000000000E+00  0.00000000000E+00  0.32201468195E+04  0.32201468195E+04  0.00000000000E+00 0. -1.
          1   -1    0    0  501    0 -0.00000000000E+00 -0.00000000000E+00 -0.79237614821E+03  0.79237614821E+03  0.00000000000E+00 0. -1.
         25    2    1    2    0    0  0.20304404801E+03 -0.97577864922E+03  0.35470867652E+03  0.10652765146E+04  0.12499979840E+03 0.  0.
          2    1    1    2  501    0 -0.40936795717E+02  0.22707479984E+02 -0.34235600038E+03  0.34554172235E+03  0.00000000000E+00 0. -1.
          1    1    1    2  502    0 -0.16210725229E+03  0.95307116923E+03  0.24154179951E+04  0.26017047308E+04  0.00000000000E+00 0. -1.
         22    1    3    3    0    0  0.27215152856E+02 -0.17278834744E+03  0.14092734551E+02  0.17548527780E+03  0.00000000000E+00 0. -1.
         22    1    3    3    0    0  0.17582889515E+03 -0.80299030177E+03  0.34061594197E+03  0.88979123677E+03  0.00000000000E+00 0. -1.
</event>
<event>
 7    1  0.4822463E-005  0.2100940E+03  0.7818608E-02  0.1208391E+00
          2   -1    0    0  502    0  0.00000000000E+00  0.00000000000E+00  0.27097379066E+04  0.27097379066E+04  0.00000000000E+00 0. -1.
          1   -1    0    0  501    0 -0.00000000000E+00 -0.00000000000E+00 -0.70623311704E+02  0.70623311704E+02  0.00000000000E+00 0. -1.
         25    2    1    2    0    0 -0.15173991433E+03 -0.20605281538E+03  0.97044411981E+03  0.10113755142E+04  0.12504349921E+03 0.  0.
          2    1    1    2  501    0  0.53934652903E+02  0.19585963184E+03  0.16394775632E+03  0.26105326846E+03  0.00000000000E+00 0. -1.
          1    1    1    2  502    0  0.97805261422E+02  0.10193183532E+02  0.15047227188E+04  0.15079324357E+04  0.00000000000E+00 0. -1.
         22    1    3    3    0    0 -0.11106481657E+03 -0.49096625611E+02  0.46281854647E+03  0.47848393817E+03  0.00000000000E+00 0. -1.
         22    1    3    3    0    0 -0.40675097754E+02 -0.15695618976E+03  0.50762557333E+03  0.53289157601E+03  0.00000000000E+00 0. -1.
</event>
<event>
 7    1  0.4822463E-005  0.1961667E+03  0.7818608E-02  0.1170983E+00
          2   -1    0    0  502    0  0.00000000000E+00  0.00000000000E+00  0.13713235997E+04  0.13713235997E+04  0.00000000000E+00 0. -1.
          1   -1    0    0  501    0 -0.00000000000E+00 -0.00000000000E+00 -0.47927869293E+03  0.47927869293E+03  0.00000000000E+00 0. -1.
         25    2    1    2    0    0 -0.24858534220E+03  0.81562213244E+02  0.51116774858E+03  0.58767694157E+03  0.12499861387E+03 0.  0.
          2    1    1    2  501    0  0.14132245826E+03  0.73429640202E+02 -0.41527428869E+03  0.44476587562E+03  0.00000000000E+00 0. -1.
          1    1    1    2  502    0  0.10726288393E+03 -0.15499185345E+03  0.79615144687E+03  0.81815947545E+03  0.00000000000E+00 0. -1.
         22    1    3    3    0    0 -0.65225647226E+02 -0.32445635325E+02  0.10688155732E+03  0.12934748394E+03  0.00000000000E+00 0.  1.
         22    1    3    3    0    0 -0.18335969497E+03  0.11400784857E+03  0.40428619127E+03  0.45832945762E+03  0.00000000000E+00 0.  1.
</event>
<event>
 7    1  0.4822463E-005  0.1429240E+03  0.7818608E-02  0.1280435E+00
          2   -1    0    0  502    0  0.00000000000E+00  0.00000000000E+00  0.70255608068E+03  0.70255608068E+03  0.00000000000E+00 0. -1.
          1   -1    0    0  501    0 -0.00000000000E+00 -0.00000000000E+00 -0.66279148443E+02  0.66279148443E+02  0.00000000000E+00 0. -1.
         25    2    1    2    0    0  0.49570944731E+02 -0.10941789785E+03  0.22906374075E+03  0.28726630112E+03  0.12498870150E+03 0.  0.
          2    1    1    2  501    0 -0.33439587354E+02 -0.61353750219E+02  0.20402101006E+03  0.21565495871E+03  0.00000000000E+00 0. -1.
          1    1    1    2  502    0 -0.16131357377E+02  0.17077164807E+03  0.20319218142E+03  0.26591396929E+03  0.00000000000E+00 0. -1.
         22    1    3    3    0    0  0.27771929399E+02 -0.99055025211E+02  0.65556251206E+02  0.12198688517E+03  0.00000000000E+00 0.  1.
         22    1    3    3    0    0  0.21799015332E+02 -0.10362872637E+02  0.16350748955E+03  0.16527941595E+03  0.00000000000E+00 0.  1.
</event>
<event>
 7    1  0.4822463E-005  0.1107331E+04  0.7818608E-02  0.1168277E+00
          2   -1    0    0  502    0  0.00000000000E+00  0.00000000000E+00  0.10509344987E+04  0.10509344987E+04  0.00000000000E+00 0. -1.
          1   -1    0    0  501    0 -0.00000000000E+00 -0.00000000000E+00 -0.14047723195E+04  0.14047723195E+04  0.00000000000E+00 0. -1.
         25    2    1    2    0    0 -0.10144431744E+04  0.40191892230E+03 -0.11441383924E+03  0.11042416136E+04  0.12500096156E+03 0.  0.
          2    1    1    2  501    0  0.10410323208E+04 -0.41374576068E+03 -0.39906322129E+03  0.11891952330E+04  0.00000000000E+00 0. -1.
          1    1    1    2  502    0 -0.26589146433E+02  0.11826838383E+02  0.15963923979E+03  0.16226997164E+03  0.00000000000E+00 0. -1.
         22    1    3    3    0    0 -0.33254606436E+03  0.19486375767E+03 -0.50839683115E+02  0.38877170981E+03  0.00000000000E+00 0.  1.
         22    1    3    3    0    0 -0.68189711006E+03  0.20705516463E+03 -0.63574156126E+02  0.71546990379E+03  0.00000000000E+00 0.  1.
</event>
<event>
 7    1  0.4822463E-005  0.2628788E+03  0.7818608E-02  0.1144693E+00
          2   -1    0    0  502    0  0.00000000000E+00  0.00000000000E+00  0.20169811494E+04  0.20169811494E+04  0.00000000000E+00 0. -1.
          1   -1    0    0  501    0 -0.00000000000E+00 -0.00000000000E+00 -0.33895556175E+03  0.33895556175E+03  0.00000000000E+00 0. -1.
         25    2    1    2    0    0 -0.22532115774E+03 -0.28214511617E+03  0.45404226787E+03  0.59342692973E+03  0.12500259681E+03 0.  0.
          2    1    1    2  501    0  0.48932719355E+01  0.16150844019E+03 -0.23326079229E+03  0.28375961232E+03  0.00000000000E+00 0. -1.
          1    1    1    2  502    0  0.22042788581E+03  0.12063667599E+03  0.14572441121E+04  0.14787501691E+04  0.00000000000E+00 0. -1.
         22    1    3    3    0    0 -0.12187258145E+03 -0.75630953683E+02  0.23371834295E+03  0.27422113539E+03  0.00000000000E+00 0. -1.
         22    1    3    3    0    0 -0.10344857629E+03 -0.20651416249E+03  0.22032392492E+03  0.31920579434E+03  0.00000000000E+00 0. -1.
</event>
<event>
 7    1  0.4822463E-005  0.4354700E+03  0.7818608E-02  0.1128066E+00
          2   -1    0    0  502    0  0.00000000000E+00  0.00000000000E+00  0.10890005035E+04  0.10890005035E+04  0.00000000000E+00 0. -1.
          1   -1    0    0  501    0 -0.00000000000E+00 -0.00000000000E+00 -0.12802605981E+04  0.12802605981E+04  0.00000000000E+00 0. -1.
         25    2    1    2    0    0 -0.31852821877E+03 -0.36438701189E+03 -0.64315406665E+03  0.81456190979E+03  0.12500332329E+03 0.  0.
          2    1    1    2  501    0  0.20098298094E+03  0.34365910123E+03 -0.47521440137E+03  0.61993908068E+03  0.00000000000E+00 0. -1.
          1    1    1    2  502    0  0.11754523783E+03  0.20727910660E+02  0.92710837345E+03  0.93476011112E+03  0.00000000000E+00 0. -1.
         22    1    3    3    0    0 -0.32697269290E+03 -0.34399841199E+03 -0.59131652669E+03  0.75822245027E+03  0.00000000000E+00 0.  1.
         22    1    3    3    0    0  0.84444741317E+01 -0.20388599905E+02 -0.51837539957E+02  0.56339459513E+02  0.00000000000E+00 0.  1.
</event>
<event>
 7    1  0.4822463E-005  0.9582600E+02  0.7818608E-02  0.1388592E+00
          2   -1    0    0  502    0  0.00000000000E+00  0.00000000000E+00  0.25570279975E+02  0.25570279975E+02  0.00000000000E+00 0. -1.
          1   -1    0    0  501    0 -0.00000000000E+00 -0.00000000000E+00 -0.90930254448E+03  0.90930254448E+03  0.00000000000E+00 0. -1.
         25    2    1    2    0    0 -0.77242878498E+02  0.84227518861E+02 -0.41864586574E+03  0.45160876754E+03  0.12500152320E+03 0.  0.
          2    1    1    2  501    0  0.79275057574E+02 -0.43829409342E+02 -0.33528637881E+03  0.34730751172E+03  0.00000000000E+00 0. -1.
          1    1    1    2  502    0 -0.20321790760E+01 -0.40398109519E+02 -0.12980001995E+03  0.13595654520E+03  0.00000000000E+00 0. -1.
         22    1    3    3    0    0 -0.74087011667E+01  0.10879929396E+02 -0.27790788584E+03  0.27821943629E+03  0.00000000000E+00 0. -1.
         22    1    3    3    0    0 -0.69834177331E+02  0.73347589464E+02 -0.14073797990E+03  0.17338933125E+03  0.00000000000E+00 0. -1.
</event>
<event>
 7    1  0.4822463E-005  0.1031101E+03  0.7818608E-02  0.1305122E+00
          2   -1    0    0  502    0  0.00000000000E+00  0.00000000000E+00  0.26312632746E+04  0.26312632746E+04  0.00000000000E+00 0. -1.
          1   -1    0    0  501    0 -0.00000000000E+00 -0.00000000000E+00 -0.12369256487E+03  0.12369256487E+03  0.00000000000E+00 0. -1.
         25    2    1    2    0    0 -0.10034967189E+03 -0.32223297471E+02  0.26742751055E+03  0.31345215545E+03  0.12500553112E+03 0.  0.
          2    1    1    2  501    0  0.49482486683E+02 -0.58917220104E+02 -0.84636952115E+02  0.11438168112E+03  0.00000000000E+00 0. -1.
          1    1    1    2  502    0  0.50867185212E+02  0.91140517575E+02  0.23247801513E+04  0.23271220029E+04  0.00000000000E+00 0. -1.
         22    1    3    3    0    0 -0.10783973782E+03 -0.15025643315E+02  0.27297703017E+03  0.29389052045E+03  0.00000000000E+00 0. -1.
         22    1    3    3    0    0  0.74900659256E+01 -0.17197654155E+02 -0.55495196195E+01  0.19561635004E+02  0.00000000000E+00 0. -1.
</event>
<event>
 7    1  0.4822463E-005  0.3067256E+03  0.7818608E-02  0.1251591E+00
          2   -1    0    0  502    0  0.00000000000E+00  0.00000000000E+00  0.95287240718E+03  0.95287240718E+03  0.00000000000E+00 0. -1.
          1   -1    0    0  501    0 -0.00000000000E+00 -0.00000000000E+00 -0.17602868508E+04  0.17602868508E+04  0.00000000000E+00 0. -1.
         25    2    1    2    0    0  0.31246190046E+03 -0.66604215888E+02  0.30194013717E+03  0.45701360265E+03  0.12500010304E+03 0.  0.
          2    1    1    2  501    0 -0.28217873904E+02 -0.32595079417E+02 -0.16429309766E+04  0.16434965413E+04  0.00000000000E+00 0. -1.
          1    1    1    2  502    0 -0.28424402656E+03  0.99199295306E+02  0.53357639575E+03  0.61264911403E+03  0.00000000000E+00 0. -1.
         22    1    3    3    0    0  0.26966887852E+03 -0.95502934747E+02  0.28187169929E+03  0.40161395575E+03  0.00000000000E+00 0.  1.
         22    1    3    3    0    0  0.42793021938E+02  0.28898718859E+02  0.20068437880E+02  0.55399646905E+02  0.00000000000E+00 0.  1.
</event>
<event>
 7    1  0.4822463E-005  0.5946422E+02  0.7818608E-02  0.1486240E+00
          2   -1    0    0  502    0  0.00000000000E+00  0.00000000000E+00  0.88457776289E+02  0.88457776289E+02  0.00000000000E+00 0. -1.
          1   -1    0    0  501    0 -0.00000000000E+00 -0.00000000000E+00 -0.67258253582E+03  0.67258253582E+03  0.00000000000E+00 0. -1.
         25    2    1    2    0    0 -0.52011934952E+02 -0.48561929566E+02 -0.74956414408E+02  0.16219433635E+03  0.12500014521E+03 0.  0.
          2    1    1    2  501    0  0.56613911421E+02  0.17592042486E+02 -0.54673644527E+03  0.54994122915E+03  0.00000000000E+00 0. -1.
          1    1    1    2  502    0 -0.46019764685E+01  0.30969887080E+02  0.37568100148E+02  0.48904746619E+02  0.00000000000E+00 0. -1.
         22    1    3    3    0    0 -0.31825565069E+02 -0.81796190548E+02 -0.12546069905E+02  0.88661644752E+02  0.00000000000E+00 0.  1.
         22    1    3    3    0    0 -0.20186369883E+02  0.33234260982E+02 -0.62410344503E+02  0.73532691594E+02  0.00000000000E+00 0.  1.
</event>
<event>
 7    1  0.4822463E-005  0.2696722E+03  0.7818608E-02  0.1228073E+00
          2   -1    0    0  502    0  0.00000000000E+00  0.00000000000E+00  0.62372123158E+02  0.62372123158E+02  0.00000000000E+00 0. -1.
          1   -1    0    0  501    0 -0.00000000000E+00 -0.00000000000E+00 -0.17135783270E+04  0.17135783270E+04  0.00000000000E+00 0. -1.
         25    2    1    2    0    0  0.82183715452E+02  0.29524577458E+03 -0.85710916397E+03  0.91879560562E+03  0.12500006178E+03 0.  0.
          2    1    1    2  501    0 -0.76471050760E+02 -0.23323911285E+03 -0.71818019979E+03  0.75896713021E+03  0.00000000000E+00 0. -1.
          1    1    1    2  502    0 -0.57126646915E+01 -0.62006661731E+02 -0.75916840049E+02  0.98187714302E+02  0.00000000000E+00 0. -1.
         22    1    3    3    0    0  0.62449072899E+02  0.91670411456E+02 -0.44643809251E+03  0.46001121887E+03  0.00000000000E+00 0.  1.
         22    1    3    3    0    0  0.19734642553E+02  0.20357536312E+03 -0.41067107146E+03  0.45878438674E+03  0.00000000000E+00 0.  1.
</event>
<event>
 7    1  0.4822463E-005  0.6817932E+03  0.7818608E-02  0.1059572E+00
          2   -1    0    0  502    0  0.00000000000E+00  0.00000000000E+00  0.13845199278E+04  0.13845199278E+04  0.00000000000E+00 0. -1.
          1   -1    0    0  501    0 -0.00000000000E+00 -0.00000000000E+00 -0.13165622525E+04  0.13165622525E+04  0.00000000000E+00 0. -1.
         25    2    1    2    0    0 -0.49496712494E+03 -0.53490852090E+03 -0.31969974226E+03  0.80557462472E+03  0.12499188091E+03 0.  0.
          2    1    1    2  501    0  0.31369916271E+03  0.58274238788E+03 -0.59813050101E+03  0.89205154086E+03  0.00000000000E+00 0. -1.
          1    1    1    2  502    0  0.18126796222E+03 -0.47833866982E+02  0.98578791860E+03  0.10034560147E+04  0.00000000000E+00 0. -1.
         22    1    3    3    0    0 -0.49984461633E+03 -0.53727451074E+03 -0.31580791026E+03  0.79890123079E+03  0.00000000000E+00 0.  1.
         22    1    3    3    0    0  0.48774913958E+01  0.23659898445E+01 -0.38918319966E+01  0.66733939304E+01  0.00000000000E+00 0.  1.
</event>
<event>
 7    1  0.4822463E-005  0.8906663E+02  0.7818608E-02  0.1356161E+00
          2   -1    0    0  502    0  0.00000000000E+00  0.00000000000E+00  0.89855914559E+03  0.89855914559E+03  0.00000000000E+00 0. -1.
          1   -1    0    0  501    0 -0.00000000000E+00 -0.00000000000E+00 -0.47512869462E+02  0.47512869462E+02  0.00000000000E+00 0. -1.
         25    2    1    2    0    0 -0.37473235676E+02  0.95152111817E+02  0.72553007573E+03  0.74328803753E+03  0.12500019266E+03 0.  0.
          2    1    1    2  501    0 -0.18847289687E+02 -0.87276733571E+02  0.35036256212E+02  0.95916566873E+02  0.00000000000E+00 0. -1.
          1    1    1    2  502    0  0.56320525364E+02 -0.78753782460E+01  0.90479944182E+02  0.10686741065E+03  0.00000000000E+00 0. -1.
         22    1    3    3    0    0 -0.69783669327E+02  0.39587994767E+02  0.55997760556E+03  0.56569593296E+03  0.00000000000E+00 0.  1.
         22    1    3    3    0    0  0.32310433650E+02  0.55564117050E+02  0.16555247017E+03  0.17759210457E+03  0.00000000000E+00 0.  1.
</event>
<event>
 7    1  0.4822463E-005  0.2931649E+03  0.7818608E-02  0.1205827E+00
          2   -1    0    0  502    0  0.00000000000E+00  0.00000000000E+00  0.12939653359E+03  0.12939653359E+03  0.00000000000E+00 0. -1.
          1   -1    0    0  501    0 -0.00000000000E+00 -0.00000000000E+00 -0.20903090601E+04  0.20903090601E+04  0.00000000000E+00 0. -1.
         25    2    1    2    0    0  0.12982359215E+03  0.29870217332E+03 -0.27384216003E+03  0.44349993476E+03  0.12500204036E+03 0.  0.
          2    1    1    2  501    0 -0.40284781239E+01 -0.72323555959E+02 -0.13460243719E+04  0.13479720083E+04  0.00000000000E+00 0. -1.
          1    1    1    2  502    0 -0.12579511403E+03 -0.22637861737E+03 -0.34104599451E+03  0.42823365058E+03  0.00000000000E+00 0. -1.
         22    1    3    3    0    0  0.89482548997E+02  0.28998680236E+03 -0.21623931274E+03  0.37263777652E+03  0.00000000000E+00 0. -1.
         22    1    3    3    0    0  0.40341043157E+02  0.87153709676E+01 -0.57602847297E+02  0.70862158243E+02  0.00000000000E+00 0. -1.
</event>
<event>
 7    1  0.4822463E-005  0.1689835E+04  0.7818608E-02  0.1124927E+00
          2   -1    0    0  502    0  0.00000000000E+00  0.00000000000E+00  0.25200802831E+04  0.25200802831E+04  0.00000000000E+00 0. -1.
          1   -1    0    0  501    0 -0.00000000000E+00 -0.00000000000E+00 -0.16405863244E+04  0.16405863244E+04  0.00000000000E+00 0. -1.
         25    2    1    2    0    0 -0.15736753595E+04  0.66304281133E+03  0.48179684153E+03  0.17787172066E+04  0.12500719001E+03 0.  0.
          2    1    1    2  501    0  0.30820937846E+02 -0.85147299601E+01 -0.48616463008E+03  0.48721502274E+03  0.00000000000E+00 0. -1.
          1    1    1    2  502    0  0.15428544217E+04 -0.65452808137E+03  0.88386174723E+03  0.18947343782E+04  0.00000000000E+00 0. -1.
         22    1    3    3    0    0 -0.10901367330E+03  0.61819366170E+02  0.58056096179E+01  0.12545644704E+03  0.00000000000E+00 0.  1.
         22    1    3    3    0    0 -0.14646616862E+04  0.60122344516E+03  0.47599123191E+03  0.16532607595E+04  0.00000000000E+00 0.  1.
</event>
<event>
 7    1  0.4822463E-005  0.7567931E+03  0.7818608E-02  0.1069688E+00
          2   -1    0    0  502    0  0.00000000000E+00  0.00000000000E+00  0.21200139984E+04  0.21200139984E+04  0.00000000000E+00 0. -1.
          1   -1    0    0  501    0 -0.00000000000E+00 -0.00000000000E+00 -0.13694323572E+04  0.13694323572E+04  0.00000000000E+00 0. -1.
         25    2    1    2    0    0 -0.80345152752E+03 -0.15698027143E+03  0.11931514980E+04  0.14523810274E+04  0.12499195544E+03 0.  0.
          2    1    1    2  501    0  0.14303224846E+03 -0.32979822807E+02 -0.10858726407E+04  0.10957487325E+04  0.00000000000E+00 0. -1.
          1    1    1    2  502    0  0.66041927906E+03  0.18996009424E+03  0.64330278395E+03  0.94131659573E+03  0.00000000000E+00 0. -1.
         22    1    3    3    0    0 -0.92274302284E+02 -0.49251845663E+02  0.10682140139E+03  0.14950285268E+03  0.00000000000E+00 0.  1.
         22    1    3    3    0    0 -0.71117722524E+03 -0.10772842577E+03  0.10863300966E+04  0.13028781748E+04  0.00000000000E+00 0.  1.
</event>
<event>
 7    1  0.4822463E-005  0.5016069E+03  0.7818608E-02  0.1067008E+00
          2   -1    0    0  502    0  0.00000000000E+00  0.00000000000E+00  0.81534447720E+03  0.81534447720E+03  0.00000000000E+00 0. -1.
          1   -1    0    0  501    0 -0.00000000000E+00 -0.00000000000E+00 -0.21015836638E+04  0.21015836638E+04  0.00000000000E+00 0. -1.
         25    2    1    2    0    0 -0.50049971110E+03  0.51155539138E+03  0.16354213316E+03  0.74468743314E+03  0.12499785799E+03 0.  0.
          2    1    1    2  501    0  0.34081213973E+03 -0.34632426065E+03 -0.17374210718E+04  0.18040857487E+04  0.00000000000E+00 0. -1.
          1    1    1    2  502    0  0.15968757137E+03 -0.16523113073E+03  0.28763975201E+03  0.36815495915E+03  0.00000000000E+00 0. -1.
         22    1    3    3    0    0 -0.27011808980E+02 -0.30727180373E+01  0.52848569257E+01  0.27694929739E+02  0.00000000000E+00 0. -1.
         22    1    3    3    0    0 -0.47348790212E+03  0.51462810941E+03  0.15825727623E+03  0.71699250340E+03  0.00000000000E+00 0. -1.
</event>
<event>
 7    1  0.4822463E-005  0.4209150E+03  0.7818608E-02  0.1091603E+00
          2   -1    0    0  502    0  0.00000000000E+00  0.00000000000E+00  0.10929652671E+04  0.10929652671E+04  0.00000000000E+00 0. -1.
          1   -1    0    0  501    0 -0.00000000000E+00 -0.00000000000E+00 -0.35989082554E+03  0.35989082554E+03  0.00000000000E+00 0. -1.
         25    2    1    2    0    0  0.39404833988E+03 -0.25323188078E+03  0.78214606255E+03  0.92020530411E+03  0.12499943575E+03 0.  0.
          2    1    1    2  501    0 -0.19637943922E+03 -0.75269792481E+01 -0.59308513143E+02  0.20527795618E+03  0.00000000000E+00 0. -1.
          1    1    1    2  502    0 -0.19766890066E+03  0.26075886003E+03  0.10236892119E+02  0.32737283231E+03  0.00000000000E+00 0. -1.
         22    1    3    3    0    0  0.36121896588E+03 -0.19735965562E+03  0.60652176104E+03  0.73300656313E+03  0.00000000000E+00 0. -1.
         22    1    3    3    0    0  0.32829373998E+02 -0.55872225165E+02  0.17562430151E+03  0.18719874098E+03  0.00000000000E+00 0. -1.
</event>
<event>
 7    1  0.4822463E-005  0.2924016E+03  0.7818608E-02  0.1207709E+00
          2   -1    0    0  502    0  0.00000000000E+00  0.00000000000E+00  0.30505978074E+04  0.30505978074E+04  0.00000000000E+00 0. -1.
          1   -1    0    0  501    0 -0.00000000000E+00 -0.00000000000E+00 -0.85993006617E+03  0.85993006617E+03  0.00000000000E+00 0. -1.
         25    2    1    2    0    0 -0.22765607946E+03  0.56046010210E+02  0.49630260133E+03  0.56294709889E+03  0.12499887312E+03 0.  0.
          2    1    1    2  501    0  0.29387706874E+03 -0.29963540746E+02 -0.79969248526E+03  0.85250783943E+03  0.00000000000E+00 0. -1.
          1    1    1    2  502    0 -0.66220989273E+02 -0.26082469464E+02  0.24940576252E+04  0.24950729353E+04  0.00000000000E+00 0. -1.
         22    1    3    3    0    0 -0.17647759253E+03  0.56370542021E+02  0.47043949661E+03  0.50560389500E+03  0.00000000000E+00 0. -1.
         22    1    3    3    0    0 -0.51178486938E+02 -0.32453181121E+00  0.25863104722E+02  0.57343203887E+02  0.00000000000E+00 0. -1.
</event>
<event>
 7    1  0.4822463E-005  0.2035128E+03  0.7818608E-02  0.1154013E+00
          2   -1    0    0  502    0  0.00000000000E+00  0.00000000000E+00  0.41070755344E+03  0.41070755344E+03  0.00000000000E+00 0. -1.
          1   -1    0    0  501    0 -0.00000000000E+00 -0.00000000000E+00 -0.22927039131E+04  0.22927039131E+04  0.00000000000E+00 0. -1.
         25    2    1    2    0    0 -0.34815913227E+03  0.46906154595E+02 -0.15970665628E+04  0.16400206446E+04  0.12502455777E+03 0.  0.
          2    1    1    2  501    0  0.17709344009E+03  0.59669207558E+02 -0.63364115515E+03  0.66062365561E+03  0.00000000000E+00 0. -1.
          1    1    1    2  502    0  0.17106569218E+03 -0.10657536215E+03  0.34871135829E+03  0.40276716631E+03  0.00000000000E+00 0. -1.
         22    1    3    3    0    0 -0.16282275750E+02  0.27740126734E+02 -0.27180248187E+03  0.27369913461E+03  0.00000000000E+00 0. -1.
         22    1    3    3    0    0 -0.33187685652E+03  0.19166027861E+02 -0.13252640809E+04  0.13663215100E+04  0.00000000000E+00 0. -1.
</event>
<event>
 7    1  0.4822463E-005  0.1648495E+03  0.7818608E-02  0.1198214E+00
          2   -1    0    0  502    0  0.00000000000E+00  0.00000000000E+00  0.10104323879E+04  0.10104323879E+04  0.00000000000E+00 0. -1.
          1   -1    0    0  501    0 -0.00000000000E+00 -0.00000000000E+00 -0.57334758636E+03  0.57334758636E+03  0.00000000000E+00 0. -1.
         25    2    1    2    0    0  0.15486517743E+03  0.10017845421E+03 -0.41102764237E+03  0.46753053435E+03  0.12498852703E+03 0.  0.
          2    1    1    2  501    0 -0.29443038525E+02 -0.16211694682E+03 -0.76112284113E+02  0.18149897178E+03  0.00000000000E+00 0. -1.
          1    1    1    2  502    0 -0.12542213891E+03  0.61938492610E+02  0.92422472804E+03  0.93475046816E+03  0.00000000000E+00 0. -1.
         22    1    3    3    0    0  0.12160696953E+03  0.45773883826E+02 -0.14827885637E+03  0.19715507278E+03  0.00000000000E+00 0.  1.
         22    1    3    3    0    0  0.33258207902E+02  0.54404570387E+02 -0.26274878600E+03  0.27037546156E+03  0.00000000000E+00 0.  1.
</event>
<event>
 7    1  0.4822463E-005  0.3923531E+03  0.7818608E-02  0.1079499E+00
          2   -1    0    0  502    0  0.00000000000E+00  0.00000000000E+00  0.16136399889E+04  0.16136399889E+04  0.00000000000E+00 0. -1.
          1   -1    0    0  501    0 -0.00000000000E+00 -0.00000000000E+00 -0.10587971147E+04  0.10587971147E+04  0.00000000000E+00 0. -1.
         25    2    1    2    0    0 -0.31786013336E+03  0.36751627205E+03 -0.22691647932E+02  0.50223751579E+03  0.12499734711E+03 0.  0.
          2    1    1    2  501    0  0.36397243600E+03 -0.12410134647E+03 -0.73765870704E+03  0.83187585999E+03  0.00000000000E+00 0. -1.
          1    1    1    2  502    0 -0.46112302636E+02 -0.24341492558E+03  0.13151932292E+04  0.13383237278E+04  0.00000000000E+00 0. -1.
         22    1    3    3    0    0 -0.81215130973E+02  0.10253454191E+03 -0.62089209615E+02  0.14479053745E+03  0.00000000000E+00 0.  1.
         22    1    3    3    0    0 -0.23664500239E+03  0.26498173013E+03  0.39397561684E+02  0.35744697834E+03  0.00000000000E+00 0.  1.
</event>
<event>
 7    1  0.4822463E-005  0.5416051E+02  0.7818608E-02  0.1492683E+00
          2   -1    0    0  502    0  0.00000000000E+00  0.00000000000E+00  0.10930811214E+04  0.10930811214E+04  0.00000000000E+00 0. -1.
          1   -1    0    0  501    0 -0.00000000000E+00 -0.00000000000E+00 -0.58526268404E+03  0.58526268404E+03  0.00000000000E+00 0. -1.
         25    2    1    2    0    0  0.19202367692E+02 -0.17919138101E+02  0.50723736428E+02  0.13743754697E+03  0.12500542166E+03 0.  0.
          2    1    1    2  501    0  0.32846300395E+02  0.11448258366E+01 -0.54065802765E+03  0.54165606518E+03  0.00000000000E+00 0. -1.
          1    1    1    2  502    0 -0.52048668086E+02  0.16774312265E+02  0.99775272858E+03  0.99925019329E+03  0.00000000000E+00 0. -1.
         22    1    3    3    0    0 -0.24802454946E+02  0.43320880885E+02  0.33402512359E+02  0.60063202744E+02  0.00000000000E+00 0.  1.
         22    1    3    3    0    0  0.44004822638E+02 -0.61240018986E+02  0.17321224069E+02  0.77374344223E+02  0.00000000000E+00 0.  1.
</event>
<event>
 7    1  0.4822463E-005  0.4476158E+02  0.7818608E-02  0.1485326E+00
          2   -1    0    0  502    0  0.00000000000E+00  0.00000000000E+00  0.38468259248E+02  0.38468259248E+02  0.00000000000E+00 0. -1.
          1   -1    0    0  501    0 -0.00000000000E+00 -0.00000000000E+00 -0.65892679834E+03  0.65892679834E+03  0.00000000000E+00 0. -1.
         25    2    1    2    0    0 -0.11121845250E+02  0.20035816671E+02 -0.51666126279E+03  0.53205956059E+03  0.12499354444E+03 0.  0.
          2    1    1    2  501    0  0.39579849802E+02 -0.54586379222E+02 -0.99737444522E+02  0.12039017878E+03  0.00000000000E+00 0. -1.
          1    1    1    2  502    0 -0.28458004552E+02  0.34550562551E+02 -0.40598317769E+01  0.44945318218E+02  0.00000000000E+00 0. -1.
         22    1    3    3    0    0  0.31419956929E+02  0.37820988180E+02 -0.87016004083E+02  0.99947115050E+02  0.00000000000E+00 0.  1.
         22    1    3    3    0    0 -0.42541802179E+02 -0.17785171509E+02 -0.42964525871E+03  0.43211244554E+03  0.00000000000E+00 0.  1.
</event>
<event>
 7    1  0.4822463E-005  0.3104212E+02  0.7818608E-02  0.1637229E+00
          2   -1    0    0  502    0  0.00000000000E+00  0.00000000000E+00  0.65859786270E+03  0.65859786270E+03  0.00000000000E+00 0. -1.
          1   -1    0    0  501    0 -0.00000000000E+00 -0.00000000000E+00 -0.20086946698E+04  0.20086946698E+04  0.00000000000E+00 0. -1.
         25    2    1    2    0    0  0.41611759258E+02  0.17375960940E+02 -0.66941256647E+03  0.68247357546E+03  0.12499413799E+03 0.  0.
          2    1    1    2  501    0 -0.19505724662E+02 -0.23833936486E+02 -0.13323702428E+04  0.13327261511E+04  0.00000000000E+00 0. -1.
          1    1    1    2  502    0 -0.22106034596E+02  0.64579755455E+01  0.65168600216E+03  0.65209280599E+03  0.00000000000E+00 0. -1.
         22    1    3    3    0    0  0.71794162045E+00 -0.22269817563E+02 -0.54705847305E+03  0.54751203928E+03  0.00000000000E+00 0. -1.
         22    1    3    3    0    0  0.40893817638E+02  0.39645778504E+02 -0.12235409341E+03  0.13496153618E+03  0.00000000000E+00 0. -1.
</event>
<event>
 7    1  0.4822463E-005  0.2011515E+03  0.7818608E-02  0.1201852E+00
          2   -1    0    0  502    0  0.00000000000E+00  0.00000000000E+00  0.35177780671E+03  0.35177780671E+03  0.00000000000E+00 0. -1.
          1   -1    0    0  501    0 -0.00000000000E+00 -0.00000000000E+00 -0.19067436799E+04  0.19067436799E+04  0.00000000000E+00 0. -1.
         25    2    1    2    0    0 -0.21073131633E+03 -0.10070026474E+03  0.61698330225E+02  0.27199284571E+03  0.12500077265E+03 0.  0.
          2    1    1    2  501    0  0.17064963944E+02  0.10886688972E+03 -0.17485877031E+04  0.17520565539E+04  0.00000000000E+00 0. -1.
          1    1    1    2  502    0  0.19366635239E+03 -0.81666249781E+01  0.13192349968E+03  0.23447208699E+03  0.00000000000E+00 0. -1.
         22    1    3    3    0    0 -0.14875308277E+03 -0.11177741146E+03  0.32691405588E+01  0.18609770720E+03  0.00000000000E+00 0.  1.
         22    1    3    3    0    0 -0.61978233563E+02  0.11077146715E+02  0.58429189666E+02  0.85895138512E+02  0.00000000000E+00 0.  1.
</event>
<event>
 7    1  0.4822463E-005  0.2042663E+04  0.7818608E-02  0.1033205E+00
          2   -1    0    0  502    0  0.00000000000E+00  0.00000000000E+00  0.17734361304E+04  0.17734361304E+04  0.00000000000E+00 0. -1.
          1   -1    0    0  501    0 -0.00000000000E+00 -0.00000000000E+00 -0.29479851379E+04  0.29479851379E+04  0.00000000000E+00 0. -1.
         25    2    1    2    0    0 -0.66725894285E+03  0.19232142010E+04 -0.52608640235E+03  0.21062708314E+04  0.12499020998E+03 0.  0.
          2    1    1    2  501    0 -0.89444045129E+02 -0.18794878858E+02 -0.55637874420E+03  0.56383578432E+03  0.00000000000E+00 0. -1.
          1    1    1    2  502    0  0.75670298798E+03 -0.19044193222E+04 -0.92083860902E+02  0.20513146526E+04  0.00000000000E+00 0. -1.
         22    1    3    3    0    0 -0.49157485646E+03  0.15642521851E+04 -0.41154399088E+03  0.16905322223E+04  0.00000000000E+00 0.  1.
         22    1    3    3    0    0 -0.17568408639E+03  0.35896201587E+03 -0.11454241147E+03  0.41573860908E+03  0.00000000000E+00 0.  1.
</event>
<event>
 7    1  0.4822463E-005  0.1228529E+03  0.7818608E-02  0.1252712E+00
          2   -1    0    0  502    0  0.00000000000E+00  0.00000000000E+00  0.34929140848E+04  0.34929140848E+04  0.00000000000E+00 0. -1.
          1   -1    0    0  501    0 -0.00000000000E+00 -0.00000000000E+00 -0.35557290725E+03  0.35557290725E+03  0.00000000000E+00 0. -1.
         25    2    1    2    0    0 -0.21182872203E+03 -0.49416134595E+02  0.24717538971E+03  0.35218403485E+03  0.12499823716E+03 0.  0.
          2    1    1    2  501    0  0.91010767052E+02  0.55202025544E+02 -0.29253796752E+03  0.31130159939E+03  0.00000000000E+00 0. -1.
          1    1    1    2  502    0  0.12081795497E+03 -0.57858909486E+01  0.31827037554E+04  0.31850013578E+04  0.00000000000E+00 0. -1.
         22    1    3    3    0    0 -0.10038988508E+03  0.39879161924E+02  0.11001136341E+03  0.15417839232E+03  0.00000000000E+00 0.  1.
         22    1    3    3    0    0 -0.11143883695E+03 -0.89295296519E+02  0.13716402630E+03  0.19800564253E+03  0.00000000000E+00 0.  1.
</event>
<event>
 7    1  0.4822463E-005  0.1757647E+03  0.7818608E-02  0.1206697E+00
          2   -1    0    0  502    0  0.00000000000E+00  0.00000000000E+00  0.12558492122E+04  0.12558492122E+04  0.00000000000E+00 0. -1.
          1   -1    0    0  501    0 -0.00000000000E+00 -0.00000000000E+00 -0.18520675957E+03  0.18520675957E+03  0.00000000000E+00 0. -1.
         25    2    1    2    0    0 -0.11194657967E+03 -0.16350953002E+03  0.14381626543E+03  0.27488949170E+03  0.12495483719E+03 0.  0.
          2    1    1    2  501    0 -0.55696175912E+02  0.10594648263E+03 -0.79928115861E+02  0.14392784615E+03  0.00000000000E+00 0. -1.
          1    1    1    2  502    0  0.16764275558E+03  0.57563047396E+02  0.10067543031E+04  0.10222386339E+04  0.00000000000E+00 0. -1.
         22    1    3    3    0    0 -0.12441010686E+03 -0.91756633540E+02  0.12719576107E+03  0.20018970034E+03  0.00000000000E+00 0. -1.
         22    1    3    3    0    0  0.12463527196E+02 -0.71752896484E+02  0.16620504358E+02  0.74699791360E+02  0.00000000000E+00 0. -1.
</event>
<event>
 7    1  0.4822463E-005  0.4048263E+03  0.7818608E-02  0.1138604E+00
          2   -1    0    0  502    0  0.00000000000E+00  0.00000000000E+00  0.12747021901E+04  0.12747021901E+04  0.00000000000E+00 0. -1.
          1   -1    0    0  501    0 -0.00000000000E+00 -0.00000000000E+00 -0.21764924002E+03  0.21764924002E+03  0.00000000000E+00 0. -1.
         25    2    1    2    0    0  0.34115508088E+03 -0.88347483416E+01  0.76541643776E+02  0.37141530687E+03  0.12500345978E+03 0.  0.
          2    1    1    2  501    0  0.83955917616E+02  0.75479941631E+02  0.19935394116E+03  0.22910218582E+03  0.00000000000E+00 0. -1.
          1    1    1    2  502    0 -0.42511099850E+03 -0.66645193289E+02  0.78115736509E+03  0.89183393738E+03  0.00000000000E+00 0. -1.
         22    1    3    3    0    0  0.18582052648E+03 -0.65626089993E+02  0.27996619811E+02  0.19904738750E+03  0.00000000000E+00 0.  1.
         22    1    3    3    0    0  0.15533455440E+03  0.56791341651E+02  0.48545023965E+02  0.17236791937E+03  0.00000000000E+00 0.  1.
</event>
<event>
 7    1  0.4822463E-005  0.2470586E+03  0.7818608E-02  0.1180656E+00
          2   -1    0    0  502    0  0.00000000000E+00  0.00000000000E+00  0.34439191410E+03  0.34439191410E+03  0.00000000000E+00 0. -1.
          1   -1    0    0  501    0 -0.00000000000E+00 -0.00000000000E+00 -0.55353696162E+03  0.55353696162E+03  0.00000000000E+00 0. -1.
         25    2    1    2    0    0 -0.25857987167E+03  0.17053196575E+02  0.18709933536E+03  0.34319842346E+03  0.12499854011E+03 0.  0.
          2    1    1    2  501    0  0.84085338759E+02  0.75992966541E+02 -0.16410846881E+01  0.11334887876E+03  0.00000000000E+00 0. -1.
          1    1    1    2  502    0  0.17449453291E+03 -0.93046163115E+02 -0.39460329818E+03  0.44138157350E+03  0.00000000000E+00 0. -1.
         22    1    3    3    0    0 -0.25251789929E+03  0.44410883404E+02  0.18271304714E+03  0.31483594716E+03  0.00000000000E+00 0. -1.
         22    1    3    3    0    0 -0.60619723752E+01 -0.27357686830E+02  0.43862882186E+01  0.28362476304E+02  0.00000000000E+00 0. -1.
</event>
<event>
 7    1  0.4822463E-005  0.5397656E+02  0.7818608E-02  0.1535896E+00
          2   -1    0    0  502    0  0.00000000000E+00  0.00000000000E+00  0.10318884939E+03  0.10318884939E+03  0.00000000000E+00 0. -1.
          1   -1    0    0  501    0 -0.00000000000E+00 -0.00000000000E+00 -0.12366946687E+04  0.12366946687E+04  0.00000000000E+00 0. -1.
         25    2    1    2    0    0 -0.54299468956E+02 -0.28349256283E+02 -0.81253740959E+03  0.82437220650E+03  0.12498151941E+03 0.  0.
          2    1    1    2  501    0  0.52869761753E+02  0.37452829734E+01 -0.41496563173E+03  0.41833684319E+03  0.00000000000E+00 0. -1.
          1    1    1    2  502    0  0.14297072030E+01  0.24603973310E+02  0.93997222006E+02  0.97174468407E+02  0.00000000000E+00 0. -1.
         22    1    3    3    0    0  0.15586492541E+02  0.35061247458E+02 -0.36393256029E+03  0.36594963897E+03  0.00000000000E+00 0.  1.
         22    1    3    3    0    0 -0.69885961497E+02 -0.63410503741E+02 -0.44860484930E+03  0.45842256753E+03  0.00000000000E+00 0.  1.
</event>
<event>
 7    1  0.4822463E-005  0.2040312E+03  0.7818608E-02  0.1192334E+00
          2   -1    0    0  502    0  0.00000000000E+00  0.00000000000E+00  0.34589953380E+04  0.34589953380E+04  0.00000000000E+00 0. -1.
          1   -1    0    0  501    0 -0.00000000000E+00 -0.00000000000E+00 -0.27629917663E+04  0.27629917663E+04  0.00000000000E+00 0. -1.
         25    2    1    2    0    0 -0.26012791055E+03 -0.26057711416E+02 -0.22099248163E+03  0.36442852400E+03  0.12499975199E+03 0.  0.
          2    1    1    2  501    0  0.69674306196E+02  0.98355520141E+02 -0.24657448970E+04  0.24686891693E+04  0.00000000000E+00 0. -1.
          1    1    1    2  502    0  0.19045360436E+03 -0.72297808725E+02  0.33827409503E+04  0.33888694110E+04  0.00000000000E+00 0. -1.
         22    1    3    3    0    0 -0.90932254756E+02  0.50348698799E+02 -0.73062443764E+02  0.12705033300E+03  0.00000000000E+00 0.  1.
         22    1    3    3    0    0 -0.16919565580E+03 -0.76406410215E+02 -0.14793003786E+03  0.23737819100E+03  0.00000000000E+00 0.  1.
</event>
<event>
 7    1  0.4822463E-005  0.3489174E+03  0.7818608E-02  0.1201469E+00
          2   -1    0    0  502    0  0.00000000000E+00  0.00000000000E+00  0.27268277874E+03  0.27268277874E+03  0.00000000000E+00 0. -1.
          1   -1    0    0  501    0 -0.00000000000E+00 -0.00000000000E+00 -0.17599362166E+04  0.17599362166E+04  0.00000000000E+00 0. -1.
         25    2    1    2    0    0  0.16384889932E+03 -0.29850719917E+03 -0.14142840001E+04  0.14600609627E+04  0.12500308886E+03 0.  0.
          2    1    1    2  501    0  0.57628663386E+02  0.27357903970E+02 -0.19235438392E+03  0.20265667215E+03  0.00000000000E+00 0. -1.
          1    1    1    2  502    0 -0.22147756270E+03  0.27114929520E+03  0.11938494618E+03  0.36990136043E+03  0.00000000000E+00 0. -1.
         22    1    3    3    0    0  0.15026801836E+03 -0.15611485068E+03 -0.94148441347E+03  0.96609793745E+03  0.00000000000E+00 0.  1.
         22    1    3    3    0    0  0.13580880958E+02 -0.14239234849E+03 -0.47279958661E+03  0.49396302527E+03  0.00000000000E+00 0.  1.
</event>
<event>
 7    1  0.5484530E-005  0.1159444E+03  0.7818608E-02  0.1404585E+00
          2   -1    0    0  502    0  0.00000000000E+00  0.00000000000E+00  0.12948129413E+04  0.12948129413E+04  0.00000000000E+00 0. -1.
          1   -1    0    0  501    0 -0.00000000000E+00 -0.00000000000E+00 -0.81526791533E+03  0.81526791533E+03  0.00000000000E+00 0. -1.
         25    2    1    2    0    0 -0.92422429330E+02 -0.58364493995E+02 -0.24953699753E+03  0.29973448677E+03  0.12499491918E+03 0.  0.
          2    1    1    2  501    0  0.13118187000E+02 -0.26350707016E+02 -0.53757734304E+03  0.53838262077E+03  0.00000000000E+00 0. -1.
          1    1    1    2  502    0  0.79304242330E+02  0.84715201011E+02  0.12666593666E+04  0.12719637491E+04  0.00000000000E+00 0. -1.
         22    1    3    3    0    0 -0.75273967962E+02 -0.96784738567E+02 -0.20154983511E+03  0.23591479798E+03  0.00000000000E+00 0. -1.
         22    1    3    3    0    0 -0.17148461368E+02  0.38420244572E+02 -0.47987162421E+02  0.63819688792E+02  0.00000000000E+00 0. -1.
</event>
<event>
 7    1  0.4822463E-005  0.1279554E+03  0.7818608E-02  0.1243616E+00
          2   -1    0    0  502    0  0.00000000000E+00  0.00000000000E+00  0.56830337640E+03  0.56830337640E+03  0.00000000000E+00 0. -1.
          1   -1    0    0  501    0 -0.00000000000E+00 -0.00000000000E+00 -0.32792755500E+03  0.32792755500E+03  0.00000000000E+00 0. -1.
         25    2    1    2    0    0 -0.13921102404E+03  0.29389314969E+02 -0.17276778800E+03  0.25635464572E+03  0.12500221902E+03 0.  0.
          2    1    1    2  501    0  0.75262040239E+02  0.82877579201E+02 -0.75112518293E+02  0.13481453275E+03  0.00000000000E+00 0. -1.
          1    1    1    2  502    0  0.63948983805E+02 -0.11226689417E+03  0.48825612769E+03  0.50506175294E+03  0.00000000000E+00 0. -1.
         22    1    3    3    0    0 -0.25499121216E+02  0.19938594104E+02  0.15747598693E+02  0.35996382905E+02  0.00000000000E+00 0. -1.
         22    1    3    3    0    0 -0.11371190283E+03  0.94507208656E+01 -0.18851538669E+03  0.22035826281E+03  0.00000000000E+00 0. -1.
</event>
<event>
 7    1  0.4822463E-005  0.2997168E+03  0.7818608E-02  0.1086472E+00
          2   -1    0    0  502    0  0.00000000000E+00  0.00000000000E+00  0.26484569995E+03  0.26484569995E+03  0.00000000000E+00 0. -1.
          1   -1    0    0  501    0 -0.00000000000E+00 -0.00000000000E+00 -0.21531663877E+04  0.21531663877E+04  0.00000000000E+00 0. -1.
         25    2    1    2    0    0  0.13717508681E+03 -0.17624221275E+03 -0.28288400238E+03  0.38147979665E+03  0.12500061782E+03 0.  0.
          2    1    1    2  501    0  0.23796709583E+03  0.17502192762E+03 -0.16338257255E+04  0.16603154867E+04  0.00000000000E+00 0. -1.
          1    1    1    2  502    0 -0.37514218263E+03  0.12202851298E+01  0.28389040136E+02  0.37621680437E+03  0.00000000000E+00 0. -1.
         22    1    3    3    0    0  0.85384523034E+02 -0.70588427535E+02 -0.22401131211E+03  0.24990860495E+03  0.00000000000E+00 0. -1.
         22    1    3    3    0    0  0.51790563771E+02 -0.10565378521E+03 -0.58872690274E+02  0.13157119170E+03  0.00000000000E+00 0. -1.
</event>
<event>
 7    1  0.4822463E-005  0.1304137E+03  0.7818608E-02  0.1259982E+00
          2   -1    0    0  502    0  0.00000000000E+00  0.00000000000E+00  0.46735813667E+03  0.46735813667E+03  0.00000000000E+00 0. -1.
          1   -1    0    0  501    0 -0.00000000000E+00 -0.00000000000E+00 -0.82932218355E+03  0.82932218355E+03  0.00000000000E+00 0. -1.
         25    2    1    2    0    0 -0.11564013776E+03 -0.16368357046E+03  0.20657537605E+03  0.31378771868E+03  0.12499757480E+03 0.  0.
          2    1    1    2  501    0  0.35795524983E+02  0.86180937964E+02 -0.75770304002E+03  0.76342803887E+03  0.00000000000E+00 0. -1.
          1    1    1    2  502    0  0.79844612780E+02  0.77502632499E+02  0.18916361710E+03  0.21946456267E+03  0.00000000000E+00 0. -1.
         22    1    3    3    0    0 -0.51403250569E+02 -0.52987613180E+02  0.37006858413E+01  0.73916685499E+02  0.00000000000E+00 0. -1.
         22    1    3    3    0    0 -0.64236887193E+02 -0.11069595728E+03  0.20287469021E+03  0.23987103318E+03  0.00000000000E+00 0. -1.
</event>
<event>
 7    1  0.4822463E-005  0.5096558E+03  0.7818608E-02  0.1210149E+00
          2   -1    0    0  502    0  0.00000000000E+00  0.00000000000E+00  0.48301047918E+03  0.48301047918E+03  0.00000000000E+00 0. -1.
          1   -1    0    0  501    0 -0.00000000000E+00 -0.00000000000E+00 -0.17144924328E+04  0.17144924328E+04  0.00000000000E+00 0. -1.
         25    2    1    2    0    0 -0.41006141090E+03 -0.34757769660E+03 -0.33382265660E+03  0.64499831174E+03  0.12499856084E+03 0.  0.
          2    1    1    2  501    0  0.23889430111E+02  0.31809557645E+02 -0.10344797446E+04  0.10352443648E+04  0.00000000000E+00 0. -1.
          1    1    1    2  502    0  0.38617198079E+03  0.31576813895E+03  0.13682044756E+03  0.51726023547E+03  0.00000000000E+00 0. -1.
         22    1    3    3    0    0 -0.24755280268E+03 -0.28558377407E+03 -0.23103821327E+03  0.44296629457E+03  0.00000000000E+00 0. -1.
         22    1    3    3    0    0 -0.16250860822E+03 -0.61993922525E+02 -0.10278444332E+03  0.20203201718E+03  0.00000000000E+00 0. -1.
</event>
<event>
 7    1  0.4822463E-005  0.6375061E+02  0.7818608E-02  0.1509591E+00
          2   -1    0    0  502    0  0.00000000000E+00  0.00000000000E+00  0.12861195017E+04  0.12861195017E+04  0.00000000000E+00 0. -1.
          1   -1    0    0  501    0 -0.00000000000E+00 -0.00000000000E+00 -0.48999328954E+02  0.48999328954E+02  0.00000000000E+00 0. -1.
         25    2    1    2    0    0 -0.14413620111E+02  0.41505309322E+02  0.42485839443E+03  0.44503881689E+03  0.12499780026E+03 0.  0.
          2    1    1    2  501    0  0.57719743707E+01 -0.64819103140E+02 -0.11379920397E+02  0.66063109284E+02  0.00000000000E+00 0. -1.
          1    1    1    2  502    0  0.86416457405E+01  0.23313793818E+02  0.82364169875E+03  0.82401690452E+03  0.00000000000E+00 0. -1.
         22    1    3    3    0    0  0.43393227169E+02  0.78041313976E+01  0.62093438195E+02  0.76154262506E+02  0.00000000000E+00 0. -1.
         22    1    3    3    0    0 -0.57806847280E+02  0.33701177925E+02  0.36276495624E+03  0.36888455438E+03  0.00000000000E+00 0. -1.
</event>
<event>
 7    1  0.4822463E-005  0.1514652E+03  0.7818608E-02  0.1315767E+00
          2   -1    0    0  502    0  0.00000000000E+00  0.00000000000E+00  0.35940699033E+03  0.35940699033E+03  0.00000000000E+00 0. -1.
          1   -1    0    0  501    0 -0.00000000000E+00 -0.00000000000E+00 -0.42000223800E+03  0.42000223800E+03  0.00000000000E+00 0. -1.
         25    2    1    2    0    0  0.79854078540E+02 -0.16394087496E+03 -0.17024892069E+03  0.27903839214E+03  0.12499777977E+03 0.  0.
          2    1    1    2  501    0 -0.73003093812E+02  0.11687939695E+03 -0.16878729128E+03  0.21789767056E+03  0.00000000000E+00 0. -1.
          1    1    1    2  502    0 -0.68509847281E+01  0.47061478012E+02  0.27844096430E+03  0.28247316564E+03  0.00000000000E+00 0. -1.
         22    1    3    3    0    0  0.65375374093E+01 -0.48477822354E+01  0.19296511095E+02  0.20942677202E+02  0.00000000000E+00 0. -1.
         22    1    3    3    0    0  0.73316541131E+02 -0.15909309273E+03 -0.18954543179E+03  0.25809571494E+03  0.00000000000E+00 0. -1.
</event>
<event>
 7    1  0.4822463E-005  0.3587677E+03  0.7818608E-02  0.1068725E+00
          2   -1    0    0  502    0  0.00000000000E+00  0.00000000000E+00  0.23973023070E+04  0.23973023070E+04  0.00000000000E+00 0. -1.
          1   -1    0    0  501    0 -0.00000000000E+00 -0.00000000000E+00 -0.18654676064E+04  0.18654676064E+04  0.00000000000E+00 0. -1.
         25    2    1    2    0    0  0.49858282977E+03 -0.25106018063E+03 -0.91177783009E+03  0.10763734355E+04  0.12499963485E+03 0.  0.
          2    1    1    2  501    0 -0.30944730837E+03 -0.51823158971E+02 -0.82874672396E+03  0.88615145937E+03  0.00000000000E+00 0. -1.
          1    1    1    2  502    0 -0.18913552140E+03  0.30288333960E+03  0.22723592547E+04  0.23002450185E+04  0.00000000000E+00 0. -1.
         22    1    3    3    0    0  0.12659125396E+03 -0.54660100094E+02 -0.33692433624E+03  0.36404818427E+03  0.00000000000E+00 0.  1.
         22    1    3    3    0    0  0.37199157581E+03 -0.19640008053E+03 -0.57485349385E+03  0.71232525120E+03  0.00000000000E+00 0.  1.
</event>
<event>
 7    1  0.4822463E-005  0.9044942E+03  0.7818608E-02  0.1121962E+00
          2   -1    0    0  502    0  0.00000000000E+00  0.00000000000E+00  0.10626262635E+04  0.10626262635E+04  0.00000000000E+00 0. -1.
          1   -1    0    0  501    0 -0.00000000000E+00 -0.00000000000E+00 -0.11051829174E+04  0.11051829174E+04  0.00000000000E+00 0. -1.
         25    2    1    2    0    0 -0.92372504617E+03  0.38423845458E+02 -0.11266154361E+03  0.93971389338E+03  0.12500090066E+03 0.  0.
          2    1    1    2  501    0  0.88433224621E+03 -0.86275872035E+02 -0.23311785360E+03  0.91860273321E+03  0.00000000000E+00 0. -1.
          1    1    1    2  502    0  0.39392799962E+02  0.47852026577E+02  0.30322274326E+03  0.30949255430E+03  0.00000000000E+00 0. -1.
         22    1    3    3    0    0 -0.30961103258E+03 -0.11087192667E+02 -0.92317585114E+02  0.32327148631E+03  0.00000000000E+00 0.  1.
         22    1    3    3    0    0 -0.61411401359E+03  0.49511038126E+02 -0.20343958497E+02  0.61644240707E+03  0.00000000000E+00 0.  1.
</event>
<event>
 7    1  0.4822463E-005  0.1575543E+03  0.7818608E-02  0.1197839E+00
          2   -1    0    0  502    0  0.00000000000E+00  0.00000000000E+00  0.37332310414E+04  0.37332310414E+04  0.00000000000E+00 0. -1.
          1   -1    0    0  501    0 -0.00000000000E+00 -0.00000000000E+00 -0.20974490516E+03  0.20974490516E+03  0.00000000000E+00 0. -1.
         25    2    1    2    0    0  0.18717414497E+03 -0.14456297405E+01  0.17740143111E+03  0.28658533378E+03  0.12499454141E+03 0.  0.
          2    1    1    2  501    0 -0.84949205330E+02 -0.11991738543E+03 -0.11812587318E+03  0.18854778898E+03  0.00000000000E+00 0. -1.
          1    1    1    2  502    0 -0.10222493964E+03  0.12136301517E+03  0.34642105783E+04  0.34678428238E+04  0.00000000000E+00 0. -1.
         22    1    3    3    0    0  0.15883859922E+03 -0.49475764351E+02  0.11158997449E+03  0.20032442254E+03  0.00000000000E+00 0.  1.
         22    1    3    3    0    0  0.28335545749E+02  0.48030134610E+02  0.65811456622E+02  0.86260911230E+02  0.00000000000E+00 0.  1.
</event>
<event>
 7    1  0.4822463E-005  0.2953128E+03  0.7818608E-02  0.1314821E+00
          2   -1    0    0  502    0  0.00000000000E+00  0.00000000000E+00  0.17002760488E+04  0.17002760488E+04  0.00000000000E+00 0. -1.
          1   -1    0    0  501    0 -0.00000000000E+00 -0.00000000000E+00 -0.81113715551E+03  0.81113715551E+03  0.00000000000E+00 0. -1.
         25    2    1    2    0    0  0.16784579122E+03  0.26606538333E+03  0.86894843202E+02  0.34948365585E+03  0.12500045638E+03 0.  0.
          2    1    1    2  501    0 -0.14705698173E+03 -0.25291196172E+03 -0.64825935116E+03  0.71121754944E+03  0.00000000000E+00 0. -1.
          1    1    1    2  502    0 -0.20788809494E+02 -0.13153421606E+02  0.14505034012E+04  0.14507119990E+04  0.00000000000E+00 0. -1.
         22    1    3    3    0    0  0.72557653630E+02  0.20374103360E+03  0.19452498180E+02  0.21714838604E+03  0.00000000000E+00 0. -1.
         22    1    3    3    0    0  0.95288137590E+02  0.62324349724E+02  0.67442345022E+02  0.13233526981E+03  0.00000000000E+00 0. -1.
</event>
<event>
 7    1  0.4822463E-005  0.4752332E+03  0.7818608E-02  0.1140026E+00
          2   -1    0    0  502    0  0.00000000000E+00  0.00000000000E+00  0.20391192273E+04  0.20391192273E+04  0.00000000000E+00 0. -1.
          1   -1    0    0  501    0 -0.00000000000E+00 -0.00000000000E+00 -0.21907983281E+04  0.21907983281E+04  0.00000000000E+00 0. -1.
         25    2    1    2    0    0 -0.23664517281E+03 -0.46232558424E+03  0.24283278727E+03  0.58680311413E+03  0.12499699404E+03 0.  0.
          2    1    1    2  501    0 -0.40328715658E+02  0.85500119300E+02 -0.19840019015E+04  0.19862528089E+04  0.00000000000E+00 0. -1.
          1    1    1    2  502    0  0.27697388847E+03  0.37682546494E+03  0.15894900134E+04  0.16568616323E+04  0.00000000000E+00 0. -1.
         22    1    3    3    0    0 -0.12133196058E+03 -0.34506998924E+03  0.13378813856E+03  0.38947914983E+03  0.00000000000E+00 0. -1.
         22    1    3    3    0    0 -0.11531321223E+03 -0.11725559500E+03  0.10904464871E+03  0.19732396430E+03  0.00000000000E+00 0. -1.
</event>
<event>
 7    1  0.4822463E-005  0.4101756E+03  0.7818608E-02  0.1263826E+00
          2   -1    0    0  502    0  0.00000000000E+00  0.00000000000E+00  0.91787201542E+03  0.91787201542E+03  0.00000000000E+00 0. -1.
          1   -1    0    0  501    0 -0.00000000000E+00 -0.00000000000E+00 -0.99639715488E+03  0.99639715488E+03  0.00000000000E+00 0. -1.
         25    2    1    2    0    0 -0.36564115435E+03 -0.19285926859E+03 -0.13506297500E+03  0.45249862459E+03  0.12499938718E+03 0.  0.
          2    1    1    2  501    0  0.34799984648E+03  0.21533688089E+03 -0.64271044367E+03  0.76193869821E+03  0.00000000000E+00 0. -1.
          1    1    1    2  502    0  0.17641307879E+02 -0.22477612294E+02  0.69924827922E+03  0.69983184751E+03  0.00000000000E+00 0. -1.
         22    1    3    3    0    0 -0.16239658341E+03 -0.15608834238E+03 -0.74817044982E+02  0.23734744816E+03  0.00000000000E+00 0. -1.
         22    1    3    3    0    0 -0.20324457094E+03 -0.36770926217E+02 -0.60245930022E+02  0.21515117642E+03  0.00000000000E+00 0. -1.
</event>
<event>
 7    1  0.4822463E-005  0.2569630E+03  0.7818608E-02  0.1335866E+00
          2   -1    0    0  502    0  0.00000000000E+00  0.00000000000E+00  0.64020085883E+03  0.64020085883E+03  0.00000000000E+00 0. -1.
          1   -1    0    0  501    0 -0.00000000000E+00 -0.00000000000E+00 -0.78289694930E+03  0.78289694930E+03  0.00000000000E+00 0. -1.
         25    2    1    2    0    0 -0.82539687192E+02  0.24135156063E+03  0.50449263436E+03  0.57896521051E+03  0.12499808429E+03 0.  0.
          2    1    1    2  501    0  0.16106722210E+02  0.17060383463E+02 -0.56423131247E+03  0.56471891872E+03  0.00000000000E+00 0. -1.
          1    1    1    2  502    0  0.66432964983E+02 -0.25841194409E+03 -0.82957412365E+02  0.27941367889E+03  0.00000000000E+00 0. -1.
         22    1    3    3    0    0 -0.86130099031E+01  0.18482830757E+02 -0.21997770362E+01  0.20509461022E+02  0.00000000000E+00 0. -1.
         22    1    3    3    0    0 -0.73926677289E+02  0.22286872987E+03  0.50669241140E+03  0.55845574949E+03  0.00000000000E+00 0. -1.
</event>
<event>
 7    1  0.4822463E-005  0.9606108E+03  0.7818608E-02  0.1147819E+00
          2   -1    0    0  502    0  0.00000000000E+00  0.00000000000E+00  0.28377437542E+04  0.28377437542E+04  0.00000000000E+00 0. -1.
          1   -1    0    0  501    0 -0.00000000000E+00 -0.00000000000E+00 -0.99082322996E+03  0.99082322996E+03  0.00000000000E+00 0. -1.
         25    2    1    2    0    0  0.33910424434E+03  0.87101138585E+03  0.83153557886E+03  0.12572701126E+04  0.12499677765E+03 0.  0.
          2    1    1    2  501    0 -0.32612877312E+03 -0.91158775327E+03 -0.47631131267E+03  0.10789924352E+04  0.00000000000E+00 0. -1.
          1    1    1    2  502    0 -0.12975471225E+02  0.40576367416E+02  0.14916962580E+04  0.14923044363E+04  0.00000000000E+00 0. -1.
         22    1    3    3    0    0  0.71516992369E+02  0.18519947608E+03  0.24927164954E+03  0.31866892130E+03  0.00000000000E+00 0. -1.
         22    1    3    3    0    0  0.26758725197E+03  0.68581190978E+03  0.58226392932E+03  0.93860119135E+03  0.00000000000E+00 0. -1.
</event>
<event>
 7    1  0.4822463E-005  0.5462296E+03  0.7818608E-02  0.1147286E+00
          2   -1    0    0  502    0  0.00000000000E+00  0.00000000000E+00  0.28449862457E+04  0.28449862457E+04  0.00000000000E+00 0. -1.
          1   -1    0    0  501    0 -0.00000000000E+00 -0.00000000000E+00 -0.69176637197E+03  0.69176637197E+03  0.00000000000E+00 0. -1.
         25    2    1    2    0    0  0.56401707117E+03 -0.16616744527E+03 -0.91589903155E+02  0.60806321252E+03  0.12500113447E+03 0.  0.
          2    1    1    2  501    0 -0.48872298157E+03  0.16228601279E+03 -0.14712428983E+03  0.53556741810E+03  0.00000000000E+00 0. -1.
          1    1    1    2  502    0 -0.75294089596E+02  0.38814324791E+01  0.23919340667E+04  0.23931219870E+04  0.00000000000E+00 0. -1.
         22    1    3    3    0    0  0.32100358362E+02 -0.18640004390E+02 -0.38563574294E+02  0.53525993994E+02  0.00000000000E+00 0.  1.
         22    1    3    3    0    0  0.53191671281E+03 -0.14752744088E+03 -0.53026328861E+02  0.55453721853E+03  0.00000000000E+00 0.  1.
</event>
<event>
 7    1  0.4822463E-005  0.4607745E+03  0.7818608E-02  0.1147129E+00
          2   -1    0    0  502    0  0.00000000000E+00  0.00000000000E+00  0.42139132603E+03  0.42139132603E+03  0.00000000000E+00 0. -1.
          1   -1    0    0  501    0 -0.00000000000E+00 -0.00000000000E+00 -0.13757789589E+04  0.13757789589E+04  0.00000000000E+00 0. -1.
         25    2    1    2    0    0  0.30656149274E+03  0.39688696612E+03 -0.13160003177E+02  0.51701082597E+03  0.12501118260E+03 0.  0.
          2    1    1    2  501    0 -0.21704041371E+03 -0.39892464779E+03 -0.10471913969E+04  0.11414277189E+04  0.00000000000E+00 0. -1.
          1    1    1    2  502    0 -0.89521079033E+02  0.20376816687E+01  0.10596376719E+03  0.13873174004E+03  0.00000000000E+00 0. -1.
         22    1    3    3    0    0  0.17859695917E+03  0.18866403803E+03  0.50051742444E+02  0.26456789297E+03  0.00000000000E+00 0.  1.
         22    1    3    3    0    0  0.12796453357E+03  0.20822292809E+03 -0.63211745621E+02  0.25244293299E+03  0.00000000000E+00 0.  1.
</event>
<event>
 7    1  0.4822463E-005  0.2876983E+03  0.7818608E-02  0.1161548E+00
          2   -1    0    0  502    0  0.00000000000E+00  0.00000000000E+00  0.89764747101E+03  0.89764747101E+03  0.00000000000E+00 0. -1.
          1   -1    0    0  501    0 -0.00000000000E+00 -0.00000000000E+00 -0.16012743940E+03  0.16012743940E+03  0.00000000000E+00 0. -1.
         25    2    1    2    0    0  0.20637354757E+03 -0.44804559089E+02  0.46631855020E+03  0.52695005028E+03  0.12500350227E+03 0.  0.
          2    1    1    2  501    0 -0.32664320164E+03  0.31076282460E+02  0.15447195876E+03  0.36266114012E+03  0.00000000000E+00 0. -1.
          1    1    1    2  502    0  0.12026965407E+03  0.13728276629E+02  0.11672952266E+03  0.16816372001E+03  0.00000000000E+00 0. -1.
         22    1    3    3    0    0  0.10859115320E+03 -0.84379960985E+02  0.29971098998E+03  0.32975550622E+03  0.00000000000E+00 0.  1.
         22    1    3    3    0    0  0.97782394369E+02  0.39575401896E+02  0.16660756022E+03  0.19719454406E+03  0.00000000000E+00 0.  1.
</event>
<event>
 7    1  0.4822463E-005  0.2349212E+03  0.7818608E-02  0.1135250E+00
          2   -1    0    0  502    0  0.00000000000E+00  0.00000000000E+00  0.36526509423E+04  0.36526509423E+04  0.00000000000E+00 0. -1.
          1   -1    0    0  501    0 -0.00000000000E+00 -0.00000000000E+00 -0.48360287595E+03  0.48360287595E+03  0.00000000000E+00 0. -1.
         25    2    1    2    0    0  0.12493146957E+03 -0.21591429888E+03  0.28011751493E+04  0.28150371575E+04  0.12500049823E+03 0.  0.
          2    1    1    2  501    0 -0.20062030678E+03 -0.28424567311E+02 -0.43430305244E+03  0.47924482770E+03  0.00000000000E+00 0. -1.
          1    1    1    2  502    0  0.75688837201E+02  0.24433886620E+03  0.80217596949E+03  0.84197183305E+03  0.00000000000E+00 0. -1.
         22    1    3    3    0    0  0.70621831112E+02 -0.96652939299E+02  0.19662604887E+04  0.19699008968E+04  0.00000000000E+00 0. -1.
         22    1    3    3    0    0  0.54309638462E+02 -0.11926135959E+03  0.83491466059E+03  0.84513626072E+03  0.00000000000E+00 0. -1.
</event>
<event>
 7    1  0.4822463E-005  0.4819787E+03  0.7818608E-02  0.1131949E+00
          2   -1    0    0  502    0  0.00000000000E+00  0.00000000000E+00  0.16332798677E+04  0.16332798677E+04  0.00000000000E+00 0. -1.
          1   -1    0    0  501    0 -0.00000000000E+00 -0.00000000000E+00 -0.76545805806E+03  0.76545805806E+03  0.00000000000E+00 0. -1.
         25    2    1    2    0    0 -0.14366963038E+03  0.47992637178E+03  0.42392798113E+03  0.66806436824E+03  0.12499912757E+03 0.  0.
          2    1    1    2  501    0  0.10270893603E+03 -0.47682989741E+01 -0.58640241759E+03  0.59534834977E+03  0.00000000000E+00 0. -1.
          1    1    1    2  502    0  0.40960694350E+02 -0.47515807281E+03  0.10302962461E+04  0.11353252077E+04  0.00000000000E+00 0. -1.
         22    1    3    3    0    0 -0.77049975449E+01  0.22340649007E+03  0.15235887659E+03  0.27052366637E+03  0.00000000000E+00 0.  1.
         22    1    3    3    0    0 -0.13596463283E+03  0.25651988172E+03  0.27156910454E+03  0.39754070187E+03  0.00000000000E+00 0.  1.
</event>
<event>
 7    1  0.4822463E-005  0.4424102E+02  0.7818608E-02  0.1530747E+00
          2   -1    0    0  502    0  0.00000000000E+00  0.00000000000E+00  0.12978220048E+04  0.12978220048E+04  0.00000000000E+00 0. -1.
          1   -1    0    0  501    0 -0.00000000000E+00 -0.00000000000E+00 -0.23307461334E+02  0.23307461334E+02  0.00000000000E+00 0. -1.
         25    2    1    2    0    0  0.41331942141E+01  0.49348216596E+02  0.68374625537E+03  0.69684013925E+03  0.12499963263E+03 0.  0.
          2    1    1    2  501    0 -0.30297552967E+02 -0.32530528342E+02  0.13890761975E+02  0.46573922513E+02  0.00000000000E+00 0. -1.
          1    1    1    2  502    0  0.26164358753E+02 -0.16817688254E+02  0.57687752612E+03  0.57771540438E+03  0.00000000000E+00 0. -1.
         22    1    3    3    0    0 -0.21385999688E+02 -0.21616787247E+02  0.45433518228E+03  0.45535162713E+03  0.00000000000E+00 0.  1.
         22    1    3    3    0    0  0.25519193902E+02  0.70965003843E+02  0.22941107309E+03  0.24148851212E+03  0.00000000000E+00 0.  1.
</event>
<event>
 7    1  0.4822463E-005  0.7585123E+02  0.7818608E-02  0.1409294E+00
          2   -1    0    0  502    0  0.00000000000E+00  0.00000000000E+00  0.38832403581E+03  0.38832403581E+03  0.00000000000E+00 0. -1.
          1   -1    0    0  501    0 -0.00000000000E+00 -0.00000000000E+00 -0.74979381458E+03  0.74979381458E+03  0.00000000000E+00 0. -1.
         25    2    1    2    0    0 -0.51600973915E+02  0.47764817455E+02 -0.29027355921E+03  0.32376543077E+03  0.12498470581E+03 0.  0.
          2    1    1    2  501    0  0.19289202782E+02 -0.76685310154E+02 -0.43795634288E+03  0.44503760336E+03  0.00000000000E+00 0. -1.
          1    1    1    2  502    0  0.32311771133E+02  0.28920492699E+02  0.36676012332E+03  0.36931481626E+03  0.00000000000E+00 0. -1.
         22    1    3    3    0    0  0.18784242929E+01 -0.27742803721E+02 -0.16875060146E+03  0.17102618843E+03  0.00000000000E+00 0. -1.
         22    1    3    3    0    0 -0.53479398208E+02  0.75507621176E+02 -0.12152295775E+03  0.15273924233E+03  0.00000000000E+00 0. -1.
</event>
<event>
 7    1  0.4822463E-005  0.5590629E+02  0.7818608E-02  0.1421094E+00
          2   -1    0    0  502    0  0.00000000000E+00  0.00000000000E+00  0.66013865467E+03  0.66013865467E+03  0.00000000000E+00 0. -1.
          1   -1    0    0  501    0 -0.00000000000E+00 -0.00000000000E+00 -0.69012344476E+02  0.69012344476E+02  0.00000000000E+00 0. -1.
         25    2    1    2    0    0  0.20981867876E+02 -0.59315866204E+01  0.23471621314E+02  0.12903953303E+03  0.12499944631E+03 0.  0.
          2    1    1    2  501    0  0.12952796229E+02  0.52110687111E+02  0.34364864643E+02  0.63751412245E+02  0.00000000000E+00 0. -1.
          1    1    1    2  502    0 -0.33934664105E+02 -0.46179100490E+02  0.53328982423E+03  0.53636005386E+03  0.00000000000E+00 0. -1.
         22    1    3    3    0    0 -0.24961027707E+02  0.37479838181E+02  0.43623888042E+02  0.62696369768E+02  0.00000000000E+00 0. -1.
         22    1    3    3    0    0  0.45942895583E+02 -0.43411424801E+02 -0.20152266728E+02  0.66343163266E+02  0.00000000000E+00 0. -1.
</event>
<event>
 7    1  0.4822463E-005  0.5338901E+03  0.7818608E-02  0.1189583E+00
          2   -1    0    0  502    0  0.00000000000E+00  0.00000000000E+00  0.68691866371E+03  0.68691866371E+03  0.00000000000E+00 0. -1.
          1   -1    0    0  501    0 -0.00000000000E+00 -0.00000000000E+00 -0.12516786321E+04  0.12516786321E+04  0.00000000000E+00 0. -1.
         25    2    1    2    0    0  0.15484226871E+02  0.55173302565E+03 -0.13552238793E+03  0.58192855101E+03  0.12500171191E+03 0.  0.
          2    1    1    2  501    0  0.38551154739E+02 -0.27718912358E+02 -0.74233703767E+03  0.74385402273E+03  0.00000000000E+00 0. -1.
          1    1    1    2  502    0 -0.54035381610E+02 -0.52401411329E+03  0.31309945725E+03  0.61281472202E+03  0.00000000000E+00 0. -1.
         22    1    3    3    0    0  0.54246329901E+02  0.13366822687E+03 -0.55198247303E+02  0.15445616106E+03  0.00000000000E+00 0. -1.
         22    1    3    3    0    0 -0.38762103030E+02  0.41806479878E+03 -0.80324140631E+02  0.42747238996E+03  0.00000000000E+00 0. -1.
</event>
<event>
 7    1  0.4822463E-005  0.1546448E+03  0.7818608E-02  0.1292742E+00
          2   -1    0    0  502    0  0.00000000000E+00  0.00000000000E+00  0.34526775139E+04  0.34526775139E+04  0.00000000000E+00 0. -1.
          1   -1    0    0  501    0 -0.00000000000E+00 -0.00000000000E+00 -0.14370247855E+04  0.14370247855E+04  0.00000000000E+00 0. -1.
         25    2    1    2    0    0 -0.25770956073E+02 -0.96512247542E+02 -0.42260257372E+02  0.16550067464E+03  0.12500315137E+03 0.  0.
          2    1    1    2  501    0  0.31235875242E+01 -0.57427630588E+02 -0.13307380108E+04  0.13319802336E+04  0.00000000000E+00 0. -1.
          1    1    1    2  502    0  0.22647368549E+02  0.15393987813E+03  0.33886509966E+04  0.33922213911E+04  0.00000000000E+00 0. -1.
         22    1    3    3    0    0  0.35842406880E+02 -0.87882128642E+02 -0.10046017758E+02  0.95440395736E+02  0.00000000000E+00 0.  1.
         22    1    3    3    0    0 -0.61613362953E+02 -0.86301189005E+01 -0.32214239615E+02  0.70060278908E+02  0.00000000000E+00 0.  1.
</event>
<event>
 7    1  0.4822463E-005  0.9584737E+03  0.7818608E-02  0.1061220E+00
          2   -1    0    0  502    0  0.00000000000E+00  0.00000000000E+00  0.12808472042E+04  0.12808472042E+04  0.00000000000E+00 0. -1.
          1   -1    0    0  501    0 -0.00000000000E+00 -0.00000000000E+00 -0.15354879130E+04  0.15354879130E+04  0.00000000000E+00 0. -1.
         25    2    1    2    0    0 -0.56960187008E+03 -0.83355514498E+03  0.39695464088E+03  0.10919974445E+04  0.12499984671E+03 0.  0.
          2    1    1    2  501    0  0.23388750268E+01  0.13029663869E+03 -0.79839747882E+03  0.80896305142E+03  0.00000000000E+00 0. -1.
          1    1    1    2  502    0  0.56726299505E+03  0.70325850629E+03  0.14680212908E+03  0.91537462130E+03  0.00000000000E+00 0. -1.
         22    1    3    3    0    0 -0.29977187248E+03 -0.37478343869E+03  0.24301398933E+03  0.53794200473E+03  0.00000000000E+00 0.  1.
         22    1    3    3    0    0 -0.26982999760E+03 -0.45877170628E+03  0.15394065156E+03  0.55405543973E+03  0.00000000000E+00 0.  1.
</event>
<event>
 7    1  0.4822463E-005  0.5854153E+03  0.7818608E-02  0.1048341E+00
          2   -1    0    0  502    0  0.00000000000E+00  0.00000000000E+00  0.43777661156E+03  0.43777661156E+03  0.00000000000E+00 0. -1.
          1   -1    0    0  501    0 -0.00000000000E+00 -0.00000000000E+00 -0.18003644745E+04  0.18003644745E+04  0.00000000000E+00 0. -1.
         25    2    1    2    0    0  0.27062563743E+00 -0.67609337596E+03 -0.72786742481E+03  0.10012590099E+04  0.12500516205E+03 0.  0.
          2    1    1    2  501    0 -0.19366264152E+03  0.50841483335E+03 -0.77353676773E+03  0.94570079440E+03  0.00000000000E+00 0. -1.
          1    1    1    2  502    0  0.19339201589E+03  0.16767854261E+03  0.13881632963E+03  0.29118128173E+03  0.00000000000E+00 0. -1.
         22    1    3    3    0    0 -0.37833661307E+02 -0.20972042051E+03 -0.16644873289E+03  0.27040566079E+03  0.00000000000E+00 0.  1.
         22    1    3    3    0    0  0.38104286944E+02 -0.46637295545E+03 -0.56141869192E+03  0.73085334910E+03  0.00000000000E+00 0.  1.
</event>
<event>
 7    1  0.4822463E-005  0.2230103E+03  0.7818608E-02  0.1261517E+00
          2   -1    0    0  502    0  0.00000000000E+00  0.00000000000E+00  0.47365999404E+03  0.47365999404E+03  0.00000000000E+00 0. -1.
          1   -1    0    0  501    0 -0.00000000000E+00 -0.00000000000E+00 -0.36664033330E+04  0.36664033330E+04  0.00000000000E+00 0. -1.
         25    2    1    2    0    0  0.26999135076E+03  0.29322620652E+02 -0.41322256920E+03  0.51003412336E+03  0.12500707871E+03 0.  0.
          2    1    1    2  501    0 -0.21650595048E+03 -0.34705138341E+02 -0.31993084754E+04  0.32068136825E+04  0.00000000000E+00 0. -1.
          1    1    1    2  502    0 -0.53485400276E+02  0.53825176891E+01  0.41978770567E+03  0.42321552119E+03  0.00000000000E+00 0. -1.
         22    1    3    3    0    0  0.10970461453E+03 -0.90950145634E+01 -0.27035993308E+03  0.29191148513E+03  0.00000000000E+00 0. -1.
         22    1    3    3    0    0  0.16028673623E+03  0.38417635215E+02 -0.14286263612E+03  0.21812263822E+03  0.00000000000E+00 0. -1.
</event>
<event>
 7    1  0.4822463E-005  0.1413695E+03  0.7818608E-02  0.1241333E+00
          2   -1    0    0  502    0  0.00000000000E+00  0.00000000000E+00  0.22066467455E+02  0.22066467455E+02  0.00000000000E+00 0. -1.
          1   -1    0    0  501    0 -0.00000000000E+00 -0.00000000000E+00 -0.23114513545E+04  0.23114513545E+04  0.00000000000E+00 0. -1.
         25    2    1    2    0    0  0.14961719117E+03 -0.12372997114E+03 -0.10907398940E+04  0.11149131597E+04  0.12499371056E+03 0.  0.
          2    1    1    2  501    0 -0.43063892501E+02  0.94329839941E+02 -0.44662520261E+03  0.45850484092E+03  0.00000000000E+00 0. -1.
          1    1    1    2  502    0 -0.10655329867E+03  0.29400131198E+02 -0.75201979043E+03  0.76009982132E+03  0.00000000000E+00 0. -1.
         22    1    3    3    0    0  0.51520106293E+02  0.17970835309E+02 -0.36086118255E+03  0.36496310135E+03  0.00000000000E+00 0. -1.
         22    1    3    3    0    0  0.98097084876E+02 -0.14170080645E+03 -0.72987871143E+03  0.74995005834E+03  0.00000000000E+00 0. -1.
</event>
<event>
 7    1  0.4822463E-005  0.2534328E+03  0.7818608E-02  0.1165092E+00
          2   -1    0    0  502    0  0.00000000000E+00  0.00000000000E+00  0.20955088843E+04  0.20955088843E+04  0.00000000000E+00 0. -1.
          1   -1    0    0  501    0 -0.00000000000E+00 -0.00000000000E+00 -0.36325831698E+03  0.36325831698E+03  0.00000000000E+00 0. -1.
         25    2    1    2    0    0 -0.35050649138E+03  0.82859773420E+02  0.49362088085E+03  0.62370413212E+03  0.12499891144E+03 0.  0.
          2    1    1    2  501    0  0.13136393543E+03  0.11832110337E+02 -0.27379791110E+03  0.30391080679E+03  0.00000000000E+00 0. -1.
          1    1    1    2  502    0  0.21914255595E+03 -0.94691883757E+02  0.15124275976E+04  0.15311522624E+04  0.00000000000E+00 0. -1.
         22    1    3    3    0    0 -0.28997906161E+03  0.11249111701E+03  0.43247796672E+03  0.53270939477E+03  0.00000000000E+00 0.  1.
         22    1    3    3    0    0 -0.60527429766E+02 -0.29631343585E+02  0.61142914130E+02  0.90994737348E+02  0.00000000000E+00 0.  1.
</event>
<event>
 7    1  0.4822463E-005  0.4326615E+02  0.7818608E-02  0.1494622E+00
          2   -1    0    0  502    0  0.00000000000E+00  0.00000000000E+00  0.21390583269E+03  0.21390583269E+03  0.00000000000E+00 0. -1.
          1   -1    0    0  501    0 -0.00000000000E+00 -0.00000000000E+00 -0.50403395057E+03  0.50403395057E+03  0.00000000000E+00 0. -1.
         25    2    1    2    0    0  0.23421893660E+02 -0.36779519202E+02 -0.19825931087E+03  0.23839757339E+03  0.12500132206E+03 0.  0.
          2    1    1    2  501    0 -0.40465070262E+02 -0.32140899750E+01 -0.28179518664E+03  0.28470384525E+03  0.00000000000E+00 0. -1.
          1    1    1    2  502    0  0.17043176603E+02  0.39993609177E+02  0.18992637963E+03  0.19483836461E+03  0.00000000000E+00 0. -1.
         22    1    3    3    0    0 -0.49003088592E+01  0.23082122802E+02  0.54300361803E+01  0.24213275550E+02  0.00000000000E+00 0. -1.
         22    1    3    3    0    0  0.28322202519E+02 -0.59861642003E+02 -0.20368934706E+03  0.21418429784E+03  0.00000000000E+00 0. -1.
</event>
<event>
 7    1  0.4822463E-005  0.1541912E+03  0.7818608E-02  0.1304474E+00
          2   -1    0    0  502    0  0.00000000000E+00  0.00000000000E+00  0.21256952930E+04  0.21256952930E+04  0.00000000000E+00 0. -1.
          1   -1    0    0  501    0 -0.00000000000E+00 -0.00000000000E+00 -0.79652384426E+02  0.79652384426E+02  0.00000000000E+00 0. -1.
         25    2    1    2    0    0 -0.35891058088E+02 -0.10616967459E+03  0.70374503994E+02  0.18203440368E+03  0.12499514173E+03 0.  0.
          2    1    1    2  501    0  0.15992197218E+02 -0.49224217032E+02  0.11643912258E+02  0.53050491110E+02  0.00000000000E+00 0. -1.
          1    1    1    2  502    0  0.19898860870E+02  0.15539389163E+03  0.19640244924E+04  0.19702627827E+04  0.00000000000E+00 0. -1.
         22    1    3    3    0    0 -0.60992912577E+02 -0.26549292654E+02  0.72670777781E+02  0.98519248212E+02  0.00000000000E+00 0. -1.
         22    1    3    3    0    0  0.25101854489E+02 -0.79620381939E+02 -0.22962737866E+01  0.83515155464E+02  0.00000000000E+00 0. -1.
</event>
<event>
 7    1  0.4822463E-005  0.1782035E+03  0.7818608E-02  0.1302320E+00
          2   -1    0    0  502    0  0.00000000000E+00  0.00000000000E+00  0.13258677178E+04  0.13258677178E+04  0.00000000000E+00 0. -1.
          1   -1    0    0  501    0 -0.00000000000E+00 -0.00000000000E+00 -0.37365011115E+03  0.37365011115E+03  0.00000000000E+00 0. -1.
         25    2    1    2    0    0 -0.78371478841E+02 -0.16113042256E+03  0.12694510671E+04  0.12881133999E+04  0.12500006975E+03 0.  0.
          2    1    1    2  501    0  0.39925518245E+02  0.22187253541E+02  0.15940588432E+02  0.48377924577E+02  0.00000000000E+00 0. -1.
          1    1    1    2  502    0  0.38445960596E+02  0.13894316902E+03 -0.33317404889E+03  0.36302650448E+03  0.00000000000E+00 0. -1.
         22    1    3    3    0    0 -0.17004200619E+02  0.20498334677E+02  0.16955362499E+03  0.17163262018E+03  0.00000000000E+00 0.  1.
         22    1    3    3    0    0 -0.61367278221E+02 -0.18162875724E+03  0.10998974421E+04  0.11164807797E+04  0.00000000000E+00 0.  1.
</event>
<event>
 7    1  0.4822463E-005  0.2469709E+03  0.7818608E-02  0.1183591E+00
          2   -1    0    0  502    0  0.00000000000E+00  0.00000000000E+00  0.37111087855E+03  0.37111087855E+03  0.00000000000E+00 0. -1.
          1   -1    0    0  501    0 -0.00000000000E+00 -0.00000000000E+00 -0.38718267960E+03  0.38718267960E+03  0.00000000000E+00 0. -1.
         25    2    1    2    0    0  0.16145232896E+03 -0.29254028109E+03  0.11746354184E+03  0.37559277089E+03  0.12500230119E+03 0.  0.
          2    1    1    2  501    0 -0.12118185504E+03  0.19048625759E+03 -0.15099871713E+03  0.27160756414E+03  0.00000000000E+00 0. -1.
          1    1    1    2  502    0 -0.40270473918E+02  0.10205402350E+03  0.17463374250E+02  0.11109322311E+03  0.00000000000E+00 0. -1.
         22    1    3    3    0    0  0.11235217385E+03 -0.25493633647E+03  0.13737045692E+03  0.31062226104E+03  0.00000000000E+00 0.  1.
         22    1    3    3    0    0  0.49100155103E+02 -0.37603944620E+02 -0.19906915082E+02  0.64970509851E+02  0.00000000000E+00 0.  1.
</event>
<event>
 7    1  0.4822463E-005  0.2846647E+03  0.7818608E-02  0.1122938E+00
          2   -1    0    0  502    0  0.00000000000E+00  0.00000000000E+00  0.28862520371E+04  0.28862520371E+04  0.00000000000E+00 0. -1.
          1   -1    0    0  501    0 -0.00000000000E+00 -0.00000000000E+00 -0.80205074041E+03  0.80205074041E+03  0.00000000000E+00 0. -1.
         25    2    1    2    0    0 -0.28180359178E+03  0.24280604229E+03  0.82880857081E+03  0.91701472746E+03  0.12499729925E+03 0.  0.
          2    1    1    2  501    0  0.89044667085E+02 -0.26921196946E+03 -0.72649617358E+03  0.77987225073E+03  0.00000000000E+00 0. -1.
          1    1    1    2  502    0  0.19275892469E+03  0.26405927166E+02  0.19818888994E+04  0.19914157993E+04  0.00000000000E+00 0. -1.
         22    1    3    3    0    0 -0.26958756041E+03  0.20631964116E+03  0.64142179080E+03  0.72571837565E+03  0.00000000000E+00 0. -1.
         22    1    3    3    0    0 -0.12216031364E+02  0.36486401134E+02  0.18738678001E+03  0.19129635180E+03  0.00000000000E+00 0. -1.
</event>
<event>
 7    1  0.4822463E-005  0.1580762E+04  0.7818608E-02  0.1163937E+00
          2   -1    0    0  502    0  0.00000000000E+00  0.00000000000E+00  0.18677194127E+04  0.18677194127E+04  0.00000000000E+00 0. -1.
          1   -1    0    0  501    0 -0.00000000000E+00 -0.00000000000E+00 -0.20638568658E+04  0.20638568658E+04  0.00000000000E+00 0. -1.
         25    2    1    2    0    0  0.15472624442E+04  0.28450842211E+03 -0.69686505157E+02  0.15796984551E+04  0.12499954653E+03 0.  0.
          2    1    1    2  501    0 -0.15627755712E+04 -0.26972387513E+03 -0.73149490188E+03  0.17464544787E+04  0.00000000000E+00 0. -1.
          1    1    1    2  502    0  0.15513126982E+02 -0.14784546979E+02  0.60504395401E+03  0.60542334463E+03  0.00000000000E+00 0. -1.
         22    1    3    3    0    0  0.65298448828E+03  0.18100609881E+03 -0.45313615382E+02  0.67912095644E+03  0.00000000000E+00 0.  1.
         22    1    3    3    0    0  0.89427795594E+03  0.10350232330E+03 -0.24372889775E+02  0.90057749870E+03  0.00000000000E+00 0.  1.
</event>
<event>
 7    1  0.4822463E-005  0.2036984E+03  0.7818608E-02  0.1173373E+00
          2   -1    0    0  502    0  0.00000000000E+00  0.00000000000E+00  0.69410364653E+03  0.69410364653E+03  0.00000000000E+00 0. -1.
          1   -1    0    0  501    0 -0.00000000000E+00 -0.00000000000E+00 -0.75480643332E+03  0.75480643332E+03  0.00000000000E+00 0. -1.
         25    2    1    2    0    0 -0.20385726280E+03  0.16593644106E+03 -0.65839685560E+01  0.29114265565E+03  0.12501204434E+03 0.  0.
          2    1    1    2  501    0  0.20072678383E+03 -0.16717382862E+02 -0.57849832969E+03  0.61256104193E+03  0.00000000000E+00 0. -1.
          1    1    1    2  502    0  0.31304789692E+01 -0.14921905820E+03  0.52437951146E+03  0.54520638227E+03  0.00000000000E+00 0. -1.
         22    1    3    3    0    0 -0.14458536740E+03  0.10680961996E+03 -0.62671896128E+02  0.19037066462E+03  0.00000000000E+00 0. -1.
         22    1    3    3    0    0 -0.59271895393E+02  0.59126821104E+02  0.56087927572E+02  0.10077199103E+03  0.00000000000E+00 0. -1.
</event>
<event>
 7    1  0.4822463E-005  0.1419640E+03  0.7818608E-02  0.1411556E+00
          2   -1    0    0  502    0  0.00000000000E+00  0.00000000000E+00  0.13701171782E+03  0.13701171782E+03  0.00000000000E+00 0. -1.
          1   -1    0    0  501    0 -0.00000000000E+00 -0.00000000000E+00 -0.28985326061E+03  0.28985326061E+03  0.00000000000E+00 0. -1.
         25    2    1    2    0    0  0.50794679716E+02  0.14195233796E+03 -0.26243000409E+02  0.19759577995E+03  0.12499932577E+03 0.  0.
          2    1    1    2  501    0 -0.39980463549E+01 -0.22410410274E+02  0.22849733186E+02  0.32254010138E+02  0.00000000000E+00 0. -1.
          1    1    1    2  502    0 -0.46796633361E+02 -0.11954192768E+03 -0.14944827557E+03  0.19701518835E+03  0.00000000000E+00 0. -1.
         22    1    3    3    0    0  0.78045482547E+01  0.14515904224E+03  0.31781882212E+01  0.14540343668E+03  0.00000000000E+00 0. -1.
         22    1    3    3    0    0  0.42990131461E+02 -0.32067042826E+01 -0.29421188630E+02  0.52192343268E+02  0.00000000000E+00 0. -1.
</event>
<event>
 7    1  0.4822463E-005  0.4658333E+03  0.7818608E-02  0.1060606E+00
          2   -1    0    0  502    0  0.00000000000E+00  0.00000000000E+00  0.83027792946E+03  0.83027792946E+03  0.00000000000E+00 0. -1.
          1   -1    0    0  501    0 -0.00000000000E+00 -0.00000000000E+00 -0.60518215820E+03  0.60518215820E+03  0.00000000000E+00 0. -1.
         25    2    1    2    0    0  0.43456577588E+03 -0.34877416844E+03  0.53613152631E+03  0.78329628451E+03  0.12500088676E+03 0.  0.
          2    1    1    2  501    0 -0.24389102027E+03  0.11686618553E+03 -0.17808740535E+03  0.32381423538E+03  0.00000000000E+00 0. -1.
          1    1    1    2  502    0 -0.19067475561E+03  0.23190798291E+03 -0.13294834969E+03  0.32834956776E+03  0.00000000000E+00 0. -1.
         22    1    3    3    0    0  0.98614975720E+02 -0.20062791893E+02  0.83407235795E+02  0.13070652638E+03  0.00000000000E+00 0. -1.
         22    1    3    3    0    0  0.33595080016E+03 -0.32871137655E+03  0.45272429051E+03  0.65258975813E+03  0.00000000000E+00 0. -1.
</event>
<event>
 7    1  0.4822463E-005  0.2895969E+03  0.7818608E-02  0.1246483E+00
          2   -1    0    0  502    0  0.00000000000E+00  0.00000000000E+00  0.81660158903E+02  0.81660158903E+02  0.00000000000E+00 0. -1.
          1   -1    0    0  501    0 -0.00000000000E+00 -0.00000000000E+00 -0.15867125491E+04  0.15867125491E+04  0.00000000000E+00 0. -1.
         25    2    1    2    0    0  0.11518712587E+03  0.26839320842E+03 -0.73279344338E+03  0.79869564897E+03  0.12500208291E+03 0.  0.
          2    1    1    2  501    0  0.41249975696E+02 -0.24655535366E+02 -0.37491932518E+03  0.37798671446E+03  0.00000000000E+00 0. -1.
          1    1    1    2  502    0 -0.15643710157E+03 -0.24373767305E+03 -0.39733962162E+03  0.49169034455E+03  0.00000000000E+00 0. -1.
         22    1    3    3    0    0 -0.12284886373E+02  0.10699662605E+01 -0.56711753003E+01  0.13572969104E+02  0.00000000000E+00 0. -1.
         22    1    3    3    0    0  0.12747201225E+03  0.26732324216E+03 -0.72712226808E+03  0.78512267987E+03  0.00000000000E+00 0. -1.
</event>
<event>
 7    1  0.4822463E-005  0.1834964E+03  0.7818608E-02  0.1179544E+00
          2   -1    0    0  502    0  0.00000000000E+00  0.00000000000E+00  0.19935801263E+04  0.19935801263E+04  0.00000000000E+00 0. -1.
          1   -1    0    0  501    0 -0.00000000000E+00 -0.00000000000E+00 -0.18988498847E+03  0.18988498847E+03  0.00000000000E+00 0. -1.
         25    2    1    2    0    0 -0.72520045696E+02 -0.11061929282E+03  0.10052606252E+03  0.20790968194E+03  0.12500064651E+03 0.  0.
          2    1    1    2  501    0  0.19134014224E+03 -0.29211789485E+02 -0.60170536421E+02  0.20269403575E+03  0.00000000000E+00 0. -1.
          1    1    1    2  502    0 -0.11882009654E+03  0.13983108230E+03  0.17633396118E+04  0.17728613971E+04  0.00000000000E+00 0. -1.
         22    1    3    3    0    0 -0.75237601836E+01  0.18239648771E+02 -0.13559425961E+02  0.23940546923E+02  0.00000000000E+00 0.  1.
         22    1    3    3    0    0 -0.64996285512E+02 -0.12885894159E+03  0.11408548848E+03  0.18396913502E+03  0.00000000000E+00 0.  1.
</event>
<event>
 7    1  0.4822463E-005  0.3394155E+03  0.7818608E-02  0.1282497E+00
          2   -1    0    0  502    0  0.00000000000E+00  0.00000000000E+00  0.95896525992E+03  0.95896525992E+03  0.00000000000E+00 0. -1.
          1   -1    0    0  501    0 -0.00000000000E+00 -0.00000000000E+00 -0.76855596573E+03  0.76855596573E+03  0.00000000000E+00 0. -1.
         25    2    1    2    0    0  0.24132837355E+03  0.23641429893E+03  0.84813327081E+03  0.92145876106E+03  0.12500039465E+03 0.  0.
          2    1    1    2  501    0  0.28852156811E+02 -0.22334588696E+00 -0.29290861102E+03  0.29432626666E+03  0.00000000000E+00 0. -1.
          1    1    1    2  502    0 -0.27018053036E+03 -0.23619095304E+03 -0.36481536560E+03  0.51173619792E+03  0.00000000000E+00 0. -1.
         22    1    3    3    0    0  0.34666185727E+02  0.11274938744E+03  0.24153487106E+03  0.26879967027E+03  0.00000000000E+00 0. -1.
         22    1    3    3    0    0  0.20666218783E+03  0.12366491149E+03  0.60659839975E+03  0.65265909079E+03  0.00000000000E+00 0. -1.
</event>
<event>
 7    1  0.4822463E-005  0.5109887E+02  0.7818608E-02  0.1573269E+00
          2   -1    0    0  502    0  0.00000000000E+00  0.00000000000E+00  0.56442965857E+03  0.56442965857E+03  0.00000000000E+00 0. -1.
          1   -1    0    0  501    0 -0.00000000000E+00 -0.00000000000E+00 -0.43342198420E+03  0.43342198420E+03  0.00000000000E+00 0. -1.
         25    2    1    2    0    0  0.15296805833E+02  0.69208194436E+02  0.90177105118E+02  0.16964875364E+03  0.12500009151E+03 0.  0.
          2    1    1    2  501    0 -0.44077945470E+01 -0.20027487066E+02 -0.39195737109E+03  0.39249345172E+03  0.00000000000E+00 0. -1.
          1    1    1    2  502    0 -0.10889011286E+02 -0.49180707370E+02  0.43278794034E+03  0.43570943741E+03  0.00000000000E+00 0. -1.
         22    1    3    3    0    0 -0.30167244232E+02  0.54171721148E+02 -0.59143222126E+01  0.62286573223E+02  0.00000000000E+00 0.  1.
         22    1    3    3    0    0  0.45464050065E+02  0.15036473288E+02  0.96091427331E+02  0.10736218042E+03  0.00000000000E+00 0.  1.
</event>
<event>
 7    1  0.4822463E-005  0.2569465E+03  0.7818608E-02  0.1117018E+00
          2   -1    0    0  502    0  0.00000000000E+00  0.00000000000E+00  0.34445503359E+03  0.34445503359E+03  0.00000000000E+00 0. -1.
          1   -1    0    0  501    0 -0.00000000000E+00 -0.00000000000E+00 -0.13872792461E+04  0.13872792461E+04  0.00000000000E+00 0. -1.
         25    2    1    2    0    0  0.44418951539E+03  0.10644712125E+03 -0.82033335138E+03  0.94720981454E+03  0.12499724064E+03 0.  0.
          2    1    1    2  501    0 -0.19991325236E+03 -0.11794022148E+03 -0.41352074783E+03  0.47420946131E+03  0.00000000000E+00 0. -1.
          1    1    1    2  502    0 -0.24427626303E+03  0.11493100229E+02  0.19102988666E+03  0.31031500388E+03  0.00000000000E+00 0. -1.
         22    1    3    3    0    0  0.16821554106E+03  0.66954489331E+02 -0.21721225060E+03  0.28277293666E+03  0.00000000000E+00 0.  1.
         22    1    3    3    0    0  0.27597397433E+03  0.39492631923E+02 -0.60312110077E+03  0.66443687787E+03  0.00000000000E+00 0.  1.
</event>
<event>
 7    1  0.4822463E-005  0.4021160E+03  0.7818608E-02  0.1168656E+00
          2   -1    0    0  502    0  0.00000000000E+00  0.00000000000E+00  0.10597168091E+04  0.10597168091E+04  0.00000000000E+00 0. -1.
          1   -1    0    0  501    0 -0.00000000000E+00 -0.00000000000E+00 -0.13509486397E+04  0.13509486397E+04  0.00000000000E+00 0. -1.
         25    2    1    2    0    0 -0.43355755209E+03  0.10721439470E+02 -0.47924416694E+03  0.65832249216E+03  0.12500572748E+03 0.  0.
          2    1    1    2  501    0  0.41181934076E+02  0.68339639923E+02 -0.73864172502E+03  0.74293866235E+03  0.00000000000E+00 0. -1.
          1    1    1    2  502    0  0.39237561802E+03 -0.79061079393E+02  0.92665406138E+03  0.10094042943E+04  0.00000000000E+00 0. -1.
         22    1    3    3    0    0 -0.15447006850E+03  0.92073036105E+01 -0.26344845386E+03  0.30553373683E+03  0.00000000000E+00 0. -1.
         22    1    3    3    0    0 -0.27908748359E+03  0.15141358592E+01 -0.21579571308E+03  0.35278875533E+03  0.00000000000E+00 0. -1.
</event>
<event>
 7    1  0.4822463E-005  0.2601877E+03  0.7818608E-02  0.1125117E+00
          2   -1    0    0  502    0  0.00000000000E+00  0.00000000000E+00  0.97724659482E+03  0.97724659482E+03  0.00000000000E+00 0. -1.
          1   -1    0    0  501    0 -0.00000000000E+00 -0.00000000000E+00 -0.14745459923E+04  0.14745459923E+04  0.00000000000E+00 0. -1.
         25    2    1    2    0    0 -0.30226082302E+03  0.33468276605E+03 -0.69963637163E+01  0.46802513006E+03  0.12499765695E+03 0.  0.
          2    1    1    2  501    0  0.13368776377E+03 -0.15827810961E+03 -0.12080463981E+04  0.12256836779E+04  0.00000000000E+00 0. -1.
          1    1    1    2  502    0  0.16857305924E+03 -0.17640465644E+03  0.71774336439E+03  0.75808377917E+03  0.00000000000E+00 0. -1.
         22    1    3    3    0    0 -0.97766637856E+02  0.10351431113E+03  0.56040585865E+02  0.15301658521E+03  0.00000000000E+00 0. -1.
         22    1    3    3    0    0 -0.20449418516E+03  0.23116845492E+03 -0.63036949581E+02  0.31500854485E+03  0.00000000000E+00 0. -1.
</event>
<event>
 7    1  0.4822463E-005  0.4923383E+03  0.7818608E-02  0.1137427E+00
          2   -1    0    0  502    0  0.00000000000E+00  0.00000000000E+00  0.11020431334E+04  0.11020431334E+04  0.00000000000E+00 0. -1.
          1   -1    0    0  501    0 -0.00000000000E+00 -0.00000000000E+00 -0.10945627796E+04  0.10945627796E+04  0.00000000000E+00 0. -1.
         25    2    1    2    0    0 -0.31331319387E+03  0.43408874299E+03 -0.14954352244E+03  0.56972489900E+03  0.12500000480E+03 0.  0.
          2    1    1    2  501    0  0.33365271853E+03 -0.34215003473E+03 -0.65422493445E+03  0.81018581060E+03  0.00000000000E+00 0. -1.
          1    1    1    2  502    0 -0.20339524655E+02 -0.91938708260E+02  0.81124881072E+03  0.81669520339E+03  0.00000000000E+00 0. -1.
         22    1    3    3    0    0 -0.15508978710E+03  0.11802733351E+03 -0.33795915144E+02  0.19780156066E+03  0.00000000000E+00 0.  1.
         22    1    3    3    0    0 -0.15822340677E+03  0.31606140948E+03 -0.11574760729E+03  0.37192333835E+03  0.00000000000E+00 0.  1.
</event>
<event>
 7    1  0.4822463E-005  0.2241312E+04  0.7818608E-02  0.1016788E+00
          2   -1    0    0  502    0  0.00000000000E+00  0.00000000000E+00  0.25203308712E+04  0.25203308712E+04  0.00000000000E+00 0. -1.
          1   -1    0    0  501    0 -0.00000000000E+00 -0.00000000000E+00 -0.37605826313E+04  0.37605826313E+04  0.00000000000E+00 0. -1.
         25    2    1    2    0    0 -0.12784479313E+03  0.22440043155E+04  0.11042232980E+04  0.25073559335E+04  0.12500010640E+03 0.  0.
          2    1    1    2  501    0  0.23319161949E+03 -0.22281672787E+04 -0.26382067556E+04  0.34611042513E+04  0.00000000000E+00 0. -1.
          1    1    1    2  502    0 -0.10534682636E+03 -0.15837036787E+02  0.29373169759E+03  0.31245331768E+03  0.00000000000E+00 0. -1.
         22    1    3    3    0    0  0.75763611559E+01  0.95106071593E+03  0.47008611288E+03  0.10609216937E+04  0.00000000000E+00 0. -1.
         22    1    3    3    0    0 -0.13542115428E+03  0.12929435995E+04  0.63413718511E+03  0.14464342398E+04  0.00000000000E+00 0. -1.
</event>
<event>
 7    1  0.4822463E-005  0.5509475E+03  0.7818608E-02  0.1050278E+00
          2   -1    0    0  502    0  0.00000000000E+00  0.00000000000E+00  0.20626317233E+03  0.20626317233E+03  0.00000000000E+00 0. -1.
          1   -1    0    0  501    0 -0.00000000000E+00 -0.00000000000E+00 -0.31215687717E+04  0.31215687717E+04  0.00000000000E+00 0. -1.
         25    2    1    2    0    0 -0.17955844876E+03  0.62070111483E+03 -0.51958740207E+03  0.83851440965E+03  0.12499694529E+03 0.  0.
          2    1    1    2  501    0  0.12624368391E+03 -0.23249103726E+03 -0.12724722604E+04  0.12996827319E+04  0.00000000000E+00 0. -1.
          1    1    1    2  502    0  0.53314764846E+02 -0.38821007757E+03 -0.11232459369E+04  0.11896348024E+04  0.00000000000E+00 0. -1.
         22    1    3    3    0    0 -0.15701403811E+02  0.18913305749E+03 -0.20799942807E+03  0.28156990179E+03  0.00000000000E+00 0. -1.
         22    1    3    3    0    0 -0.16385704495E+03  0.43156805734E+03 -0.31158797401E+03  0.55694450787E+03  0.00000000000E+00 0. -1.
</event>
<event>
 7    1  0.4822463E-005  0.4742191E+03  0.7818608E-02  0.1090226E+00
          2   -1    0    0  502    0  0.00000000000E+00  0.00000000000E+00  0.14277042329E+04  0.14277042329E+04  0.00000000000E+00 0. -1.
          1   -1    0    0  501    0 -0.00000000000E+00 -0.00000000000E+00 -0.49116339607E+03  0.49116339607E+03  0.00000000000E+00 0. -1.
         25    2    1    2    0    0  0.41289785897E+03 -0.30525376457E+03 -0.11912342130E+03  0.54173818823E+03  0.12500148943E+03 0.  0.
          2    1    1    2  501    0 -0.41332499407E+03  0.12762121679E+03  0.15561385348E+03  0.45971773633E+03  0.00000000000E+00 0. -1.
          1    1    1    2  502    0  0.42713510433E+00  0.17763254778E+03  0.90005040467E+03  0.91741170443E+03  0.00000000000E+00 0. -1.
         22    1    3    3    0    0  0.21053441740E+03 -0.91959773913E+02 -0.88239643045E+02  0.24610480600E+03  0.00000000000E+00 0.  1.
         22    1    3    3    0    0  0.20236344156E+03 -0.21329399066E+03 -0.30883778255E+02  0.29563338223E+03  0.00000000000E+00 0.  1.
</event>
<event>
 7    1  0.4822463E-005  0.1783470E+03  0.7818608E-02  0.1269239E+00
          2   -1    0    0  502    0  0.00000000000E+00  0.00000000000E+00  0.11967366353E+04  0.11967366353E+04  0.00000000000E+00 0. -1.
          1   -1    0    0  501    0 -0.00000000000E+00 -0.00000000000E+00 -0.55676768682E+03  0.55676768682E+03  0.00000000000E+00 0. -1.
         25    2    1    2    0    0  0.18161133942E+03 -0.89743231417E+02 -0.21571035112E+03  0.32123499541E+03  0.12499776200E+03 0.  0.
          2    1    1    2  501    0 -0.16685343756E+03  0.29168247281E+02 -0.26247164899E+03  0.31238153403E+03  0.00000000000E+00 0. -1.
          1    1    1    2  502    0 -0.14757901860E+02  0.60574984136E+02  0.11181509486E+04  0.11198877927E+04  0.00000000000E+00 0. -1.
         22    1    3    3    0    0  0.57503984922E+02 -0.62642419268E+02 -0.16270993015E+03  0.18359003879E+03  0.00000000000E+00 0.  1.
         22    1    3    3    0    0  0.12410735450E+03 -0.27100812148E+02 -0.53000420976E+02  0.13764495663E+03  0.00000000000E+00 0.  1.
</event>
<event>
 7    1  0.4822463E-005  0.2746388E+03  0.7818608E-02  0.1224086E+00
          2   -1    0    0  502    0  0.00000000000E+00  0.00000000000E+00  0.97967673404E+03  0.97967673404E+03  0.00000000000E+00 0. -1.
          1   -1    0    0  501    0 -0.00000000000E+00 -0.00000000000E+00 -0.10918468668E+04  0.10918468668E+04  0.00000000000E+00 0. -1.
         25    2    1    2    0    0  0.30872999363E+03 -0.64852934947E+02  0.34316499639E+03  0.48260596488E+03  0.12500476173E+03 0.  0.
          2    1    1    2  501    0 -0.52499983643E+02  0.36127736936E+02 -0.99172809063E+03  0.99377364999E+03  0.00000000000E+00 0. -1.
          1    1    1    2  502    0 -0.25623000998E+03  0.28725198010E+02  0.53639296143E+03  0.59514398601E+03  0.00000000000E+00 0. -1.
         22    1    3    3    0    0  0.23652096114E+03 -0.46329132862E+02  0.32717300624E+03  0.40636280541E+03  0.00000000000E+00 0.  1.
         22    1    3    3    0    0  0.72209032489E+02 -0.18523802084E+02  0.15991990147E+02  0.76243159467E+02  0.00000000000E+00 0.  1.
</event>
<event>
 7    1  0.4822463E-005  0.2598691E+03  0.7818608E-02  0.1230358E+00
          2   -1    0    0  502    0  0.00000000000E+00  0.00000000000E+00  0.60203950389E+03  0.60203950389E+03  0.00000000000E+00 0. -1.
          1   -1    0    0  501    0 -0.00000000000E+00 -0.00000000000E+00 -0.10236504622E+04  0.10236504622E+04  0.00000000000E+00 0. -1.
         25    2    1    2    0    0 -0.47483462116E+02  0.30828487715E+03 -0.13066963364E+03  0.36054900721E+03  0.12500715495E+03 0.  0.
          2    1    1    2  501    0  0.51914173829E+02 -0.24533122776E+03 -0.75564736015E+03  0.79616921924E+03  0.00000000000E+00 0. -1.
          1    1    1    2  502    0 -0.44307117132E+01 -0.62953649390E+02  0.46470603548E+03  0.46897173965E+03  0.00000000000E+00 0. -1.
         22    1    3    3    0    0 -0.16334941330E+02  0.30260548885E+03 -0.10844423799E+03  0.32186497937E+03  0.00000000000E+00 0.  1.
         22    1    3    3    0    0 -0.31148520786E+02  0.56793883070E+01 -0.22225395644E+02  0.38684027844E+02  0.00000000000E+00 0.  1.
</event>
<event>
 7    1  0.4822463E-005  0.3691366E+03  0.7818608E-02  0.1073649E+00
          2   -1    0    0  502    0  0.00000000000E+00  0.00000000000E+00  0.69571349989E+03  0.69571349989E+03  0.00000000000E+00 0. -1.
          1   -1    0    0  501    0 -0.00000000000E+00 -0.00000000000E+00 -0.11107492503E+04  0.11107492503E+04  0.00000000000E+00 0. -1.
         25    2    1    2    0    0 -0.53488175029E+03 -0.24283427180E+03 -0.16237630834E+03  0.62213550215E+03  0.12497818677E+03 0.  0.
          2    1    1    2  501    0  0.20092121906E+03  0.20220902664E+03 -0.62231907702E+03  0.68449898492E+03  0.00000000000E+00 0. -1.
          1    1    1    2  502    0  0.33396053122E+03  0.40625245168E+02  0.36965963492E+03  0.49982826316E+03  0.00000000000E+00 0. -1.
         22    1    3    3    0    0 -0.47063237045E+03 -0.25098958082E+03 -0.12679607593E+03  0.54824067951E+03  0.00000000000E+00 0.  1.
         22    1    3    3    0    0 -0.64249379836E+02  0.81553090168E+01 -0.35580232406E+02  0.73894822637E+02  0.00000000000E+00 0.  1.
</event>
<event>
 7    1  0.4822463E-005  0.3291803E+03  0.7818608E-02  0.1074394E+00
          2   -1    0    0  502    0  0.00000000000E+00  0.00000000000E+00  0.10477635513E+04  0.10477635513E+04  0.00000000000E+00 0. -1.
          1   -1    0    0  501    0 -0.00000000000E+00 -0.00000000000E+00 -0.87737779846E+03  0.87737779846E+03  0.00000000000E+00 0. -1.
         25    2    1    2    0    0  0.11885554769E+03 -0.16461695882E+03  0.36665104981E+02  0.24123464142E+03  0.12499775178E+03 0.  0.
          2    1    1    2  501    0  0.10277241688E+03  0.39046917695E+03 -0.69113736821E+03  0.80043688668E+03  0.00000000000E+00 0. -1.
          1    1    1    2  502    0 -0.22162796457E+03 -0.22585221813E+03  0.82485801609E+03  0.88346982168E+03  0.00000000000E+00 0. -1.
         22    1    3    3    0    0  0.70160247045E+02 -0.11877436657E+02  0.38508361267E+02  0.80909997246E+02  0.00000000000E+00 0. -1.
         22    1    3    3    0    0  0.48695300644E+02 -0.15273952216E+03 -0.18432562851E+01  0.16032464417E+03  0.00000000000E+00 0. -1.
</event>
<event>
 7    1  0.4822463E-005  0.2035358E+03  0.7818608E-02  0.1159130E+00
          2   -1    0    0  502    0  0.00000000000E+00  0.00000000000E+00  0.17733829357E+04  0.17733829357E+04  0.00000000000E+00 0. -1.
          1   -1    0    0  501    0 -0.00000000000E+00 -0.00000000000E+00 -0.26040136709E+03  0.26040136709E+03  0.00000000000E+00 0. -1.
         25    2    1    2    0    0 -0.20803073563E+03 -0.23263750106E+03  0.51751550257E+03  0.61712570409E+03  0.12499938151E+03 0.  0.
          2    1    1    2  501    0  0.25320184245E+02  0.17415543274E+03 -0.16452298112E+03  0.24091292576E+03  0.00000000000E+00 0. -1.
          1    1    1    2  502    0  0.18271055138E+03  0.58482068320E+02  0.11599890471E+04  0.11757456729E+04  0.00000000000E+00 0. -1.
         22    1    3    3    0    0 -0.16469359586E+03 -0.17467976250E+03  0.47743833863E+03  0.53440094230E+03  0.00000000000E+00 0. -1.
         22    1    3    3    0    0 -0.43337139768E+02 -0.57957738559E+02  0.40077163945E+02  0.82724761783E+02  0.00000000000E+00 0. -1.
</event>
<event>
 7    1  0.4822463E-005  0.1019832E+03  0.7818608E-02  0.1298792E+00
          2   -1    0    0  502    0  0.00000000000E+00  0.00000000000E+00  0.17109013114E+04  0.17109013114E+04  0.00000000000E+00 0. -1.
          1   -1    0    0  501    0 -0.00000000000E+00 -0.00000000000E+00 -0.75613736670E+03  0.75613736670E+03  0.00000000000E+00 0. -1.
         25    2    1    2    0    0  0.10157540788E+03 -0.71353152120E+02  0.12567326565E+04  0.12690196866E+04  0.12500063677E+03 0.  0.
          2    1    1    2  501    0 -0.58788071390E+01  0.82239538458E+02 -0.74250929314E+03  0.74707292312E+03  0.00000000000E+00 0. -1.
          1    1    1    2  502    0 -0.95696600740E+02 -0.10886386338E+02  0.44054058132E+03  0.45094606838E+03  0.00000000000E+00 0. -1.
         22    1    3    3    0    0  0.41829264313E+02  0.33217832046E+02  0.48726058681E+03  0.49017954994E+03  0.00000000000E+00 0.  1.
         22    1    3    3    0    0  0.59746143566E+02 -0.10457098417E+03  0.76947206972E+03  0.77884013667E+03  0.00000000000E+00 0.  1.
</event>
<event>
 7    1  0.4822463E-005  0.5181594E+03  0.7818608E-02  0.1098686E+00
          2   -1    0    0  502    0  0.00000000000E+00  0.00000000000E+00  0.22811163728E+03  0.22811163728E+03  0.00000000000E+00 0. -1.
          1   -1    0    0  501    0 -0.00000000000E+00 -0.00000000000E+00 -0.24996886113E+04  0.24996886113E+04  0.00000000000E+00 0. -1.
         25    2    1    2    0    0  0.36742459551E+03 -0.32125521547E+03 -0.40959442737E+03  0.64930639873E+03  0.12500183058E+03 0.  0.
          2    1    1    2  501    0 -0.33137897201E+02 -0.14168187387E+03 -0.11803791545E+04  0.11893135928E+04  0.00000000000E+00 0. -1.
          1    1    1    2  502    0 -0.33428669831E+03  0.46293708934E+03 -0.68160339212E+03  0.88918025704E+03  0.00000000000E+00 0. -1.
         22    1    3    3    0    0  0.30221078398E+02  0.81243902541E+01 -0.15665484549E+02  0.34996095535E+02  0.00000000000E+00 0.  1.
         22    1    3    3    0    0  0.33720351711E+03 -0.32937960573E+03 -0.39392894282E+03  0.61431030320E+03  0.00000000000E+00 0.  1.
</event>
<event>
 7    1  0.4822463E-005  0.8889706E+02  0.7818608E-02  0.1339493E+00
          2   -1    0    0  502    0  0.00000000000E+00  0.00000000000E+00  0.12692650967E+04  0.12692650967E+04  0.00000000000E+00 0. -1.
          1   -1    0    0  501    0 -0.00000000000E+00 -0.00000000000E+00 -0.96110072478E+02  0.96110072478E+02  0.00000000000E+00 0. -1.
         25    2    1    2    0    0 -0.22986196272E+02 -0.17111252262E+02  0.48042525897E+03  0.49724629275E+03  0.12499714405E+03 0.  0.
          2    1    1    2  501    0  0.51086795790E+02  0.76514620213E+02 -0.61743048115E+02  0.11079960199E+03  0.00000000000E+00 0. -1.
          1    1    1    2  502    0 -0.28100599519E+02 -0.59403367951E+02  0.75447281341E+03  0.75732927448E+03  0.00000000000E+00 0. -1.
         22    1    3    3    0    0 -0.41066875582E+02  0.26160951852E+02  0.40843895130E+03  0.41133108394E+03  0.00000000000E+00 0. -1.
         22    1    3    3    0    0  0.18080679311E+02 -0.43272204114E+02  0.71986307666E+02  0.85915208808E+02  0.00000000000E+00 0. -1.
</event>
<event>
 7    1  0.4822463E-005  0.1908944E+03  0.7818608E-02  0.1250248E+00
          2   -1    0    0  502    0  0.00000000000E+00  0.00000000000E+00  0.61666946064E+03  0.61666946064E+03  0.00000000000E+00 0. -1.
          1   -1    0    0  501    0 -0.00000000000E+00 -0.00000000000E+00 -0.18600013317E+04  0.18600013317E+04  0.00000000000E+00 0. -1.
         25    2    1    2    0    0 -0.18228130126E+03 -0.14727083310E+03 -0.14561794978E+03  0.30289348137E+03  0.12499881075E+03 0.  0.
          2    1    1    2  501    0  0.10969336589E+02  0.69344321126E+02 -0.16185030250E+04  0.16200250008E+04  0.00000000000E+00 0. -1.
          1    1    1    2  502    0  0.17131196467E+03  0.77926511974E+02  0.52078910371E+03  0.55375231020E+03  0.00000000000E+00 0. -1.
         22    1    3    3    0    0 -0.61101901470E+02 -0.21459109167E+02  0.14014527990E+02  0.66259661366E+02  0.00000000000E+00 0.  1.
         22    1    3    3    0    0 -0.12117939979E+03 -0.12581172393E+03 -0.15963247777E+03  0.23663382001E+03  0.00000000000E+00 0.  1.
</event>
<event>
 7    1  0.4822463E-005  0.1247470E+03  0.7818608E-02  0.1319962E+00
          2   -1    0    0  502    0  0.00000000000E+00  0.00000000000E+00  0.19973054518E+04  0.19973054518E+04  0.00000000000E+00 0. -1.
          1   -1    0    0  501    0 -0.00000000000E+00 -0.00000000000E+00 -0.41538921364E+03  0.41538921364E+03  0.00000000000E+00 0. -1.
         25    2    1    2    0    0 -0.11381642660E+03  0.89573425061E+02 -0.60126683922E+02  0.20054473418E+03  0.12500157938E+03 0.  0.
          2    1    1    2  501    0 -0.59742572342E+01 -0.55290448588E+02 -0.28030485180E+03  0.28576832469E+03  0.00000000000E+00 0. -1.
          1    1    1    2  502    0  0.11979068383E+03 -0.34282976472E+02  0.19223477739E+04  0.19263816065E+04  0.00000000000E+00 0. -1.
         22    1    3    3    0    0 -0.11934640429E+03  0.10282453912E+03 -0.21073625106E+02  0.15893567170E+03  0.00000000000E+00 0.  1.
         22    1    3    3    0    0  0.55299776990E+01 -0.13251114063E+02 -0.39053058815E+02  0.41609062476E+02  0.00000000000E+00 0.  1.
</event>
<event>
 7    1  0.4822463E-005  0.2945386E+03  0.7818608E-02  0.1117589E+00
          2   -1    0    0  502    0  0.00000000000E+00  0.00000000000E+00  0.12941566310E+04  0.12941566310E+04  0.00000000000E+00 0. -1.
          1   -1    0    0  501    0 -0.00000000000E+00 -0.00000000000E+00 -0.10150201114E+04  0.10150201114E+04  0.00000000000E+00 0. -1.
         25    2    1    2    0    0 -0.84893692129E+02  0.37971629356E+03  0.68515322097E+02  0.41438041071E+03  0.12500149144E+03 0.  0.
          2    1    1    2  501    0  0.19658737433E+03 -0.21256090688E+03 -0.80707292566E+03  0.85743538661E+03  0.00000000000E+00 0. -1.
          1    1    1    2  502    0 -0.11169368220E+03 -0.16715538668E+03  0.10176941232E+04  0.10373609450E+04  0.00000000000E+00 0. -1.
         22    1    3    3    0    0 -0.30069011142E+02  0.49540290864E+02  0.54247026735E+02  0.79379630634E+02  0.00000000000E+00 0. -1.
         22    1    3    3    0    0 -0.54824680987E+02  0.33017600270E+03  0.14268295362E+02  0.33500078008E+03  0.00000000000E+00 0. -1.
</event>
<event>
 7    1  0.4822463E-005  0.1077671E+03  0.7818608E-02  0.1306991E+00
          2   -1    0    0  502    0  0.00000000000E+00  0.00000000000E+00  0.24110098330E+04  0.24110098330E+04  0.00000000000E+00 0. -1.
          1   -1    0    0  501    0 -0.00000000000E+00 -0.00000000000E+00 -0.71476958806E+02  0.71476958806E+02  0.00000000000E+00 0. -1.
         25    2    1    2    0    0 -0.84360403218E+02  0.96259240759E+02  0.17229391824E+03  0.24838026393E+03  0.12500016874E+03 0.  0.
          2    1    1    2  501    0  0.71560278821E+02  0.10792806379E+02  0.87158857129E+01  0.72892556810E+02  0.00000000000E+00 0. -1.
          1    1    1    2  502    0  0.12800124397E+02 -0.10705204714E+03  0.21585230702E+04  0.21612139710E+04  0.00000000000E+00 0. -1.
         22    1    3    3    0    0  0.29465249501E+02 -0.65974644596E-01  0.34226153842E+02  0.45162317120E+02  0.00000000000E+00 0. -1.
         22    1    3    3    0    0 -0.11382565272E+03  0.96325215404E+02  0.13806776440E+03  0.20321794681E+03  0.00000000000E+00 0. -1.
</event>
<event>
 7    1  0.4822463E-005  0.5480435E+02  0.7818608E-02  0.1565762E+00
          2   -1    0    0  502    0  0.00000000000E+00  0.00000000000E+00  0.19542547809E+04  0.19542547809E+04  0.00000000000E+00 0. -1.
          1   -1    0    0  501    0 -0.00000000000E+00 -0.00000000000E+00 -0.76019638032E+03  0.76019638032E+03  0.00000000000E+00 0. -1.
         25    2    1    2    0    0  0.32553886169E+02 -0.12247832351E+02  0.14797730395E+04  0.14854505377E+04  0.12500114675E+03 0.  0.
          2    1    1    2  501    0 -0.51124743919E+02  0.19779941598E+02 -0.75615209425E+03  0.75813651486E+03  0.00000000000E+00 0. -1.
          1    1    1    2  502    0  0.18570857750E+02 -0.75321092465E+01  0.47043745536E+03  0.47086410867E+03  0.00000000000E+00 0. -1.
         22    1    3    3    0    0 -0.12048276041E+02  0.24558853341E+02  0.11703791408E+04  0.11706987792E+04  0.00000000000E+00 0. -1.
         22    1    3    3    0    0  0.44602162209E+02 -0.36806685692E+02  0.30939389868E+03  0.31475175858E+03  0.00000000000E+00 0. -1.
</event>
<event>
 7    1  0.4822463E-005  0.7874145E+03  0.7818608E-02  0.1011118E+00
          2   -1    0    0  502    0  0.00000000000E+00  0.00000000000E+00  0.17336764373E+04  0.17336764373E+04  0.00000000000E+00 0. -1.
          1   -1    0    0  501    0 -0.00000000000E+00 -0.00000000000E+00 -0.16035293413E+04  0.16035293413E+04  0.00000000000E+00 0. -1.
         25    2    1    2    0    0  0.10265646912E+04 -0.60021401531E+02  0.42289867833E+03  0.11188862912E+04  0.12500242672E+03 0.  0.
          2    1    1    2  501    0 -0.32973590061E+03  0.25837945588E+02 -0.11015851445E+04  0.11501665941E+04  0.00000000000E+00 0. -1.
          1    1    1    2  502    0 -0.69682879057E+03  0.34183455943E+02  0.80883356217E+03  0.10681528932E+04  0.00000000000E+00 0. -1.
         22    1    3    3    0    0  0.18913115115E+03  0.26691419695E+02  0.11190504836E+03  0.22137245554E+03  0.00000000000E+00 0. -1.
         22    1    3    3    0    0  0.83743354003E+03 -0.86712821226E+02  0.31099362997E+03  0.89751383567E+03  0.00000000000E+00 0. -1.
</event>
<event>
 7    1  0.4822463E-005  0.1407724E+04  0.7818608E-02  0.1098063E+00
          2   -1    0    0  502    0  0.00000000000E+00  0.00000000000E+00  0.24371326532E+04  0.24371326532E+04  0.00000000000E+00 0. -1.
          1   -1    0    0  501    0 -0.00000000000E+00 -0.00000000000E+00 -0.27238734753E+04  0.27238734753E+04  0.00000000000E+00 0. -1.
         25    2    1    2    0    0 -0.12067536087E+04 -0.65585066899E+03  0.21434256318E+03  0.13956941159E+04  0.12499983424E+03 0.  0.
          2    1    1    2  501    0  0.12603619100E+04  0.64940807938E+03 -0.18970277978E+04  0.23683237666E+04  0.00000000000E+00 0. -1.
          1    1    1    2  502    0 -0.53608301323E+02  0.64425896083E+01  0.13959444125E+04  0.13969882461E+04  0.00000000000E+00 0. -1.
         22    1    3    3    0    0 -0.98537564955E+03 -0.58848828080E+03  0.17665281579E+03  0.11612449546E+04  0.00000000000E+00 0.  1.
         22    1    3    3    0    0 -0.22137795915E+03 -0.67362388185E+02  0.37689747391E+02  0.23444916122E+03  0.00000000000E+00 0.  1.
</event>
<event>
 7    1  0.4822463E-005  0.5272596E+03  0.7818608E-02  0.1050724E+00
          2   -1    0    0  502    0  0.00000000000E+00  0.00000000000E+00  0.10121839355E+04  0.10121839355E+04  0.00000000000E+00 0. -1.
          1   -1    0    0  501    0 -0.00000000000E+00 -0.00000000000E+00 -0.94157846898E+03  0.94157846898E+03  0.00000000000E+00 0. -1.
         25    2    1    2    0    0 -0.49294539541E+03  0.31917850824E+03 -0.52819253080E+02  0.60273128854E+03  0.12500019881E+03 0.  0.
          2    1    1    2  501    0  0.51963289353E+03 -0.45788798726E+02 -0.46680299884E+03  0.70001428403E+03  0.00000000000E+00 0. -1.
          1    1    1    2  502    0 -0.26687498118E+02 -0.27338970952E+03  0.59022771841E+03  0.65101683189E+03  0.00000000000E+00 0. -1.
         22    1    3    3    0    0 -0.26903001808E+03  0.16369444787E+03 -0.90187539824E+02  0.32757718973E+03  0.00000000000E+00 0.  1.
         22    1    3    3    0    0 -0.22391537733E+03  0.15548406037E+03  0.37368286744E+02  0.27515409880E+03  0.00000000000E+00 0.  1.
</event>
<event>
 7    1  0.4822463E-005  0.8003334E+02  0.7818608E-02  0.1335954E+00
          2   -1    0    0  502    0  0.00000000000E+00  0.00000000000E+00  0.11633504319E+04  0.11633504319E+04  0.00000000000E+00 0. -1.
          1   -1    0    0  501    0 -0.00000000000E+00 -0.00000000000E+00 -0.29914022813E+03  0.29914022813E+03  0.00000000000E+00 0. -1.
         25    2    1    2    0    0  0.43739374750E+02 -0.55089362141E+02 -0.10630364838E+03  0.17853646794E+03  0.12500733579E+03 0.  0.
          2    1    1    2  501    0  0.23317251744E+02  0.89286897040E+02 -0.14175244454E+03  0.16914372511E+03  0.00000000000E+00 0. -1.
          1    1    1    2  502    0 -0.67056626494E+02 -0.34197534900E+02  0.11122662967E+04  0.11148104670E+04  0.00000000000E+00 0. -1.
         22    1    3    3    0    0  0.21097308892E+02  0.96573207788E+01  0.22681835118E+02  0.32447279261E+02  0.00000000000E+00 0. -1.
         22    1    3    3    0    0  0.22642065858E+02 -0.64746682919E+02 -0.12898548350E+03  0.14608918868E+03  0.00000000000E+00 0. -1.
</event>
<event>
 7    1  0.4822463E-005  0.1966385E+03  0.7818608E-02  0.1178026E+00
          2   -1    0    0  502    0  0.00000000000E+00  0.00000000000E+00  0.95916302832E+03  0.95916302832E+03  0.00000000000E+00 0. -1.
          1   -1    0    0  501    0 -0.00000000000E+00 -0.00000000000E+00 -0.20250904770E+04  0.20250904770E+04  0.00000000000E+00 0. -1.
         25    2    1    2    0    0 -0.19476510435E+03  0.38268892088E+02 -0.26807099799E+03  0.35621010050E+03  0.12500248702E+03 0.  0.
          2    1    1    2  501    0  0.26999181950E+02 -0.14416919637E+03 -0.16989998260E+04  0.17053193606E+04  0.00000000000E+00 0. -1.
          1    1    1    2  502    0  0.16776592240E+03  0.10590030428E+03  0.90114337522E+03  0.92272404427E+03  0.00000000000E+00 0. -1.
         22    1    3    3    0    0 -0.13582356427E+03  0.77555031434E+02 -0.22253728749E+03  0.27200306586E+03  0.00000000000E+00 0. -1.
         22    1    3    3    0    0 -0.58941540075E+02 -0.39286139346E+02 -0.45533710499E+02  0.84207034640E+02  0.00000000000E+00 0. -1.
</event>
<event>
 7    1  0.4822463E-005  0.1906227E+03  0.7818608E-02  0.1208094E+00
          2   -1    0    0  502    0  0.00000000000E+00  0.00000000000E+00  0.13140471270E+04  0.13140471270E+04  0.00000000000E+00 0. -1.
          1   -1    0    0  501    0 -0.00000000000E+00 -0.00000000000E+00 -0.64843802967E+02  0.64843802967E+02  0.00000000000E+00 0. -1.
         25    2    1    2    0    0 -0.16398481450E+03 -0.15916489034E+03  0.28492461962E+03  0.38604903094E+03  0.12500933455E+03 0.  0.
          2    1    1    2  501    0  0.10463644974E+03  0.68067365724E+02  0.59168611198E+03  0.60471018513E+03  0.00000000000E+00 0. -1.
          1    1    1    2  502    0  0.59348364762E+02  0.91097524611E+02  0.37259259244E+03  0.38813171389E+03  0.00000000000E+00 0. -1.
         22    1    3    3    0    0 -0.14819514402E+03 -0.76016508780E+02  0.23417812052E+03  0.28736684299E+03  0.00000000000E+00 0.  1.
         22    1    3    3    0    0 -0.15789670486E+02 -0.83148381555E+02  0.50746499093E+02  0.98682187955E+02  0.00000000000E+00 0.  1.
</event>
<event>
 7    1  0.4822463E-005  0.1735263E+03  0.7818608E-02  0.1184832E+00
          2   -1    0    0  502    0  0.00000000000E+00  0.00000000000E+00  0.25969680083E+04  0.25969680083E+04  0.00000000000E+00 0. -1.
          1   -1    0    0  501    0 -0.00000000000E+00 -0.00000000000E+00 -0.98862331530E+03  0.98862331530E+03  0.00000000000E+00 0. -1.
         25    2    1    2    0    0  0.39817095184E+02 -0.14017864933E+03  0.13068403081E+04  0.13208676292E+04  0.12499699198E+03 0.  0.
          2    1    1    2  501    0 -0.12601129475E+03 -0.88527970818E+02 -0.96380211844E+03  0.97602795632E+03  0.00000000000E+00 0. -1.
          1    1    1    2  502    0  0.86194199563E+02  0.22870662015E+03  0.12653065033E+04  0.12886957381E+04  0.00000000000E+00 0. -1.
         22    1    3    3    0    0  0.39169919443E+01 -0.27018773759E+02  0.39718974973E+02  0.48197032421E+02  0.00000000000E+00 0.  1.
         22    1    3    3    0    0  0.35900103240E+02 -0.11315987557E+03  0.12671213332E+04  0.12726705968E+04  0.00000000000E+00 0.  1.
</event>
<event>
 7    1  0.4822463E-005  0.8581284E+02  0.7818608E-02  0.1333634E+00
          2   -1    0    0  502    0  0.00000000000E+00  0.00000000000E+00  0.65039380598E+03  0.65039380598E+03  0.00000000000E+00 0. -1.
          1   -1    0    0  501    0 -0.00000000000E+00 -0.00000000000E+00 -0.55364549389E+02  0.55364549389E+02  0.00000000000E+00 0. -1.
         25    2    1    2    0    0 -0.41055651768E+02 -0.10929797623E+03  0.13349668320E+03  0.21697469259E+03  0.12500015461E+03 0.  0.
          2    1    1    2  501    0  0.65700456262E+02  0.28561579345E+02  0.15351310451E+03  0.16940657314E+03  0.00000000000E+00 0. -1.
          1    1    1    2  502    0 -0.24644804495E+02  0.80736396885E+02  0.30801946889E+03  0.31937708963E+03  0.00000000000E+00 0. -1.
         22    1    3    3    0    0 -0.45125411299E+02 -0.12256250808E+02  0.10627162879E+03  0.11610416666E+03  0.00000000000E+00 0.  1.
         22    1    3    3    0    0  0.40697595317E+01 -0.97041725422E+02  0.27225054404E+02  0.10087052594E+03  0.00000000000E+00 0.  1.
</event>
<event>
 7    1  0.4822463E-005  0.2248497E+03  0.7818608E-02  0.1270843E+00
          2   -1    0    0  502    0  0.00000000000E+00  0.00000000000E+00  0.34981962902E+02  0.34981962902E+02  0.00000000000E+00 0. -1.
          1   -1    0    0  501    0 -0.00000000000E+00 -0.00000000000E+00 -0.51787952098E+04  0.51787952098E+04  0.00000000000E+00 0. -1.
         25    2    1    2    0    0  0.21598722075E+03  0.10862504621E+03 -0.37857769166E+04  0.37955476271E+04  0.12500018963E+03 0.  0.
          2    1    1    2  501    0 -0.39539043292E+02  0.28416208416E+02 -0.96426286518E+03  0.96549142410E+03  0.00000000000E+00 0. -1.
          1    1    1    2  502    0 -0.17644817746E+03 -0.13704125462E+03 -0.39377346511E+03  0.45273812146E+03  0.00000000000E+00 0. -1.
         22    1    3    3    0    0  0.38138714377E+01  0.36014323796E+02 -0.10392197801E+04  0.10398506280E+04  0.00000000000E+00 0.  1.
         22    1    3    3    0    0  0.21217334931E+03  0.72610722413E+02 -0.27465571365E+04  0.27556969992E+04  0.00000000000E+00 0.  1.
</event>
<event>
 7    1  0.4822463E-005  0.3329997E+03  0.7818608E-02  0.1204994E+00
          2   -1    0    0  502    0  0.00000000000E+00  0.00000000000E+00  0.37824954314E+03  0.37824954314E+03  0.00000000000E+00 0. -1.
          1   -1    0    0  501    0 -0.00000000000E+00 -0.00000000000E+00 -0.48113445170E+03  0.48113445170E+03  0.00000000000E+00 0. -1.
         25    2    1    2    0    0 -0.25078142806E+03  0.26319196791E+03  0.86396384394E+02  0.39401715700E+03  0.12499539249E+03 0.  0.
          2    1    1    2  501    0  0.44641106551E+02 -0.46340990815E+02 -0.15048710001E+03  0.16366637741E+03  0.00000000000E+00 0. -1.
          1    1    1    2  502    0  0.20614032151E+03 -0.21685097709E+03 -0.38794192940E+02  0.30170046043E+03  0.00000000000E+00 0. -1.
         22    1    3    3    0    0 -0.19312017089E+03  0.25744879446E+03  0.50275301344E+02  0.32573438274E+03  0.00000000000E+00 0.  1.
         22    1    3    3    0    0 -0.57661257169E+02  0.57431734424E+01  0.36121083050E+02  0.68282774256E+02  0.00000000000E+00 0.  1.
</event>
<event>
 7    1  0.4822463E-005  0.1942842E+03  0.7818608E-02  0.1199245E+00
          2   -1    0    0  502    0  0.00000000000E+00  0.00000000000E+00  0.30054431495E+03  0.30054431495E+03  0.00000000000E+00 0. -1.
          1   -1    0    0  501    0 -0.00000000000E+00 -0.00000000000E+00 -0.14852735323E+04  0.14852735323E+04  0.00000000000E+00 0. -1.
         25    2    1    2    0    0 -0.39052525031E+02 -0.24470944697E+03 -0.37071854304E+03  0.46310557849E+03  0.12500690190E+03 0.  0.
          2    1    1    2  501    0 -0.74838717646E+02  0.90408839520E+02 -0.10283922764E+04  0.10350677591E+04  0.00000000000E+00 0. -1.
          1    1    1    2  502    0  0.11389124268E+03  0.15430060745E+03  0.21438160205E+03  0.28764450962E+03  0.00000000000E+00 0. -1.
         22    1    3    3    0    0  0.95148976251E+00 -0.17100522857E+03 -0.32584733756E+03  0.36799481100E+03  0.00000000000E+00 0.  1.
         22    1    3    3    0    0 -0.40004014793E+02 -0.73704218403E+02 -0.44871205482E+02  0.95110767484E+02  0.00000000000E+00 0.  1.
</event>
<event>
 7    1  0.4822463E-005  0.6829939E+02  0.7818608E-02  0.1441346E+00
          2   -1    0    0  502    0  0.00000000000E+00  0.00000000000E+00  0.22778677181E+04  0.22778677181E+04  0.00000000000E+00 0. -1.
          1   -1    0    0  501    0 -0.00000000000E+00 -0.00000000000E+00 -0.17441023396E+04  0.17441023396E+04  0.00000000000E+00 0. -1.
         25    2    1    2    0    0  0.77201508651E+02 -0.44119007430E+02  0.19699706371E+04  0.19759342709E+04  0.12500148726E+03 0.  0.
          2    1    1    2  501    0 -0.27731164845E+02  0.25550820348E+02 -0.17386253225E+04  0.17390341785E+04  0.00000000000E+00 0. -1.
          1    1    1    2  502    0 -0.49470343806E+02  0.18568187082E+02  0.30242006387E+03  0.30700160833E+03  0.00000000000E+00 0. -1.
         22    1    3    3    0    0  0.36655593179E+02 -0.75235740763E+02  0.70802021213E+03  0.71294927588E+03  0.00000000000E+00 0.  1.
         22    1    3    3    0    0  0.40545915472E+02  0.31116733333E+02  0.12619504250E+04  0.12629849950E+04  0.00000000000E+00 0.  1.
</event>
<event>
 7    1  0.4822463E-005  0.2668852E+03  0.7818608E-02  0.1144461E+00
          2   -1    0    0  502    0  0.00000000000E+00  0.00000000000E+00  0.66483178125E+03  0.66483178125E+03  0.00000000000E+00 0. -1.
          1   -1    0    0  501    0 -0.00000000000E+00 -0.00000000000E+00 -0.54556912257E+03  0.54556912257E+03  0.00000000000E+00 0. -1.
         25    2    1    2    0    0  0.15232868683E+03 -0.14672738354E+03  0.32065364353E+02  0.24775240957E+03  0.12498045826E+03 0.  0.
          2    1    1    2  501    0  0.13882364608E+03  0.78739886761E+02 -0.37762783784E+03  0.40996921640E+03  0.00000000000E+00 0. -1.
          1    1    1    2  502    0 -0.29115233291E+03  0.67987496783E+02  0.46482513216E+03  0.55267927785E+03  0.00000000000E+00 0. -1.
         22    1    3    3    0    0  0.10631372340E+03 -0.70897308264E+02  0.76095013129E+02  0.14872621533E+03  0.00000000000E+00 0. -1.
         22    1    3    3    0    0  0.46014963426E+02 -0.75830075279E+02 -0.44029648776E+02  0.99026194248E+02  0.00000000000E+00 0. -1.
</event>
<event>
 7    1  0.4822463E-005  0.3153315E+03  0.7818608E-02  0.1196742E+00
          2   -1    0    0  502    0  0.00000000000E+00  0.00000000000E+00  0.13662804433E+04  0.13662804433E+04  0.00000000000E+00 0. -1.
          1   -1    0    0  501    0 -0.00000000000E+00 -0.00000000000E+00 -0.16157762311E+04  0.16157762311E+04  0.00000000000E+00 0. -1.
         25    2    1    2    0    0 -0.11223450943E+03 -0.31873152327E+03  0.99846740043E+03  0.10614840781E+04  0.12499971692E+03 0.  0.
          2    1    1    2  501    0 -0.14045153256E+02  0.72971351945E+02 -0.15264585297E+04  0.15282662489E+04  0.00000000000E+00 0. -1.
          1    1    1    2  502    0  0.12627966268E+03  0.24576017133E+03  0.27849534144E+03  0.39230634742E+03  0.00000000000E+00 0. -1.
         22    1    3    3    0    0  0.22281312025E+02 -0.23347099022E+02  0.14092766227E+03  0.14457575831E+03  0.00000000000E+00 0.  1.
         22    1    3    3    0    0 -0.13451582145E+03 -0.29538442425E+03  0.85753973816E+03  0.91690831976E+03  0.00000000000E+00 0.  1.
</event>
<event>
 7    1  0.4822463E-005  0.2014130E+03  0.7818608E-02  0.1238361E+00
          2   -1    0    0  502    0  0.00000000000E+00  0.00000000000E+00  0.63174596104E+03  0.63174596104E+03  0.00000000000E+00 0. -1.
          1   -1    0    0  501    0 -0.00000000000E+00 -0.00000000000E+00 -0.26915144471E+03  0.26915144471E+03  0.00000000000E+00 0. -1.
         25    2    1    2    0    0 -0.25595316527E+03 -0.22938404485E+02 -0.20316996541E+02  0.28649099777E+03  0.12500447289E+03 0.  0.
          2    1    1    2  501    0  0.62089199421E+02  0.42093568059E+02 -0.81515020438E+02  0.11077741518E+03  0.00000000000E+00 0. -1.
          1    1    1    2  502    0  0.19386396585E+03 -0.19155163574E+02  0.46442653331E+03  0.50362899280E+03  0.00000000000E+00 0. -1.
         22    1    3    3    0    0 -0.53386085512E+02  0.46659534941E+02  0.34500923308E+01  0.70986544248E+02  0.00000000000E+00 0. -1.
         22    1    3    3    0    0 -0.20256707975E+03 -0.69597939426E+02 -0.23767088872E+02  0.21550445352E+03  0.00000000000E+00 0. -1.
</event>
<event>
 7    1  0.4822463E-005  0.7459789E+02  0.7818608E-02  0.1365782E+00
          2   -1    0    0  502    0  0.00000000000E+00  0.00000000000E+00  0.17708194283E+03  0.17708194283E+03  0.00000000000E+00 0. -1.
          1   -1    0    0  501    0 -0.00000000000E+00 -0.00000000000E+00 -0.16952605945E+04  0.16952605945E+04  0.00000000000E+00 0. -1.
         25    2    1    2    0    0  0.10229011131E+03 -0.72571414759E+02 -0.17644938535E+02  0.17795794001E+03  0.12501122927E+03 0.  0.
          2    1    1    2  501    0 -0.40543742421E+02  0.62073927900E+02 -0.15863840428E+04  0.15881156441E+04  0.00000000000E+00 0. -1.
          1    1    1    2  502    0 -0.61746368889E+02  0.10497486859E+02  0.85850329744E+02  0.10626895322E+03  0.00000000000E+00 0. -1.
         22    1    3    3    0    0  0.21789077771E+02  0.55621554976E+01 -0.55240067347E+02  0.59641986255E+02  0.00000000000E+00 0. -1.
         22    1    3    3    0    0  0.80501033539E+02 -0.78133570256E+02  0.37595128812E+02  0.11831595375E+03  0.00000000000E+00 0. -1.
</event>
<event>
 7    1  0.4822463E-005  0.4489783E+03  0.7818608E-02  0.1166556E+00
          2   -1    0    0  502    0  0.00000000000E+00  0.00000000000E+00  0.12139909557E+04  0.12139909557E+04  0.00000000000E+00 0. -1.
          1   -1    0    0  501    0 -0.00000000000E+00 -0.00000000000E+00 -0.13731090117E+04  0.13731090117E+04  0.00000000000E+00 0. -1.
         25    2    1    2    0    0 -0.36329622333E+03  0.27575905831E+03 -0.82252489169E+03  0.94878840007E+03  0.12500010611E+03 0.  0.
          2    1    1    2  501    0  0.53920903572E+02  0.49513151253E+02 -0.44054180940E+03  0.44658269315E+03  0.00000000000E+00 0. -1.
          1    1    1    2  502    0  0.30937531975E+03 -0.32527220956E+03  0.11039486451E+04  0.11917288743E+04  0.00000000000E+00 0. -1.
         22    1    3    3    0    0 -0.45319811680E+02  0.97958391156E+02 -0.20991197200E+03  0.23603552215E+03  0.00000000000E+00 0. -1.
         22    1    3    3    0    0 -0.31797641165E+03  0.17780066715E+03 -0.61261291969E+03  0.71275287791E+03  0.00000000000E+00 0. -1.
</event>
<event>
 7    1  0.4822463E-005  0.2329466E+03  0.7818608E-02  0.1250364E+00
          2   -1    0    0  502    0  0.00000000000E+00  0.00000000000E+00  0.29887292201E+03  0.29887292201E+03  0.00000000000E+00 0. -1.
          1   -1    0    0  501    0 -0.00000000000E+00 -0.00000000000E+00 -0.41356192983E+03  0.41356192983E+03  0.00000000000E+00 0. -1.
         25    2    1    2    0    0 -0.20107247303E+03 -0.10460927891E+03  0.10100670760E+03  0.27783071035E+03  0.12495722463E+03 0.  0.
          2    1    1    2  501    0 -0.38243117314E+02  0.42893199198E+02 -0.17491978615E+03  0.18411760955E+03  0.00000000000E+00 0. -1.
          1    1    1    2  502    0  0.23931559035E+03  0.61716079716E+02 -0.40775929267E+02  0.25048653195E+03  0.00000000000E+00 0. -1.
         22    1    3    3    0    0 -0.15528497531E+02  0.75146037321E+00  0.58156862372E+02  0.60198999735E+02  0.00000000000E+00 0. -1.
         22    1    3    3    0    0 -0.18554397550E+03 -0.10536073929E+03  0.42849845230E+02  0.21763171061E+03  0.00000000000E+00 0. -1.
</event>
<event>
 7    1  0.4822463E-005  0.1092396E+03  0.7818608E-02  0.1319394E+00
          2   -1    0    0  502    0  0.00000000000E+00  0.00000000000E+00  0.26929789002E+03  0.26929789002E+03  0.00000000000E+00 0. -1.
          1   -1    0    0  501    0 -0.00000000000E+00 -0.00000000000E+00 -0.41523548146E+03  0.41523548146E+03  0.00000000000E+00 0. -1.
         25    2    1    2    0    0 -0.11126821041E+01 -0.70776357217E+02  0.91179651493E+02  0.17014870034E+03  0.12500528221E+03 0.  0.
          2    1    1    2  501    0 -0.57168897435E+02  0.96805563947E+02 -0.35932997095E+03  0.37650714212E+03  0.00000000000E+00 0. -1.
          1    1    1    2  502    0  0.58281579539E+02 -0.26029206729E+02  0.12221272802E+03  0.13787752902E+03  0.00000000000E+00 0. -1.
         22    1    3    3    0    0 -0.22457189678E+02 -0.95576520174E+02  0.95715209383E+02  0.13711527225E+03  0.00000000000E+00 0.  1.
         22    1    3    3    0    0  0.21344507574E+02  0.24800162956E+02 -0.45355578909E+01  0.33033428093E+02  0.00000000000E+00 0.  1.
</event>
<event>
 7    1  0.4822463E-005  0.2154738E+03  0.7818608E-02  0.1166800E+00
          2   -1    0    0  502    0  0.00000000000E+00  0.00000000000E+00  0.36630940288E+03  0.36630940288E+03  0.00000000000E+00 0. -1.
          1   -1    0    0  501    0 -0.00000000000E+00 -0.00000000000E+00 -0.37649160645E+03  0.37649160645E+03  0.00000000000E+00 0. -1.
         25    2    1    2    0    0 -0.12647265048E+03 -0.24061251052E+03 -0.19138867829E+03  0.35516859344E+03  0.12500156817E+03 0.  0.
          2    1    1    2  501    0 -0.56461080973E+01  0.16523409464E+03  0.20902192302E+02  0.16664659076E+03  0.00000000000E+00 0. -1.
          1    1    1    2  502    0  0.13211875858E+03  0.75378415876E+02  0.16030428242E+03  0.22098582513E+03  0.00000000000E+00 0. -1.
         22    1    3    3    0    0 -0.14351105382E+03 -0.17625054527E+03 -0.11804898804E+03  0.25611567866E+03  0.00000000000E+00 0. -1.
         22    1    3    3    0    0  0.17038403341E+02 -0.64361965245E+02 -0.73339690256E+02  0.99052914775E+02  0.00000000000E+00 0. -1.
</event>
<event>
 7    1  0.4822463E-005  0.2993066E+03  0.7818608E-02  0.1208414E+00
          2   -1    0    0  502    0  0.00000000000E+00  0.00000000000E+00  0.15805995096E+04  0.15805995096E+04  0.00000000000E+00 0. -1.
          1   -1    0    0  501    0 -0.00000000000E+00 -0.00000000000E+00 -0.16150738704E+03  0.16150738704E+03  0.00000000000E+00 0. -1.
         25    2    1    2    0    0 -0.55804595716E+02  0.33254175404E+03  0.45431252300E+03  0.57941532960E+03  0.12499633809E+03 0.  0.
          2    1    1    2  501    0  0.87522579785E+02 -0.27125561169E+03  0.11060498684E+03  0.30573398889E+03  0.00000000000E+00 0. -1.
          1    1    1    2  502    0 -0.31717984069E+02 -0.61286142344E+02  0.85417461274E+03  0.85695757819E+03  0.00000000000E+00 0. -1.
         22    1    3    3    0    0  0.38033982358E+02  0.11318428131E+03  0.17816032555E+03  0.21447229879E+03  0.00000000000E+00 0.  1.
         22    1    3    3    0    0 -0.93838578075E+02  0.21935747272E+03  0.27615219745E+03  0.36494303080E+03  0.00000000000E+00 0.  1.
</event>
<event>
 7    1  0.4822463E-005  0.3323326E+03  0.7818608E-02  0.1127932E+00
          2   -1    0    0  502    0  0.00000000000E+00  0.00000000000E+00  0.17014271525E+03  0.17014271525E+03  0.00000000000E+00 0. -1.
          1   -1    0    0  501    0 -0.00000000000E+00 -0.00000000000E+00 -0.27072878241E+04  0.27072878241E+04  0.00000000000E+00 0. -1.
         25    2    1    2    0    0  0.29784549850E+03  0.57847145114E+02 -0.13173407596E+04  0.13575962700E+04  0.12499088896E+03 0.  0.
          2    1    1    2  501    0  0.29569401478E+02 -0.15384308155E+03 -0.11635278042E+04  0.11740268286E+04  0.00000000000E+00 0. -1.
          1    1    1    2  502    0 -0.32741489998E+03  0.95995936431E+02 -0.56276545110E+02  0.34580744074E+03  0.00000000000E+00 0. -1.
         22    1    3    3    0    0  0.20437642564E+03  0.28316386618E+02 -0.62074454759E+03  0.65413709150E+03  0.00000000000E+00 0. -1.
         22    1    3    3    0    0  0.93469072860E+02  0.29530758496E+02 -0.69659621198E+03  0.70345917850E+03  0.00000000000E+00 0. -1.
</event>
<event>
 7    1  0.4822463E-005  0.5576695E+03  0.7818608E-02  0.1141281E+00
          2   -1    0    0  502    0  0.00000000000E+00  0.00000000000E+00  0.92951635266E+03  0.92951635266E+03  0.00000000000E+00 0. -1.
          1   -1    0    0  501    0 -0.00000000000E+00 -0.00000000000E+00 -0.12543853114E+04  0.12543853114E+04  0.00000000000E+00 0. -1.
         25    2    1    2    0    0 -0.55514921936E+03 -0.17158335803E+03 -0.83292009305E+03  0.10232359164E+04  0.12499741892E+03 0.  0.
          2    1    1    2  501    0  0.47625318378E+03  0.18006493953E+03 -0.12368616851E+03  0.52396445088E+03  0.00000000000E+00 0. -1.
          1    1    1    2  502    0  0.78896035582E+02 -0.84815815023E+01  0.63173730276E+03  0.63670129681E+03  0.00000000000E+00 0. -1.
         22    1    3    3    0    0 -0.20300231818E+03 -0.32447234527E+02 -0.20725698502E+03  0.29192160259E+03  0.00000000000E+00 0.  1.
         22    1    3    3    0    0 -0.35214690118E+03 -0.13913612350E+03 -0.62566310802E+03  0.73131431383E+03  0.00000000000E+00 0.  1.
</event>
<event>
 7    1  0.4822463E-005  0.1045037E+04  0.7818608E-02  0.1169904E+00
          2   -1    0    0  502    0  0.00000000000E+00  0.00000000000E+00  0.24323230979E+04  0.24323230979E+04  0.00000000000E+00 0. -1.
          1   -1    0    0  501    0 -0.00000000000E+00 -0.00000000000E+00 -0.14738580818E+04  0.14738580818E+04  0.00000000000E+00 0. -1.
         25    2    1    2    0    0  0.10551368216E+03  0.10512612918E+04 -0.55948662949E+03  0.12020540008E+04  0.12500036590E+03 0.  0.
          2    1    1    2  501    0 -0.11528206278E+03 -0.10226149083E+04 -0.14644083553E+03  0.10394595341E+04  0.00000000000E+00 0. -1.
          1    1    1    2  502    0  0.97683806246E+01 -0.28646383542E+02  0.16643924811E+04  0.16646676448E+04  0.00000000000E+00 0. -1.
         22    1    3    3    0    0  0.34774224623E+02  0.66187856161E+02 -0.56644987189E+02  0.93801564886E+02  0.00000000000E+00 0.  1.
         22    1    3    3    0    0  0.70739457538E+02  0.98507343566E+03 -0.50284164230E+03  0.11082524359E+04  0.00000000000E+00 0.  1.
</event>
<event>
 7    1  0.4822463E-005  0.4161763E+02  0.7818608E-02  0.1541722E+00
          2   -1    0    0  502    0  0.00000000000E+00  0.00000000000E+00  0.66340190663E+03  0.66340190663E+03  0.00000000000E+00 0. -1.
          1   -1    0    0  501    0 -0.00000000000E+00 -0.00000000000E+00 -0.99405709999E+03  0.99405709999E+03  0.00000000000E+00 0. -1.
         25    2    1    2    0    0  0.81699420980E+01 -0.13774436293E+02  0.58868386291E+02  0.13909226360E+03  0.12499875135E+03 0.  0.
          2    1    1    2  501    0 -0.38912935383E+02  0.15131959286E+02 -0.95306833785E+03  0.95398241564E+03  0.00000000000E+00 0. -1.
          1    1    1    2  502    0  0.30742993285E+02 -0.13575229931E+01  0.56354475820E+03  0.56438432738E+03  0.00000000000E+00 0. -1.
         22    1    3    3    0    0 -0.53374185926E+02  0.10973250384E+02  0.71044265060E+01  0.54951695362E+02  0.00000000000E+00 0.  1.
         22    1    3    3    0    0  0.61544128024E+02 -0.24747686677E+02  0.51763959785E+02  0.84140568233E+02  0.00000000000E+00 0.  1.
</event>
<event>
 7    1  0.4822463E-005  0.4450537E+03  0.7818608E-02  0.1041419E+00
          2   -1    0    0  502    0  0.00000000000E+00  0.00000000000E+00  0.22981565101E+04  0.22981565101E+04  0.00000000000E+00 0. -1.
          1   -1    0    0  501    0 -0.00000000000E+00 -0.00000000000E+00 -0.69151772402E+03  0.69151772402E+03  0.00000000000E+00 0. -1.
         25    2    1    2    0    0 -0.44569304236E+03  0.54701186359E+03  0.38250860070E+03  0.81228211168E+03  0.12500052975E+03 0.  0.
          2    1    1    2  501    0  0.36942462304E+03 -0.18290919102E+03 -0.36176142245E+03  0.54845387321E+03  0.00000000000E+00 0. -1.
          1    1    1    2  502    0  0.76268419317E+02 -0.36410267257E+03  0.15858916079E+04  0.16289382493E+04  0.00000000000E+00 0. -1.
         22    1    3    3    0    0 -0.34508974253E+01 -0.59978870600E+01 -0.10159748396E+01  0.69939650485E+01  0.00000000000E+00 0.  1.
         22    1    3    3    0    0 -0.44224214493E+03  0.55300975065E+03  0.38352457554E+03  0.80528814664E+03  0.00000000000E+00 0.  1.
</event>
<event>
 7    1  0.4822463E-005  0.1053996E+04  0.7818608E-02  0.1171892E+00
          2   -1    0    0  502    0  0.00000000000E+00  0.00000000000E+00  0.16495907980E+04  0.16495907980E+04  0.00000000000E+00 0. -1.
          1   -1    0    0  501    0 -0.00000000000E+00 -0.00000000000E+00 -0.26280274161E+04  0.26280274161E+04  0.00000000000E+00 0. -1.
         25    2    1    2    0    0  0.55777046030E+03 -0.89154286947E+03 -0.13416731500E+04  0.17092892487E+04  0.12500527905E+03 0.  0.
          2    1    1    2  501    0 -0.58508988568E+03  0.88085567044E+03 -0.84877008497E+03  0.13559673829E+04  0.00000000000E+00 0. -1.
          1    1    1    2  502    0  0.27319425379E+02  0.10687199033E+02  0.12120066169E+04  0.12123615825E+04  0.00000000000E+00 0. -1.
         22    1    3    3    0    0  0.24492235628E+03 -0.50510286067E+03 -0.68539125300E+03  0.88593285872E+03  0.00000000000E+00 0.  1.
         22    1    3    3    0    0  0.31284810403E+03 -0.38644000880E+03 -0.65628189702E+03  0.82335639000E+03  0.00000000000E+00 0.  1.
</event>
<event>
 7    1  0.4822463E-005  0.1098463E+04  0.7818608E-02  0.1137514E+00
          2   -1    0    0  502    0  0.00000000000E+00  0.00000000000E+00  0.22821726139E+04  0.22821726139E+04  0.00000000000E+00 0. -1.
          1   -1    0    0  501    0 -0.00000000000E+00 -0.00000000000E+00 -0.18123012050E+04  0.18123012050E+04  0.00000000000E+00 0. -1.
         25    2    1    2    0    0  0.81191753175E+03 -0.78698638856E+03 -0.10764856906E+03  0.11427025848E+04  0.12499331509E+03 0.  0.
          2    1    1    2  501    0 -0.36290816215E+02  0.21456770263E+02 -0.10183942215E+04  0.10192665043E+04  0.00000000000E+00 0. -1.
          1    1    1    2  502    0 -0.77562671553E+03  0.76552961830E+03  0.15959141995E+04  0.19325047297E+04  0.00000000000E+00 0. -1.
         22    1    3    3    0    0  0.40777297461E+03 -0.46429330666E+03 -0.96396228408E+02  0.62541130969E+03  0.00000000000E+00 0. -1.
         22    1    3    3    0    0  0.40414455713E+03 -0.32269308189E+03 -0.11252340656E+02  0.51729127514E+03  0.00000000000E+00 0. -1.
</event>
<event>
 7    1  0.4822463E-005  0.2539984E+03  0.7818608E-02  0.1280949E+00
          2   -1    0    0  502    0  0.00000000000E+00  0.00000000000E+00  0.24518711370E+04  0.24518711370E+04  0.00000000000E+00 0. -1.
          1   -1    0    0  501    0 -0.00000000000E+00 -0.00000000000E+00 -0.56507484957E+03  0.56507484957E+03  0.00000000000E+00 0. -1.
         25    2    1    2    0    0  0.51009567267E+02  0.24908586180E+03  0.23992198611E+04  0.24158903600E+04  0.12499818938E+03 0.  0.
          2    1    1    2  501    0  0.34431758102E+02 -0.18583744982E+02 -0.19857180107E+03  0.20238987555E+03  0.00000000000E+00 0. -1.
          1    1    1    2  502    0 -0.85441325368E+02 -0.23050211682E+03 -0.31385177252E+03  0.39866575105E+03  0.00000000000E+00 0. -1.
         22    1    3    3    0    0  0.44373599741E+02  0.10217921157E+03  0.57096282408E+03  0.58172859145E+03  0.00000000000E+00 0. -1.
         22    1    3    3    0    0  0.66359675258E+01  0.14690665023E+03  0.18282570370E+04  0.18341617686E+04  0.00000000000E+00 0. -1.
</event>
<event>
 7    1  0.4822463E-005  0.3459627E+03  0.7818608E-02  0.1260019E+00
          2   -1    0    0  502    0  0.00000000000E+00  0.00000000000E+00  0.24053530692E+04  0.24053530692E+04  0.00000000000E+00 0. -1.
          1   -1    0    0  501    0 -0.00000000000E+00 -0.00000000000E+00 -0.23392421524E+03  0.23392421524E+03  0.00000000000E+00 0. -1.
         25    2    1    2    0    0 -0.31320340342E+03 -0.20402208107E+03  0.52330669456E+03  0.65513075484E+03  0.12500011159E+03 0.  0.
          2    1    1    2  501    0  0.25475712105E+02  0.24239018280E+02 -0.15011729003E+03  0.15418087651E+03  0.00000000000E+00 0. -1.
          1    1    1    2  502    0  0.28772769131E+03  0.17978306279E+03  0.17982394494E+04  0.18299656531E+04  0.00000000000E+00 0. -1.
         22    1    3    3    0    0 -0.23858478657E+03 -0.19041273170E+03  0.34096661586E+03  0.45764390295E+03  0.00000000000E+00 0. -1.
         22    1    3    3    0    0 -0.74618616846E+02 -0.13609349361E+02  0.18234007869E+03  0.19748685189E+03  0.00000000000E+00 0. -1.
</event>
<event>
 7    1  0.4822463E-005  0.2355418E+03  0.7818608E-02  0.1166843E+00
          2   -1    0    0  502    0  0.00000000000E+00  0.00000000000E+00  0.19661134709E+04  0.19661134709E+04  0.00000000000E+00 0. -1.
          1   -1    0    0  501    0 -0.00000000000E+00 -0.00000000000E+00 -0.11123992875E+03  0.11123992875E+03  0.00000000000E+00 0. -1.
         25    2    1    2    0    0 -0.12690377055E+03  0.33576204583E+03  0.37926276076E+03  0.53694135719E+03  0.12500024385E+03 0.  0.
          2    1    1    2  501    0  0.61350382666E+02 -0.12481937456E+03  0.18724818848E+03  0.23325014428E+03  0.00000000000E+00 0. -1.
          1    1    1    2  502    0  0.65553387884E+02 -0.21094267127E+03  0.12883625929E+04  0.13071618981E+04  0.00000000000E+00 0. -1.
         22    1    3    3    0    0 -0.83012146573E+02  0.74245195710E+02  0.14704785705E+03  0.18446256484E+03  0.00000000000E+00 0.  1.
         22    1    3    3    0    0 -0.43891623977E+02  0.26151685012E+03  0.23221490371E+03  0.35247879235E+03  0.00000000000E+00 0.  1.
</event>
<event>
 7    1  0.4822463E-005  0.4999761E+03  0.7818608E-02  0.1267290E+00
          2   -1    0    0  502    0  0.00000000000E+00  0.00000000000E+00  0.30166941669E+04  0.30166941669E+04  0.00000000000E+00 0. -1.
          1   -1    0    0  501    0 -0.00000000000E+00 -0.00000000000E+00 -0.11525670686E+04  0.11525670686E+04  0.00000000000E+00 0. -1.
         25    2    1    2    0    0  0.19012660202E+03 -0.48355904274E+03  0.14708685561E+04  0.15649463148E+04  0.12500074543E+03 0.  0.
          2    1    1    2  501    0 -0.19176251501E+03  0.46095423332E+03 -0.10490697858E+04  0.11618085397E+04  0.00000000000E+00 0. -1.
          1    1    1    2  502    0  0.16359129907E+01  0.22604809417E+02  0.14423283280E+04  0.14425063810E+04  0.00000000000E+00 0. -1.
         22    1    3    3    0    0  0.24589493540E+02 -0.19725247078E+03  0.65820823738E+03  0.68756909775E+03  0.00000000000E+00 0.  1.
         22    1    3    3    0    0  0.16553710848E+03 -0.28630657196E+03  0.81266031872E+03  0.87737721708E+03  0.00000000000E+00 0.  1.
</event>
<event>
 7    1  0.4822463E-005  0.6693733E+02  0.7818608E-02  0.1483127E+00
          2   -1    0    0  502    0  0.00000000000E+00  0.00000000000E+00  0.10224192167E+03  0.10224192167E+03  0.00000000000E+00 0. -1.
          1   -1    0    0  501    0 -0.00000000000E+00 -0.00000000000E+00 -0.22106494332E+03  0.22106494332E+03  0.00000000000E+00 0. -1.
         25    2    1    2    0    0  0.29779574437E+02 -0.31772468818E+02 -0.16738758166E+03  0.21340245755E+03  0.12500277423E+03 0.  0.
          2    1    1    2  501    0  0.60498611503E+01 -0.27777627963E+02  0.84402285698E+01  0.29655267550E+02  0.00000000000E+00 0. -1.
          1    1    1    2  502    0 -0.35829435588E+02  0.59550096781E+02  0.40124331438E+02  0.80249139899E+02  0.00000000000E+00 0. -1.
         22    1    3    3    0    0  0.23547818836E+02  0.31608802980E+02 -0.59573622446E+01  0.39863596962E+02  0.00000000000E+00 0.  1.
         22    1    3    3    0    0  0.62317556012E+01 -0.63381271799E+02 -0.16143021942E+03  0.17353886059E+03  0.00000000000E+00 0.  1.
</event>
<event>
 7    1  0.4822463E-005  0.4470914E+03  0.7818608E-02  0.1227830E+00
          2   -1    0    0  502    0  0.00000000000E+00  0.00000000000E+00  0.41950109952E+03  0.41950109952E+03  0.00000000000E+00 0. -1.
          1   -1    0    0  501    0 -0.00000000000E+00 -0.00000000000E+00 -0.13514387057E+04  0.13514387057E+04  0.00000000000E+00 0. -1.
         25    2    1    2    0    0 -0.33296395563E+03 -0.27017579823E+03 -0.13281981962E+03  0.46596808445E+03  0.12500077414E+03 0.  0.
          2    1    1    2  501    0  0.33189746311E+03  0.30781434750E+03 -0.10015358550E+04  0.10990812833E+04  0.00000000000E+00 0. -1.
          1    1    1    2  502    0  0.10664925287E+01 -0.37638549267E+02  0.20241806844E+03  0.20589043743E+03  0.00000000000E+00 0. -1.
         22    1    3    3    0    0 -0.69138686134E+02 -0.13132654473E+03 -0.39724192236E+02  0.15363863681E+03  0.00000000000E+00 0. -1.
         22    1    3    3    0    0 -0.26382526950E+03 -0.13884925351E+03 -0.93095627383E+02  0.31232944764E+03  0.00000000000E+00 0. -1.
</event>
<event>
 7    1  0.4822463E-005  0.3886662E+03  0.7818608E-02  0.1100352E+00
          2   -1    0    0  502    0  0.00000000000E+00  0.00000000000E+00  0.11639752264E+04  0.11639752264E+04  0.00000000000E+00 0. -1.
          1   -1    0    0  501    0 -0.00000000000E+00 -0.00000000000E+00 -0.96100596599E+03  0.96100596599E+03  0.00000000000E+00 0. -1.
         25    2    1    2    0    0 -0.39968512751E+03 -0.33379126413E+02  0.31167144503E+03  0.52309291074E+03  0.12499894556E+03 0.  0.
          2    1    1    2  501    0  0.32761664227E+02  0.18698401051E+03 -0.79026199668E+03  0.81274249934E+03  0.00000000000E+00 0. -1.
          1    1    1    2  502    0  0.36692346328E+03 -0.15360488410E+03  0.68155981206E+03  0.78914578231E+03  0.00000000000E+00 0. -1.
         22    1    3    3    0    0 -0.18022558438E+03 -0.20896410503E+02  0.65081935009E+02  0.19275263812E+03  0.00000000000E+00 0.  1.
         22    1    3    3    0    0 -0.21945954313E+03 -0.12482715909E+02  0.24658951002E+03  0.33034027263E+03  0.00000000000E+00 0.  1.
</event>
<event>
 7    1  0.4822463E-005  0.5760272E+03  0.7818608E-02  0.1187674E+00
          2   -1    0    0  502    0  0.00000000000E+00  0.00000000000E+00  0.31274591269E+04  0.31274591269E+04  0.00000000000E+00 0. -1.
          1   -1    0    0  501    0 -0.00000000000E+00 -0.00000000000E+00 -0.29130727616E+04  0.29130727616E+04  0.00000000000E+00 0. -1.
         25    2    1    2    0    0  0.43619568160E+03  0.38915690218E+03 -0.20165930434E+04  0.21033265975E+04  0.12500202447E+03 0.  0.
          2    1    1    2  501    0 -0.44009401433E+03 -0.34437715903E+03 -0.76141460690E+03  0.94447370144E+03  0.00000000000E+00 0. -1.
          1    1    1    2  502    0  0.38983327294E+01 -0.44779743148E+02  0.29923940156E+04  0.29927315895E+04  0.00000000000E+00 0. -1.
         22    1    3    3    0    0  0.39711496615E+03  0.30540912799E+03 -0.15995724865E+04  0.16761882864E+04  0.00000000000E+00 0.  1.
         22    1    3    3    0    0  0.39080715448E+02  0.83747774189E+02 -0.41702055687E+03  0.42713831115E+03  0.00000000000E+00 0.  1.
</event>
<event>
 7    1  0.4822463E-005  0.3538941E+03  0.7818608E-02  0.1122990E+00
          2   -1    0    0  502    0  0.00000000000E+00  0.00000000000E+00  0.53466099861E+03  0.53466099861E+03  0.00000000000E+00 0. -1.
          1   -1    0    0  501    0 -0.00000000000E+00 -0.00000000000E+00 -0.11693766256E+04  0.11693766256E+04  0.00000000000E+00 0. -1.
         25    2    1    2    0    0 -0.48381665551E+03 -0.23557479697E+02 -0.49130134446E+03  0.70116745448E+03  0.12500110861E+03 0.  0.
          2    1    1    2  501    0  0.14605605242E+03  0.55926685328E+02 -0.49209089479E+03  0.51634640826E+03  0.00000000000E+00 0. -1.
          1    1    1    2  502    0  0.33776060309E+03 -0.32369205631E+02  0.34867661230E+03  0.48652376143E+03  0.00000000000E+00 0. -1.
         22    1    3    3    0    0 -0.48831000691E+03 -0.15385668664E+02 -0.47005229725E+03  0.67796205189E+03  0.00000000000E+00 0. -1.
         22    1    3    3    0    0  0.44933513957E+01 -0.81718110328E+01 -0.21249047206E+02  0.23205402593E+02  0.00000000000E+00 0. -1.
</event>
<event>
 7    1  0.4822463E-005  0.9549924E+02  0.7818608E-02  0.1381136E+00
          2   -1    0    0  502    0  0.00000000000E+00  0.00000000000E+00  0.69531322760E+03  0.69531322760E+03  0.00000000000E+00 0. -1.
          1   -1    0    0  501    0 -0.00000000000E+00 -0.00000000000E+00 -0.41262111481E+03  0.41262111481E+03  0.00000000000E+00 0. -1.
         25    2    1    2    0    0  0.31002250293E+02 -0.47131317983E+02  0.59050522861E+03  0.60622062774E+03  0.12499809525E+03 0.  0.
          2    1    1    2  501    0 -0.69979684227E+02  0.65556981697E+02 -0.39391653050E+03  0.40541966782E+03  0.00000000000E+00 0. -1.
          1    1    1    2  502    0  0.38977433935E+02 -0.18425663714E+02  0.86103414680E+02  0.96294046851E+02  0.00000000000E+00 0. -1.
         22    1    3    3    0    0 -0.94384963716E+01  0.27428926716E+02  0.41095468205E+02  0.50301776723E+02  0.00000000000E+00 0.  1.
         22    1    3    3    0    0  0.40440746664E+02 -0.74560244699E+02  0.54940976041E+03  0.55591885101E+03  0.00000000000E+00 0.  1.
</event>
<event>
 7    1  0.4822463E-005  0.7504221E+03  0.7818608E-02  0.1091870E+00
          2   -1    0    0  502    0  0.00000000000E+00  0.00000000000E+00  0.32728824292E+04  0.32728824292E+04  0.00000000000E+00 0. -1.
          1   -1    0    0  501    0 -0.00000000000E+00 -0.00000000000E+00 -0.20700259929E+04  0.20700259929E+04  0.00000000000E+00 0. -1.
         25    2    1    2    0    0  0.64377462257E+03 -0.16261308999E+03  0.63550400098E+02  0.67864013753E+03  0.12500000484E+03 0.  0.
          2    1    1    2  501    0 -0.73862174783E+03  0.21801810383E+03 -0.16772317243E+04  0.18455894010E+04  0.00000000000E+00 0. -1.
          1    1    1    2  502    0  0.94847125257E+02 -0.55405013836E+02  0.28165377605E+04  0.28186788836E+04  0.00000000000E+00 0. -1.
         22    1    3    3    0    0  0.26627927920E+03 -0.12913034243E+03  0.43659137958E+02  0.29914113758E+03  0.00000000000E+00 0.  1.
         22    1    3    3    0    0  0.37749534338E+03 -0.33482747566E+02  0.19891262141E+02  0.37949899995E+03  0.00000000000E+00 0.  1.
</event>
<event>
 7    1  0.4822463E-005  0.4028069E+02  0.7818608E-02  0.1523448E+00
          2   -1    0    0  502    0  0.00000000000E+00  0.00000000000E+00  0.61211274930E+03  0.61211274930E+03  0.00000000000E+00 0. -1.
          1   -1    0    0  501    0 -0.00000000000E+00 -0.00000000000E+00 -0.75505350742E+03  0.75505350742E+03  0.00000000000E+00 0. -1.
         25    2    1    2    0    0  0.14297963280E+02  0.10828512117E+02 -0.19524160107E+03  0.23252070000E+03  0.12499961885E+03 0.  0.
          2    1    1    2  501    0 -0.38603276188E+02  0.15528500933E+02 -0.53982951951E+03  0.54143075033E+03  0.00000000000E+00 0. -1.
          1    1    1    2  502    0  0.24305312908E+02 -0.26357013050E+02  0.59213036246E+03  0.59321480639E+03  0.00000000000E+00 0. -1.
         22    1    3    3    0    0  0.44311175009E+01  0.37740990939E+02 -0.29611415462E+01  0.38115424156E+02  0.00000000000E+00 0. -1.
         22    1    3    3    0    0  0.98668457792E+01 -0.26912478822E+02 -0.19228045952E+03  0.19440527584E+03  0.00000000000E+00 0. -1.
</event>
<event>
 7    1  0.4822463E-005  0.2068815E+03  0.7818608E-02  0.1198787E+00
          2   -1    0    0  502    0  0.00000000000E+00  0.00000000000E+00  0.54861225594E+03  0.54861225594E+03  0.00000000000E+00 0. -1.
          1   -1    0    0  501    0 -0.00000000000E+00 -0.00000000000E+00 -0.27748524280E+03  0.27748524280E+03  0.00000000000E+00 0. -1.
         25    2    1    2    0    0  0.12130459804E+02 -0.23312325373E+03  0.12616194751E+03  0.29331872562E+03  0.12500175325E+03 0.  0.
          2    1    1    2  501    0  0.93948652820E+02  0.58680528054E+02 -0.14231380768E+03  0.18034126981E+03  0.00000000000E+00 0. -1.
          1    1    1    2  502    0 -0.10607911262E+03  0.17444272568E+03  0.28727887332E+03  0.35243750330E+03  0.00000000000E+00 0. -1.
         22    1    3    3    0    0  0.42965281902E+02 -0.20534013300E+03  0.13682841448E+03  0.25046476934E+03  0.00000000000E+00 0. -1.
         22    1    3    3    0    0 -0.30834822098E+02 -0.27783120734E+02 -0.10666466975E+02  0.42853956285E+02  0.00000000000E+00 0. -1.
</event>
<event>
 7    1  0.4822463E-005  0.4397060E+03  0.7818608E-02  0.1110370E+00
          2   -1    0    0  502    0  0.00000000000E+00  0.00000000000E+00  0.34211307769E+04  0.34211307769E+04  0.00000000000E+00 0. -1.
          1   -1    0    0  501    0 -0.00000000000E+00 -0.00000000000E+00 -0.27496531458E+03  0.27496531458E+03  0.00000000000E+00 0. -1.
         25    2    1    2    0    0 -0.36550223771E+03 -0.35292980145E+03  0.19221668203E+04  0.19921097303E+04  0.12499824835E+03 0.  0.
          2    1    1    2  501    0  0.21960251722E+03  0.37484226712E+03 -0.35495416962E+02  0.43588062059E+03  0.00000000000E+00 0. -1.
          1    1    1    2  502    0  0.14589972050E+03 -0.21912465667E+02  0.12594940590E+04  0.12681057405E+04  0.00000000000E+00 0. -1.
         22    1    3    3    0    0 -0.22839927752E+03 -0.14775344849E+03  0.11364614907E+04  0.11685640895E+04  0.00000000000E+00 0. -1.
         22    1    3    3    0    0 -0.13710296020E+03 -0.20517635296E+03  0.78570532960E+03  0.82354564079E+03  0.00000000000E+00 0. -1.
</event>
<event>
 7    1  0.4822463E-005  0.5467443E+03  0.7818608E-02  0.1053223E+00
          2   -1    0    0  502    0  0.00000000000E+00  0.00000000000E+00  0.35187082100E+04  0.35187082100E+04  0.00000000000E+00 0. -1.
          1   -1    0    0  501    0 -0.00000000000E+00 -0.00000000000E+00 -0.17673026920E+03  0.17673026920E+03  0.00000000000E+00 0. -1.
         25    2    1    2    0    0 -0.55738383278E+03  0.17493999777E+03  0.16379731987E+04  0.17435200930E+04  0.12500150016E+03 0.  0.
          2    1    1    2  501    0  0.54237441660E+03  0.80275741255E+02  0.57570077703E+03  0.79501294775E+03  0.00000000000E+00 0. -1.
          1    1    1    2  502    0  0.15009416181E+02 -0.25521573902E+03  0.11283039651E+04  0.11569054385E+04  0.00000000000E+00 0. -1.
         22    1    3    3    0    0 -0.30912626467E+03  0.16135647614E+03  0.97045131490E+03  0.10311986785E+04  0.00000000000E+00 0. -1.
         22    1    3    3    0    0 -0.24825756811E+03  0.13583521628E+02  0.66752188382E+03  0.71232141451E+03  0.00000000000E+00 0. -1.
</event>
<event>
 7    1  0.4822463E-005  0.1781575E+03  0.7818608E-02  0.1263031E+00
          2   -1    0    0  502    0  0.00000000000E+00  0.00000000000E+00  0.25969061563E+04  0.25969061563E+04  0.00000000000E+00 0. -1.
          1   -1    0    0  501    0 -0.00000000000E+00 -0.00000000000E+00 -0.11161929261E+03  0.11161929261E+03  0.00000000000E+00 0. -1.
         25    2    1    2    0    0 -0.14098711195E+03  0.14793520816E+03  0.52985970593E+03  0.58149681081E+03  0.12500016585E+03 0.  0.
          2    1    1    2  501    0  0.65451448849E+02  0.10567631927E+02 -0.68598907508E+02  0.95401137898E+02  0.00000000000E+00 0. -1.
          1    1    1    2  502    0  0.75535663104E+02 -0.15850284008E+03  0.20240260653E+04  0.20316275002E+04  0.00000000000E+00 0. -1.
         22    1    3    3    0    0 -0.15624161944E+02  0.10439167952E+03  0.20509813201E+03  0.23066638451E+03  0.00000000000E+00 0. -1.
         22    1    3    3    0    0 -0.12536295001E+03  0.43543528642E+02  0.32476157392E+03  0.35083042630E+03  0.00000000000E+00 0. -1.
</event>
<event>
 7    1  0.4822463E-005  0.3914149E+03  0.7818608E-02  0.1173812E+00
          2   -1    0    0  502    0  0.00000000000E+00  0.00000000000E+00  0.13177213890E+04  0.13177213890E+04  0.00000000000E+00 0. -1.
          1   -1    0    0  501    0 -0.00000000000E+00 -0.00000000000E+00 -0.61166911574E+03  0.61166911574E+03  0.00000000000E+00 0. -1.
         25    2    1    2    0    0 -0.13356880816E+03  0.40801206812E+03 -0.23574098419E+03  0.50548296255E+03  0.12499895824E+03 0.  0.
          2    1    1    2  501    0  0.92602246388E+02 -0.34247634769E+03 -0.10832884931E+03  0.37094523093E+03  0.00000000000E+00 0. -1.
          1    1    1    2  502    0  0.40966561769E+02 -0.65535720435E+02  0.10501221068E+04  0.10529623113E+04  0.00000000000E+00 0. -1.
         22    1    3    3    0    0 -0.31571775300E+02  0.10161874618E+03 -0.12785840998E+01  0.10641795595E+03  0.00000000000E+00 0. -1.
         22    1    3    3    0    0 -0.10199703286E+03  0.30639332194E+03 -0.23446240009E+03  0.39906500661E+03  0.00000000000E+00 0. -1.
</event>
<event>
 7    1  0.4822463E-005  0.9028258E+02  0.7818608E-02  0.1379929E+00
          2   -1    0    0  502    0  0.00000000000E+00  0.00000000000E+00  0.13225116460E+04  0.13225116460E+04  0.00000000000E+00 0. -1.
          1   -1    0    0  501    0 -0.00000000000E+00 -0.00000000000E+00 -0.11724868868E+04  0.11724868868E+04  0.00000000000E+00 0. -1.
         25    2    1    2    0    0  0.71620717695E+01 -0.11597853410E+03  0.43468734637E+03  0.46699346095E+03  0.12500995091E+03 0.  0.
          2    1    1    2  501    0  0.28680749313E+02  0.36034492377E+02 -0.11536717683E+04  0.11545906717E+04  0.00000000000E+00 0. -1.
          1    1    1    2  502    0 -0.35842821082E+02  0.79944041722E+02  0.86900918115E+03  0.87341440024E+03  0.00000000000E+00 0. -1.
         22    1    3    3    0    0 -0.36684029676E+01  0.22551671615E+02  0.22712729789E+02  0.32216504581E+02  0.00000000000E+00 0.  1.
         22    1    3    3    0    0  0.10830474737E+02 -0.13853020571E+03  0.41197461658E+03  0.43477695637E+03  0.00000000000E+00 0.  1.
</event>
<event>
 7    1  0.4822463E-005  0.1572581E+03  0.7818608E-02  0.1234338E+00
          2   -1    0    0  502    0  0.00000000000E+00  0.00000000000E+00  0.18894163460E+04  0.18894163460E+04  0.00000000000E+00 0. -1.
          1   -1    0    0  501    0 -0.00000000000E+00 -0.00000000000E+00 -0.15718537948E+03  0.15718537948E+03  0.00000000000E+00 0. -1.
         25    2    1    2    0    0  0.13700647096E+03 -0.10800196763E+03  0.21689670265E+03  0.30512982428E+03  0.12499932778E+03 0.  0.
          2    1    1    2  501    0 -0.15866245020E+03  0.10266563540E+02 -0.54782258143E+02  0.16816739053E+03  0.00000000000E+00 0. -1.
          1    1    1    2  502    0  0.21655979234E+02  0.97735404086E+02  0.15701165220E+04  0.15733045107E+04  0.00000000000E+00 0. -1.
         22    1    3    3    0    0  0.13373433451E+03 -0.76646944120E+02  0.22485471493E+03  0.27261560684E+03  0.00000000000E+00 0.  1.
         22    1    3    3    0    0  0.32721364571E+01 -0.31355023506E+02 -0.79580122757E+01  0.32514217435E+02  0.00000000000E+00 0.  1.
</event>
<event>
 7    1  0.4822463E-005  0.4893567E+03  0.7818608E-02  0.1135654E+00
          2   -1    0    0  502    0  0.00000000000E+00  0.00000000000E+00  0.28310626436E+04  0.28310626436E+04  0.00000000000E+00 0. -1.
          1   -1    0    0  501    0 -0.00000000000E+00 -0.00000000000E+00 -0.12873037042E+04  0.12873037042E+04  0.00000000000E+00 0. -1.
         25    2    1    2    0    0  0.49573450947E+03 -0.27370815144E+03 -0.48100859695E+02  0.58189920402E+03  0.12499653951E+03 0.  0.
          2    1    1    2  501    0 -0.40223916971E+03  0.24864869295E+03 -0.91381577670E+03  0.10289226384E+04  0.00000000000E+00 0. -1.
          1    1    1    2  502    0 -0.93495339756E+02  0.25059458491E+02  0.25056755758E+04  0.25075445054E+04  0.00000000000E+00 0. -1.
         22    1    3    3    0    0  0.42746269284E+03 -0.27994326211E+03 -0.49191571659E+02  0.51333458338E+03  0.00000000000E+00 0.  1.
         22    1    3    3    0    0  0.68271816634E+02  0.62351106652E+01  0.10907119647E+01  0.68564620645E+02  0.00000000000E+00 0.  1.
</event>
<event>
 7    1  0.4822463E-005  0.4410573E+03  0.7818608E-02  0.1141813E+00
          2   -1    0    0  502    0  0.00000000000E+00  0.00000000000E+00  0.39659241328E+04  0.39659241328E+04  0.00000000000E+00 0. -1.
          1   -1    0    0  501    0 -0.00000000000E+00 -0.00000000000E+00 -0.16298624228E+04  0.16298624228E+04  0.00000000000E+00 0. -1.
         25    2    1    2    0    0 -0.49775465875E+03  0.11915323311E+02 -0.53831921218E+03  0.74384954343E+03  0.12499157502E+03 0.  0.
          2    1    1    2  501    0  0.41546647614E+03  0.44358600232E+02 -0.94395805155E+03  0.10322968959E+04  0.00000000000E+00 0. -1.
          1    1    1    2  502    0  0.82288182607E+02 -0.56273923543E+02  0.38183389738E+04  0.38196401163E+04  0.00000000000E+00 0. -1.
         22    1    3    3    0    0 -0.43002233105E+03 -0.85231479412E+01 -0.39476176302E+03  0.58380536037E+03  0.00000000000E+00 0. -1.
         22    1    3    3    0    0 -0.67732327696E+02  0.20438471252E+02 -0.14355744916E+03  0.16004418306E+03  0.00000000000E+00 0. -1.
</event>
<event>
 7    1  0.4822463E-005  0.5481905E+03  0.7818608E-02  0.1129596E+00
          2   -1    0    0  502    0  0.00000000000E+00  0.00000000000E+00  0.67701686155E+03  0.67701686155E+03  0.00000000000E+00 0. -1.
          1   -1    0    0  501    0 -0.00000000000E+00 -0.00000000000E+00 -0.72815807237E+03  0.72815807237E+03  0.00000000000E+00 0. -1.
         25    2    1    2    0    0 -0.49072554964E+03 -0.21652911102E+03  0.34099498815E+03  0.64776414949E+03  0.12499756175E+03 0.  0.
          2    1    1    2  501    0  0.53673642383E+03  0.13565409107E+03 -0.35223710790E+03  0.65616994847E+03  0.00000000000E+00 0. -1.
          1    1    1    2  502    0 -0.46010874196E+02  0.80875019953E+02 -0.39899091074E+02  0.10124083596E+03  0.00000000000E+00 0. -1.
         22    1    3    3    0    0 -0.41348249946E+03 -0.20542143370E+03  0.33312398093E+03  0.56933059768E+03  0.00000000000E+00 0. -1.
         22    1    3    3    0    0 -0.77243050174E+02 -0.11107677316E+02  0.78710072205E+01  0.78433551814E+02  0.00000000000E+00 0. -1.
</event>
<event>
 7    1  0.4822463E-005  0.4518269E+03  0.7818608E-02  0.1073615E+00
          2   -1    0    0  502    0  0.00000000000E+00  0.00000000000E+00  0.16276907692E+04  0.16276907692E+04  0.00000000000E+00 0. -1.
          1   -1    0    0  501    0 -0.00000000000E+00 -0.00000000000E+00 -0.68228513598E+03  0.68228513598E+03  0.00000000000E+00 0. -1.
         25    2    1    2    0    0  0.83257483255E+02 -0.66209579785E+03  0.98271506080E+03  0.11944272017E+04  0.12499918139E+03 0.  0.
          2    1    1    2  501    0 -0.65332106781E+02  0.42979017015E+03 -0.45998436150E+03  0.63290875121E+03  0.00000000000E+00 0. -1.
          1    1    1    2  502    0 -0.17925376474E+02  0.23230562770E+03  0.42267493397E+03  0.48263995233E+03  0.00000000000E+00 0. -1.
         22    1    3    3    0    0  0.48173255310E+02 -0.16932151364E+03  0.34916213472E+03  0.39103022112E+03  0.00000000000E+00 0. -1.
         22    1    3    3    0    0  0.35084227945E+02 -0.49277428421E+03  0.63355292608E+03  0.80339698056E+03  0.00000000000E+00 0. -1.
</event>
<event>
 7    1  0.4822463E-005  0.3796126E+03  0.7818608E-02  0.1239552E+00
          2   -1    0    0  502    0  0.00000000000E+00  0.00000000000E+00  0.72025197564E+03  0.72025197564E+03  0.00000000000E+00 0. -1.
          1   -1    0    0  501    0 -0.00000000000E+00 -0.00000000000E+00 -0.48718993888E+03  0.48718993888E+03  0.00000000000E+00 0. -1.
         25    2    1    2    0    0  0.48701574545E+02  0.38169813316E+03  0.54632137204E+03  0.67982119949E+03  0.12499805398E+03 0.  0.
          2    1    1    2  501    0  0.22523460351E+02 -0.32230658435E+02 -0.11066704508E+03  0.11744495084E+03  0.00000000000E+00 0. -1.
          1    1    1    2  502    0 -0.71225034897E+02 -0.34946747473E+03 -0.20259229021E+03  0.41017576420E+03  0.00000000000E+00 0. -1.
         22    1    3    3    0    0  0.27583923613E+02  0.38155832054E+03  0.52689714056E+03  0.65112842170E+03  0.00000000000E+00 0.  1.
         22    1    3    3    0    0  0.21117650932E+02  0.13981262319E+00  0.19424231481E+02  0.28692777786E+02  0.00000000000E+00 0.  1.
</event>
<event>
 7    1  0.4822463E-005  0.1906042E+03  0.7818608E-02  0.1219651E+00
          2   -1    0    0  502    0  0.00000000000E+00  0.00000000000E+00  0.84563836128E+02  0.84563836128E+02  0.00000000000E+00 0. -1.
          1   -1    0    0  501    0 -0.00000000000E+00 -0.00000000000E+00 -0.83347886231E+03  0.83347886231E+03  0.00000000000E+00 0. -1.
         25    2    1    2    0    0 -0.22370623037E+02 -0.18059312297E+03 -0.29861237248E+03  0.37135987847E+03  0.12499795801E+03 0.  0.
          2    1    1    2  501    0 -0.95794434809E+02  0.87118181792E+01 -0.19140843202E+03  0.21421871385E+03  0.00000000000E+00 0. -1.
          1    1    1    2  502    0  0.11816505785E+03  0.17188130479E+03 -0.25889422169E+03  0.33246410611E+03  0.00000000000E+00 0. -1.
         22    1    3    3    0    0 -0.66256357683E+01 -0.71117685081E+02 -0.24063515917E+02  0.75370265881E+02  0.00000000000E+00 0.  1.
         22    1    3    3    0    0 -0.15744987269E+02 -0.10947543789E+03 -0.27454885656E+03  0.29598961259E+03  0.00000000000E+00 0.  1.
</event>
<event>
 7    1  0.4822463E-005  0.1776242E+03  0.7818608E-02  0.1192146E+00
          2   -1    0    0  502    0  0.00000000000E+00  0.00000000000E+00  0.10685601820E+04  0.10685601820E+04  0.00000000000E+00 0. -1.
          1   -1    0    0  501    0 -0.00000000000E+00 -0.00000000000E+00 -0.60428521233E+03  0.60428521233E+03  0.00000000000E+00 0. -1.
         25    2    1    2    0    0 -0.10981638621E+03  0.10510256084E+03  0.39639874850E+03  0.44256445810E+03  0.12500057914E+03 0.  0.
          2    1    1    2  501    0  0.85054012214E+02  0.10961037604E+03 -0.55442169445E+03  0.57151730928E+03  0.00000000000E+00 0. -1.
          1    1    1    2  502    0  0.24762374000E+02 -0.21471293688E+03  0.62229791562E+03  0.65876362697E+03  0.00000000000E+00 0. -1.
         22    1    3    3    0    0 -0.85492741462E+02  0.58033699209E+01  0.24776988382E+03  0.26216903569E+03  0.00000000000E+00 0.  1.
         22    1    3    3    0    0 -0.24323644752E+02  0.99299190920E+02  0.14862886468E+03  0.18039542241E+03  0.00000000000E+00 0.  1.
</event>
<event>
 7    1  0.4822463E-005  0.1587890E+03  0.7818608E-02  0.1222554E+00
          2   -1    0    0  502    0  0.00000000000E+00  0.00000000000E+00  0.11141310641E+03  0.11141310641E+03  0.00000000000E+00 0. -1.
          1   -1    0    0  501    0 -0.00000000000E+00 -0.00000000000E+00 -0.10765888240E+04  0.10765888240E+04  0.00000000000E+00 0. -1.
         25    2    1    2    0    0  0.71473518871E+02  0.22222070718E+03 -0.17784984378E+03  0.31897577847E+03  0.12499789484E+03 0.  0.
          2    1    1    2  501    0 -0.94670806631E+01 -0.11160195891E+03 -0.71360795256E+03  0.72234405431E+03  0.00000000000E+00 0. -1.
          1    1    1    2  502    0 -0.62006438208E+02 -0.11061874828E+03 -0.73717921229E+02  0.14668209761E+03  0.00000000000E+00 0. -1.
         22    1    3    3    0    0  0.78466904313E+01 -0.94489997208E+01 -0.40317094883E+02  0.42146438595E+02  0.00000000000E+00 0. -1.
         22    1    3    3    0    0  0.63626828439E+02  0.23166970691E+03 -0.13753274890E+03  0.27682933987E+03  0.00000000000E+00 0. -1.
</event>
<event>
 7    1  0.4822463E-005  0.3001866E+03  0.7818608E-02  0.1096763E+00
          2   -1    0    0  502    0  0.00000000000E+00  0.00000000000E+00  0.38301283463E+04  0.38301283463E+04  0.00000000000E+00 0. -1.
          1   -1    0    0  501    0 -0.00000000000E+00 -0.00000000000E+00 -0.84037175916E+03  0.84037175916E+03  0.00000000000E+00 0. -1.
         25    2    1    2    0    0 -0.18755560093E+03 -0.38664883715E+03  0.17282215601E+04  0.17852307427E+04  0.12499846864E+03 0.  0.
          2    1    1    2  501    0 -0.52509614508E+02  0.25212175632E+03 -0.78198674699E+03  0.82330183535E+03  0.00000000000E+00 0. -1.
          1    1    1    2  502    0  0.24006521544E+03  0.13452708083E+03  0.20435217740E+04  0.20619675274E+04  0.00000000000E+00 0. -1.
         22    1    3    3    0    0 -0.67667206225E+02 -0.13716363281E+03  0.87403332411E+03  0.88731446771E+03  0.00000000000E+00 0.  1.
         22    1    3    3    0    0 -0.11988839471E+03 -0.24948520435E+03  0.85418823601E+03  0.89791627500E+03  0.00000000000E+00 0.  1.
</event>
<event>
 7    1  0.4822463E-005  0.4258176E+03  0.7818608E-02  0.1226956E+00
          2   -1    0    0  502    0  0.00000000000E+00  0.00000000000E+00  0.17262621109E+04  0.17262621109E+04  0.00000000000E+00 0. -1.
          1   -1    0    0  501    0 -0.00000000000E+00 -0.00000000000E+00 -0.44966276365E+03  0.44966276365E+03  0.00000000000E+00 0. -1.
         25    2    1    2    0    0 -0.42713135862E+03 -0.13372919333E+03  0.82288071670E+03  0.94503023146E+03  0.12499907915E+03 0.  0.
          2    1    1    2  501    0  0.39357779929E+03  0.15530987647E+03 -0.27270183796E+03  0.50337951314E+03  0.00000000000E+00 0. -1.
          1    1    1    2  502    0  0.33553559330E+02 -0.21580683146E+02  0.72642046847E+03  0.72751512990E+03  0.00000000000E+00 0. -1.
         22    1    3    3    0    0 -0.18022558298E+03 -0.69823270833E+02  0.48194037262E+03  0.51925241710E+03  0.00000000000E+00 0.  1.
         22    1    3    3    0    0 -0.24690577563E+03 -0.63905922492E+02  0.34094034409E+03  0.42577781436E+03  0.00000000000E+00 0.  1.
</event>
<event>
 7    1  0.4822463E-005  0.4267919E+03  0.7818608E-02  0.1217282E+00
          2   -1    0    0  502    0  0.00000000000E+00  0.00000000000E+00  0.32030607311E+04  0.32030607311E+04  0.00000000000E+00 0. -1.
          1   -1    0    0  501    0 -0.00000000000E+00 -0.00000000000E+00 -0.97861117007E+03  0.97861117007E+03  0.00000000000E+00 0. -1.
         25    2    1    2    0    0 -0.20369232200E+03 -0.41982025414E+03  0.21642475389E+03  0.52934331761E+03  0.12500026390E+03 0.  0.
          2    1    1    2  501    0  0.15649499084E+02  0.41168693383E+02 -0.80575862473E+03  0.80696141758E+03  0.00000000000E+00 0. -1.
          1    1    1    2  502    0  0.18804282292E+03  0.37865156075E+03  0.28137834319E+04  0.28453671660E+04  0.00000000000E+00 0. -1.
         22    1    3    3    0    0 -0.74309723242E+02 -0.17846242809E+03  0.24335148159E+02  0.19484089058E+03  0.00000000000E+00 0.  1.
         22    1    3    3    0    0 -0.12938259876E+03 -0.24135782605E+03  0.19208960573E+03  0.33450242702E+03  0.00000000000E+00 0.  1.
</event>
<event>
 7    1  0.4822463E-005  0.8882881E+02  0.7818608E-02  0.1320213E+00
          2   -1    0    0  502    0  0.00000000000E+00  0.00000000000E+00  0.16000978618E+04  0.16000978618E+04  0.00000000000E+00 0. -1.
          1   -1    0    0  501    0 -0.00000000000E+00 -0.00000000000E+00 -0.42035065422E+03  0.42035065422E+03  0.00000000000E+00 0. -1.
         25    2    1    2    0    0 -0.11215014026E+03 -0.10106556934E+03  0.97120877557E+02  0.21874482126E+03  0.12499971481E+03 0.  0.
          2    1    1    2  501    0  0.74847989175E+02  0.21680239565E+02 -0.35396306238E+03  0.36243910358E+03  0.00000000000E+00 0. -1.
          1    1    1    2  502    0  0.37302151089E+02  0.79385329778E+02  0.14365893924E+04  0.14392645911E+04  0.00000000000E+00 0. -1.
         22    1    3    3    0    0  0.61050015958E+01  0.38113181256E+01 -0.20496787703E+02  0.21723616101E+02  0.00000000000E+00 0.  1.
         22    1    3    3    0    0 -0.11825514186E+03 -0.10487688747E+03  0.11761766526E+03  0.19702120516E+03  0.00000000000E+00 0.  1.
</event>
<event>
 7    1  0.4822463E-005  0.4103195E+03  0.7818608E-02  0.1186942E+00
          2   -1    0    0  502    0  0.00000000000E+00  0.00000000000E+00  0.17290677906E+04  0.17290677906E+04  0.00000000000E+00 0. -1.
          1   -1    0    0  501    0 -0.00000000000E+00 -0.00000000000E+00 -0.14378692665E+03  0.14378692665E+03  0.00000000000E+00 0. -1.
         25    2    1    2    0    0  0.58799207847E+02  0.41878693902E+03  0.71297319347E+03  0.83832919004E+03  0.12500083648E+03 0.  0.
          2    1    1    2  501    0  0.30057368263E+01 -0.40371490863E+03  0.43839378187E+03  0.59597304460E+03  0.00000000000E+00 0. -1.
          1    1    1    2  502    0 -0.61804944673E+02 -0.15072030387E+02  0.43391388865E+03  0.43855248267E+03  0.00000000000E+00 0. -1.
         22    1    3    3    0    0  0.75108290805E+02  0.36962151660E+03  0.67792686905E+03  0.77578744555E+03  0.00000000000E+00 0.  1.
         22    1    3    3    0    0 -0.16309082958E+02  0.49165422421E+02  0.35046324418E+02  0.62541744491E+02  0.00000000000E+00 0.  1.
</event>
<event>
 7    1  0.4822463E-005  0.2979569E+03  0.7818608E-02  0.1109729E+00
          2   -1    0    0  502    0  0.00000000000E+00  0.00000000000E+00  0.95310017955E+03  0.95310017955E+03  0.00000000000E+00 0. -1.
          1   -1    0    0  501    0 -0.00000000000E+00 -0.00000000000E+00 -0.54842694940E+03  0.54842694940E+03  0.00000000000E+00 0. -1.
         25    2    1    2    0    0 -0.29056905540E+03 -0.57074166092E+02 -0.18147964672E+03  0.36911803239E+03  0.12500169308E+03 0.  0.
          2    1    1    2  501    0  0.30271460795E+02  0.21741088935E+03 -0.19496847337E+03  0.29359250971E+03  0.00000000000E+00 0. -1.
          1    1    1    2  502    0  0.26029759460E+03 -0.16033672326E+03  0.78112135024E+03  0.83881658686E+03  0.00000000000E+00 0. -1.
         22    1    3    3    0    0 -0.19346069228E+03 -0.54996912152E+02 -0.52884548954E+02  0.20796267772E+03  0.00000000000E+00 0.  1.
         22    1    3    3    0    0 -0.97108363111E+02 -0.20772539393E+01 -0.12859509777E+03  0.16115535467E+03  0.00000000000E+00 0.  1.
</event>
<event>
 7    1  0.4822463E-005  0.8598405E+03  0.7818608E-02  0.1183000E+00
          2   -1    0    0  502    0  0.00000000000E+00  0.00000000000E+00  0.25958859118E+04  0.25958859118E+04  0.00000000000E+00 0. -1.
          1   -1    0    0  501    0 -0.00000000000E+00 -0.00000000000E+00 -0.28096692311E+04  0.28096692311E+04  0.00000000000E+00 0. -1.
         25    2    1    2    0    0  0.77448502767E+03 -0.42044390347E+03  0.27377764003E+03  0.93122437059E+03  0.12499799261E+03 0.  0.
          2    1    1    2  501    0 -0.76291979752E+03  0.39090630007E+03 -0.24067610718E+04  0.25548685308E+04  0.00000000000E+00 0. -1.
          1    1    1    2  502    0 -0.11565230155E+02  0.29537603400E+02  0.19192001126E+04  0.19194622415E+04  0.00000000000E+00 0. -1.
         22    1    3    3    0    0  0.31791790821E+03 -0.11279463078E+03  0.72493014627E+02  0.34503574056E+03  0.00000000000E+00 0. -1.
         22    1    3    3    0    0  0.45656711946E+03 -0.30764927269E+03  0.20128462540E+03  0.58618863003E+03  0.00000000000E+00 0. -1.
</event>
<event>
 7    1  0.4822463E-005  0.2849109E+03  0.7818608E-02  0.1154525E+00
          2   -1    0    0  502    0  0.00000000000E+00  0.00000000000E+00  0.36453605307E+03  0.36453605307E+03  0.00000000000E+00 0. -1.
          1   -1    0    0  501    0 -0.00000000000E+00 -0.00000000000E+00 -0.74855704055E+03  0.74855704055E+03  0.00000000000E+00 0. -1.
         25    2    1    2    0    0 -0.37440962722E+03  0.66351675037E+01 -0.53969643253E+03  0.66867334220E+03  0.12500081950E+03 0.  0.
          2    1    1    2  501    0  0.10892084824E+03 -0.75772800005E+02  0.81704678045E+01  0.13293616869E+03  0.00000000000E+00 0. -1.
          1    1    1    2  502    0  0.26548877899E+03  0.69137632502E+02  0.14750497725E+03  0.31148358273E+03  0.00000000000E+00 0. -1.
         22    1    3    3    0    0 -0.33693225901E+03  0.20430926785E+02 -0.40006528329E+03  0.52344340747E+03  0.00000000000E+00 0. -1.
         22    1    3    3    0    0 -0.37477368213E+02 -0.13795759281E+02 -0.13963114925E+03  0.14522993473E+03  0.00000000000E+00 0. -1.
</event>
<event>
 7    1  0.4822463E-005  0.1460824E+03  0.7818608E-02  0.1408160E+00
          2   -1    0    0  502    0  0.00000000000E+00  0.00000000000E+00  0.15512940964E+03  0.15512940964E+03  0.00000000000E+00 0. -1.
          1   -1    0    0  501    0 -0.00000000000E+00 -0.00000000000E+00 -0.66995968085E+03  0.66995968085E+03  0.00000000000E+00 0. -1.
         25    2    1    2    0    0  0.13473720421E+03  0.11478828220E+02 -0.55725904219E+03  0.58689863899E+03  0.12500597847E+03 0.  0.
          2    1    1    2  501    0  0.13179733090E+02 -0.18502540219E+02  0.81854567600E+02  0.84948334862E+02  0.00000000000E+00 0. -1.
          1    1    1    2  502    0 -0.14791693730E+03  0.70237119988E+01 -0.39425796623E+02  0.15324211663E+03  0.00000000000E+00 0. -1.
         22    1    3    3    0    0  0.96256375893E+02 -0.28620840806E+02 -0.18485749431E+03  0.21037284908E+03  0.00000000000E+00 0.  1.
         22    1    3    3    0    0  0.38480828314E+02  0.40099669026E+02 -0.37240154788E+03  0.37652578991E+03  0.00000000000E+00 0.  1.
</event>
<event>
 7    1  0.4822463E-005  0.2084328E+03  0.7818608E-02  0.1194040E+00
          2   -1    0    0  502    0  0.00000000000E+00  0.00000000000E+00  0.30527205776E+03  0.30527205776E+03  0.00000000000E+00 0. -1.
          1   -1    0    0  501    0 -0.00000000000E+00 -0.00000000000E+00 -0.19448683345E+04  0.19448683345E+04  0.00000000000E+00 0. -1.
         25    2    1    2    0    0  0.39846753541E+01 -0.17959112011E+03 -0.11200411478E+03  0.24584306040E+03  0.12500016224E+03 0.  0.
          2    1    1    2  501    0 -0.11975598722E+03  0.17715597841E+03 -0.17449579084E+04  0.17580113308E+04  0.00000000000E+00 0. -1.
          1    1    1    2  502    0  0.11577131187E+03  0.24351416981E+01  0.21736574646E+03  0.24628600103E+03  0.00000000000E+00 0. -1.
         22    1    3    3    0    0  0.23830223672E+01 -0.12504013781E+03 -0.13727488845E+03  0.18570166897E+03  0.00000000000E+00 0. -1.
         22    1    3    3    0    0  0.16016529869E+01 -0.54550982294E+02  0.25270773666E+02  0.60141391431E+02  0.00000000000E+00 0. -1.
</event>
<event>
 7    1  0.4822463E-005  0.6217328E+03  0.7818608E-02  0.1224468E+00
          2   -1    0    0  502    0  0.00000000000E+00  0.00000000000E+00  0.10863094588E+04  0.10863094588E+04  0.00000000000E+00 0. -1.
          1   -1    0    0  501    0 -0.00000000000E+00 -0.00000000000E+00 -0.11803074540E+04  0.11803074540E+04  0.00000000000E+00 0. -1.
         25    2    1    2    0    0  0.28664427703E+03  0.52586032965E+03 -0.31096649047E+03  0.68630778241E+03  0.12499674456E+03 0.  0.
          2    1    1    2  501    0  0.16406968788E+02  0.22738157066E+02 -0.57200864548E+03  0.57269547136E+03  0.00000000000E+00 0. -1.
          1    1    1    2  502    0 -0.30305124582E+03 -0.54859848672E+03  0.78897714074E+03  0.10076136590E+04  0.00000000000E+00 0. -1.
         22    1    3    3    0    0  0.29637086848E+03  0.49005788438E+03 -0.30458237273E+03  0.64866234938E+03  0.00000000000E+00 0. -1.
         22    1    3    3    0    0 -0.97265914512E+01  0.35802445273E+02 -0.63841177369E+01  0.37645433030E+02  0.00000000000E+00 0. -1.
</event>
<event>
 7    1  0.4822463E-005  0.9014425E+02  0.7818608E-02  0.1349712E+00
          2   -1    0    0  502    0  0.00000000000E+00  0.00000000000E+00  0.20395185880E+03  0.20395185880E+03  0.00000000000E+00 0. -1.
          1   -1    0    0  501    0 -0.00000000000E+00 -0.00000000000E+00 -0.77958289457E+03  0.77958289457E+03  0.00000000000E+00 0. -1.
         25    2    1    2    0    0  0.10285379013E+03  0.10420723723E+03 -0.70657151109E+03  0.73232928362E+03  0.12499931575E+03 0.  0.
          2    1    1    2  501    0 -0.49638634020E+02 -0.32537688667E+02 -0.30499288587E+02  0.66730066503E+02  0.00000000000E+00 0. -1.
          1    1    1    2  502    0 -0.53215156106E+02 -0.71669548560E+02  0.16143976391E+03  0.18447540324E+03  0.00000000000E+00 0. -1.
         22    1    3    3    0    0 -0.20091378233E+01  0.85207026237E+02 -0.34563082811E+03  0.35598447058E+03  0.00000000000E+00 0. -1.
         22    1    3    3    0    0  0.10486292795E+03  0.19000210990E+02 -0.36094068298E+03  0.37634481304E+03  0.00000000000E+00 0. -1.
</event>
<event>
 7    1  0.4822463E-005  0.1113655E+04  0.7818608E-02  0.1118689E+00
          2   -1    0    0  502    0  0.00000000000E+00  0.00000000000E+00  0.27713300247E+04  0.27713300247E+04  0.00000000000E+00 0. -1.
          1   -1    0    0  501    0 -0.00000000000E+00 -0.00000000000E+00 -0.22795182076E+04  0.22795182076E+04  0.00000000000E+00 0. -1.
         25    2    1    2    0    0  0.92887254260E+03 -0.56927227689E+03 -0.77048355132E+03  0.13402030672E+04  0.12499693114E+03 0.  0.
          2    1    1    2  501    0 -0.95584477576E+03  0.61424597961E+03 -0.96016477935E+03  0.14875663892E+04  0.00000000000E+00 0. -1.
          1    1    1    2  502    0  0.26972233159E+02 -0.44973702717E+02  0.22224601478E+04  0.22230787759E+04  0.00000000000E+00 0. -1.
         22    1    3    3    0    0  0.85406895795E+03 -0.55128803836E+03 -0.74040302004E+03  0.12575964847E+04  0.00000000000E+00 0.  1.
         22    1    3    3    0    0  0.74803584645E+02 -0.17984238528E+02 -0.30080531281E+02  0.82606582506E+02  0.00000000000E+00 0.  1.
</event>
<event>
 7    1  0.4822463E-005  0.5401545E+03  0.7818608E-02  0.1113567E+00
          2   -1    0    0  502    0  0.00000000000E+00  0.00000000000E+00  0.73413000242E+03  0.73413000242E+03  0.00000000000E+00 0. -1.
          1   -1    0    0  501    0 -0.00000000000E+00 -0.00000000000E+00 -0.15330961523E+04  0.15330961523E+04  0.00000000000E+00 0. -1.
         25    2    1    2    0    0 -0.64199219589E+03 -0.58642961450E+01  0.16105748455E+03  0.67361187015E+03  0.12500027488E+03 0.  0.
          2    1    1    2  501    0  0.52676049425E+03  0.12273521229E+01 -0.12092488205E+04  0.13189999373E+04  0.00000000000E+00 0. -1.
          1    1    1    2  502    0  0.11523170165E+03  0.46369440221E+01  0.24922518611E+03  0.27461434723E+03  0.00000000000E+00 0. -1.
         22    1    3    3    0    0 -0.22737253687E+03 -0.47106101583E+02  0.17302963536E+02  0.23284468617E+03  0.00000000000E+00 0.  1.
         22    1    3    3    0    0 -0.41461965902E+03  0.41241805438E+02  0.14375452101E+03  0.44076718398E+03  0.00000000000E+00 0.  1.
</event>
<event>
 7    1  0.4822463E-005  0.3307080E+03  0.7818608E-02  0.1174914E+00
          2   -1    0    0  502    0  0.00000000000E+00  0.00000000000E+00  0.36253970972E+04  0.36253970972E+04  0.00000000000E+00 0. -1.
          1   -1    0    0  501    0 -0.00000000000E+00 -0.00000000000E+00 -0.29260176643E+03  0.29260176643E+03  0.00000000000E+00 0. -1.
         25    2    1    2    0    0 -0.36794550069E+03 -0.13804088441E+03  0.29347557378E+03  0.50615580602E+03  0.12500644109E+03 0.  0.
          2    1    1    2  501    0  0.27763128602E+03  0.14004243370E+03 -0.55363196591E+02  0.31584188726E+03  0.00000000000E+00 0. -1.
          1    1    1    2  502    0  0.90314214674E+02 -0.20015492856E+01  0.30946829536E+04  0.30960011704E+04  0.00000000000E+00 0. -1.
         22    1    3    3    0    0 -0.25747103983E+03 -0.32770253048E+02  0.17638025553E+03  0.31380761683E+03  0.00000000000E+00 0.  1.
         22    1    3    3    0    0 -0.11047446086E+03 -0.10527063136E+03  0.11709531825E+03  0.19234818919E+03  0.00000000000E+00 0.  1.
</event>
<event>
 7    1  0.4822463E-005  0.4692319E+03  0.7818608E-02  0.1192561E+00
          2   -1    0    0  502    0  0.00000000000E+00  0.00000000000E+00  0.92910240872E+03  0.92910240872E+03  0.00000000000E+00 0. -1.
          1   -1    0    0  501    0 -0.00000000000E+00 -0.00000000000E+00 -0.10948326381E+04  0.10948326381E+04  0.00000000000E+00 0. -1.
         25    2    1    2    0    0  0.36202922943E+03  0.26933543808E+03 -0.52384114689E+03  0.70259588301E+03  0.12499874593E+03 0.  0.
          2    1    1    2  501    0 -0.37936043170E+03 -0.31865904350E+03 -0.35298592861E+03  0.60832309585E+03  0.00000000000E+00 0. -1.
          1    1    1    2  502    0  0.17331202270E+02  0.49323605423E+02  0.71109684611E+03  0.71301606796E+03  0.00000000000E+00 0. -1.
         22    1    3    3    0    0  0.30176730799E+03  0.18992886973E+03 -0.33593918134E+03  0.48988939292E+03  0.00000000000E+00 0. -1.
         22    1    3    3    0    0  0.60261921436E+02  0.79406568350E+02 -0.18790196555E+03  0.21270649010E+03  0.00000000000E+00 0. -1.
</event>
<event>
 7    1  0.4822463E-005  0.7130830E+03  0.7818608E-02  0.1150713E+00
          2   -1    0    0  502    0  0.00000000000E+00  0.00000000000E+00  0.12278942174E+04  0.12278942174E+04  0.00000000000E+00 0. -1.
          1   -1    0    0  501    0 -0.00000000000E+00 -0.00000000000E+00 -0.67146186685E+03  0.67146186685E+03  0.00000000000E+00 0. -1.
         25    2    1    2    0    0 -0.63101896261E+03  0.33723554008E+03 -0.12990789584E+02  0.72643400211E+03  0.12499943255E+03 0.  0.
          2    1    1    2  501    0  0.59957135910E+03 -0.38290715566E+03  0.12165872411E+03  0.72173717492E+03  0.00000000000E+00 0. -1.
          1    1    1    2  502    0  0.31447603510E+02  0.45671615579E+02  0.44776441604E+03  0.45118490723E+03  0.00000000000E+00 0. -1.
         22    1    3    3    0    0 -0.40779228347E+03  0.25269230626E+03  0.41707878435E+02  0.48154698133E+03  0.00000000000E+00 0.  1.
         22    1    3    3    0    0 -0.22322667915E+03  0.84543233821E+02 -0.54698668018E+02  0.24488702079E+03  0.00000000000E+00 0.  1.
</event>
<event>
 7    1  0.4822463E-005  0.1910691E+03  0.7818608E-02  0.1278891E+00
          2   -1    0    0  502    0  0.00000000000E+00  0.00000000000E+00  0.50794823208E+03  0.50794823208E+03  0.00000000000E+00 0. -1.
          1   -1    0    0  501    0 -0.00000000000E+00 -0.00000000000E+00 -0.60137439416E+03  0.60137439416E+03  0.00000000000E+00 0. -1.
         25    2    1    2    0    0 -0.19612618320E+03 -0.77870222644E+02 -0.12912645512E+03  0.27717719871E+03  0.12499722703E+03 0.  0.
          2    1    1    2  501    0  0.15225069963E+03  0.10767583894E+03 -0.37459040160E+03  0.41844035513E+03  0.00000000000E+00 0. -1.
          1    1    1    2  502    0  0.43875483566E+02 -0.29805616293E+02  0.41029069464E+03  0.41370507240E+03  0.00000000000E+00 0. -1.
         22    1    3    3    0    0 -0.18445915522E+03 -0.65982328539E+02 -0.15264810050E+03  0.24835516948E+03  0.00000000000E+00 0. -1.
         22    1    3    3    0    0 -0.11667027978E+02 -0.11887894105E+02  0.23521645372E+02  0.28822029233E+02  0.00000000000E+00 0. -1.
</event>
<event>
 7    1  0.4822463E-005  0.2651065E+03  0.7818608E-02  0.1216692E+00
          2   -1    0    0  502    0  0.00000000000E+00  0.00000000000E+00  0.23891082630E+04  0.23891082630E+04  0.00000000000E+00 0. -1.
          1   -1    0    0  501    0 -0.00000000000E+00 -0.00000000000E+00 -0.42563968441E+03  0.42563968441E+03  0.00000000000E+00 0. -1.
         25    2    1    2    0    0  0.15934700750E+03 -0.23607632173E+03  0.19349565520E+04  0.19597974271E+04  0.12500239429E+03 0.  0.
          2    1    1    2  501    0 -0.60955931846E+02  0.37077312214E+02 -0.38181356387E+03  0.38842238641E+03  0.00000000000E+00 0. -1.
          1    1    1    2  502    0 -0.98391075651E+02  0.19899900951E+03  0.41032559044E+03  0.46652813390E+03  0.00000000000E+00 0. -1.
         22    1    3    3    0    0  0.28503363528E+02 -0.13013129224E+03  0.62307316040E+03  0.63715520728E+03  0.00000000000E+00 0.  1.
         22    1    3    3    0    0  0.13084364397E+03 -0.10594502949E+03  0.13118833916E+04  0.13226422198E+04  0.00000000000E+00 0.  1.
</event>
<event>
 7    1  0.4822463E-005  0.1424667E+04  0.7818608E-02  0.1164619E+00
          2   -1    0    0  502    0  0.00000000000E+00  0.00000000000E+00  0.20983607511E+04  0.20983607511E+04  0.00000000000E+00 0. -1.
          1   -1    0    0  501    0 -0.00000000000E+00 -0.00000000000E+00 -0.25781203726E+04  0.25781203726E+04  0.00000000000E+00 0. -1.
         25    2    1    2    0    0 -0.13892613012E+04  0.31421523280E+03  0.14273300747E+04  0.20203140862E+04  0.12497875543E+03 0.  0.
          2    1    1    2  501    0  0.35090756713E+01  0.23328743838E+02 -0.92309722643E+03  0.92339863187E+03  0.00000000000E+00 0. -1.
          1    1    1    2  502    0  0.13857522255E+04 -0.33754397663E+03 -0.98399246980E+03  0.17327684056E+04  0.00000000000E+00 0. -1.
         22    1    3    3    0    0 -0.10728035653E+04  0.24390552960E+03  0.10253694828E+04  0.15039215316E+04  0.00000000000E+00 0. -1.
         22    1    3    3    0    0 -0.31645773587E+03  0.70309703192E+02  0.40196059193E+03  0.51639255457E+03  0.00000000000E+00 0. -1.
</event>
<event>
 7    1  0.4822463E-005  0.1314597E+04  0.7818608E-02  0.1180554E+00
          2   -1    0    0  502    0  0.00000000000E+00  0.00000000000E+00  0.21371100092E+04  0.21371100092E+04  0.00000000000E+00 0. -1.
          1   -1    0    0  501    0 -0.00000000000E+00 -0.00000000000E+00 -0.15256174759E+04  0.15256174759E+04  0.00000000000E+00 0. -1.
         25    2    1    2    0    0  0.87068373837E+03 -0.99735831507E+03  0.83681968381E+03  0.15712115027E+04  0.12499848807E+03 0.  0.
          2    1    1    2  501    0 -0.16873916543E+02  0.13038690045E+02 -0.70327639890E+03  0.70359962318E+03  0.00000000000E+00 0. -1.
          1    1    1    2  502    0 -0.85380982182E+03  0.98431962503E+03  0.47794924840E+03  0.13879163592E+04  0.00000000000E+00 0. -1.
         22    1    3    3    0    0  0.78114818218E+03 -0.91572714889E+03  0.79733935985E+03  0.14437793282E+04  0.00000000000E+00 0. -1.
         22    1    3    3    0    0  0.89535556184E+02 -0.81631166184E+02  0.39480323960E+02  0.12743217448E+03  0.00000000000E+00 0. -1.
</event>
<event>
 7    1  0.4822463E-005  0.1559601E+03  0.7818608E-02  0.1262086E+00
          2   -1    0    0  502    0  0.00000000000E+00  0.00000000000E+00  0.27076883767E+03  0.27076883767E+03  0.00000000000E+00 0. -1.
          1   -1    0    0  501    0 -0.00000000000E+00 -0.00000000000E+00 -0.27351469751E+03  0.27351469751E+03  0.00000000000E+00 0. -1.
         25    2    1    2    0    0 -0.20919819877E+03 -0.27148993471E+02 -0.38960196503E+02  0.24827988189E+03  0.12499619444E+03 0.  0.
          2    1    1    2  501    0  0.13552034860E+03  0.67903990441E+01 -0.79542623621E+02  0.15728605588E+03  0.00000000000E+00 0. -1.
          1    1    1    2  502    0  0.73677850176E+02  0.20358594427E+02  0.11575696028E+03  0.13871759740E+03  0.00000000000E+00 0. -1.
         22    1    3    3    0    0 -0.24041267393E+02  0.24902365777E+02  0.28106567016E+02  0.44587996911E+02  0.00000000000E+00 0. -1.
         22    1    3    3    0    0 -0.18515693138E+03 -0.52051359248E+02 -0.67066763519E+02  0.20369188498E+03  0.00000000000E+00 0. -1.
</event>
<event>
 7    1  0.4822463E-005  0.2331945E+03  0.7818608E-02  0.1174546E+00
          2   -1    0    0  502    0  0.00000000000E+00  0.00000000000E+00  0.94076658279E+03  0.94076658279E+03  0.00000000000E+00 0. -1.
          1   -1    0    0  501    0 -0.00000000000E+00 -0.00000000000E+00 -0.54523273624E+03  0.54523273624E+03  0.00000000000E+00 0. -1.
         25    2    1    2    0    0  0.20501366433E+03 -0.20920396587E+03 -0.37329526122E+03  0.49068475747E+03  0.12500110907E+03 0.  0.
          2    1    1    2  501    0  0.12292148770E+02  0.12805923126E+03 -0.54660717862E+02  0.13977860247E+03  0.00000000000E+00 0. -1.
          1    1    1    2  502    0 -0.21730581310E+03  0.81144734614E+02  0.82348982564E+03  0.85553595909E+03  0.00000000000E+00 0. -1.
         22    1    3    3    0    0  0.54338236168E+02 -0.77397451116E+02 -0.41716491774E+02  0.10335992954E+03  0.00000000000E+00 0.  1.
         22    1    3    3    0    0  0.15067542816E+03 -0.13180651476E+03 -0.33157876944E+03  0.38732482793E+03  0.00000000000E+00 0.  1.
</event>
<event>
 7    1  0.4822463E-005  0.3649021E+03  0.7818608E-02  0.1125507E+00
          2   -1    0    0  502    0  0.00000000000E+00  0.00000000000E+00  0.73013857018E+03  0.73013857018E+03  0.00000000000E+00 0. -1.
          1   -1    0    0  501    0 -0.00000000000E+00 -0.00000000000E+00 -0.22608614483E+04  0.22608614483E+04  0.00000000000E+00 0. -1.
         25    2    1    2    0    0 -0.39458334729E+03  0.13459237929E+03 -0.18354984254E+04  0.18863962091E+04  0.12500024575E+03 0.  0.
          2    1    1    2  501    0  0.25581451178E+03 -0.86044841162E+02 -0.34521257083E+03  0.43819687149E+03  0.00000000000E+00 0. -1.
          1    1    1    2  502    0  0.13876883551E+03 -0.48547538126E+02  0.64998811813E+03  0.66640693790E+03  0.00000000000E+00 0. -1.
         22    1    3    3    0    0 -0.34585862552E+03  0.86490374084E+02 -0.16634507300E+04  0.17012251775E+04  0.00000000000E+00 0.  1.
         22    1    3    3    0    0 -0.48724721767E+02  0.48102005204E+02 -0.17204769540E+03  0.18517103151E+03  0.00000000000E+00 0.  1.
</event>
<event>
 7    1  0.4822463E-005  0.2939736E+03  0.7818608E-02  0.1147793E+00
          2   -1    0    0  502    0  0.00000000000E+00  0.00000000000E+00  0.10581926957E+03  0.10581926957E+03  0.00000000000E+00 0. -1.
          1   -1    0    0  501    0 -0.00000000000E+00 -0.00000000000E+00 -0.17192360087E+04  0.17192360087E+04  0.00000000000E+00 0. -1.
         25    2    1    2    0    0  0.36849069471E+03 -0.80131565155E+02 -0.50489890713E+03  0.64245985658E+03  0.12500120428E+03 0.  0.
          2    1    1    2  501    0 -0.26959303464E+03 -0.17894491789E+02 -0.79146397843E+03  0.83631085507E+03  0.00000000000E+00 0. -1.
          1    1    1    2  502    0 -0.98897660076E+02  0.98026056944E+02 -0.31705385359E+03  0.34628456663E+03  0.00000000000E+00 0. -1.
         22    1    3    3    0    0  0.36172701051E+03 -0.90600758168E+02 -0.50745696667E+03  0.62973605624E+03  0.00000000000E+00 0.  1.
         22    1    3    3    0    0  0.67636842000E+01  0.10469193012E+02  0.25580595409E+01  0.12723800333E+02  0.00000000000E+00 0.  1.
</event>
<event>
 7    1  0.4822463E-005  0.1362266E+03  0.7818608E-02  0.1367092E+00
          2   -1    0    0  502    0  0.00000000000E+00  0.00000000000E+00  0.17190751726E+04  0.17190751726E+04  0.00000000000E+00 0. -1.
          1   -1    0    0  501    0 -0.00000000000E+00 -0.00000000000E+00 -0.15277926532E+03  0.15277926532E+03  0.00000000000E+00 0. -1.
         25    2    1    2    0    0 -0.60434995833E+01  0.14155162427E+03  0.14796521283E+04  0.14916664220E+04  0.12499962968E+03 0.  0.
          2    1    1    2  501    0  0.27434467485E+02 -0.19957611957E+02 -0.12808207398E+03  0.13249895832E+03  0.00000000000E+00 0. -1.
          1    1    1    2  502    0 -0.21390967902E+02 -0.12159401232E+03  0.21472585299E+03  0.24768905766E+03  0.00000000000E+00 0. -1.
         22    1    3    3    0    0 -0.36356796209E+02  0.11670281155E+03  0.13657425565E+04  0.13712016968E+04  0.00000000000E+00 0. -1.
         22    1    3    3    0    0  0.30313296626E+02  0.24848812726E+02  0.11390957181E+03  0.12046472511E+03  0.00000000000E+00 0. -1.
</event>
<event>
 7    1  0.4822463E-005  0.6381065E+03  0.7818608E-02  0.1254605E+00
          2   -1    0    0  502    0  0.00000000000E+00  0.00000000000E+00  0.12173909195E+04  0.12173909195E+04  0.00000000000E+00 0. -1.
          1   -1    0    0  501    0 -0.00000000000E+00 -0.00000000000E+00 -0.45503189433E+03  0.45503189433E+03  0.00000000000E+00 0. -1.
         25    2    1    2    0    0  0.63057833214E+03  0.44101958905E+02  0.44642259785E+03  0.78389526254E+03  0.12499852402E+03 0.  0.
          2    1    1    2  501    0 -0.63864885030E+03 -0.62523343997E+02  0.74224644065E+02  0.64598051079E+03  0.00000000000E+00 0. -1.
          1    1    1    2  502    0  0.80705181571E+01  0.18421385092E+02  0.24171178330E+03  0.24254704054E+03  0.00000000000E+00 0. -1.
         22    1    3    3    0    0  0.31775641757E+03  0.59742270992E+02  0.28755212417E+03  0.43269446953E+03  0.00000000000E+00 0.  1.
         22    1    3    3    0    0  0.31282191457E+03 -0.15640312087E+02  0.15887047369E+03  0.35120079301E+03  0.00000000000E+00 0.  1.
</event>
<event>
 7    1  0.4822463E-005  0.8619762E+02  0.7818608E-02  0.1318769E+00
          2   -1    0    0  502    0  0.00000000000E+00  0.00000000000E+00  0.22218405814E+04  0.22218405814E+04  0.00000000000E+00 0. -1.
          1   -1    0    0  501    0 -0.00000000000E+00 -0.00000000000E+00 -0.14016456119E+02  0.14016456119E+02  0.00000000000E+00 0. -1.
         25    2    1    2    0    0 -0.63564414356E+01 -0.90382726942E+02  0.10185304646E+04  0.10301646533E+04  0.12500185578E+03 0.  0.
          2    1    1    2  501    0  0.78059103761E+02  0.42541760718E+02  0.31947636883E+03  0.33161449806E+03  0.00000000000E+00 0. -1.
          1    1    1    2  502    0 -0.71702662325E+02  0.47840966224E+02  0.86981729192E+03  0.87407788621E+03  0.00000000000E+00 0. -1.
         22    1    3    3    0    0 -0.19345687802E+02 -0.12025233997E+03  0.80949585651E+03  0.81860761211E+03  0.00000000000E+00 0. -1.
         22    1    3    3    0    0  0.12989246366E+02  0.29869613026E+02  0.20903460807E+03  0.21155704118E+03  0.00000000000E+00 0. -1.
</event>
<event>
 7    1  0.4822463E-005  0.2515874E+03  0.7818608E-02  0.1148731E+00
          2   -1    0    0  502    0  0.00000000000E+00  0.00000000000E+00  0.97820159630E+03  0.97820159630E+03  0.00000000000E+00 0. -1.
          1   -1    0    0  501    0 -0.00000000000E+00 -0.00000000000E+00 -0.66995386835E+03  0.66995386835E+03  0.00000000000E+00 0. -1.
         25    2    1    2    0    0 -0.64414647272E+02 -0.21688721833E+03 -0.17620396015E+03  0.31282903539E+03  0.12499943020E+03 0.  0.
          2    1    1    2  501    0 -0.85600750989E+02  0.27507080925E+03 -0.36826702612E+03  0.46755966592E+03  0.00000000000E+00 0. -1.
          1    1    1    2  502    0  0.15001539826E+03 -0.58183590915E+02  0.85271871423E+03  0.86776676334E+03  0.00000000000E+00 0. -1.
         22    1    3    3    0    0 -0.94816250713E+02 -0.10457819970E+03 -0.11001092484E+03  0.17896682607E+03  0.00000000000E+00 0.  1.
         22    1    3    3    0    0  0.30401603441E+02 -0.11230901863E+03 -0.66193035316E+02  0.13386220931E+03  0.00000000000E+00 0.  1.
</event>
<event>
 7    1  0.4822463E-005  0.4230654E+02  0.7818608E-02  0.1520850E+00
          2   -1    0    0  502    0  0.00000000000E+00  0.00000000000E+00  0.14296744617E+04  0.14296744617E+04  0.00000000000E+00 0. -1.
          1   -1    0    0  501    0 -0.00000000000E+00 -0.00000000000E+00 -0.35817648847E+03  0.35817648847E+03  0.00000000000E+00 0. -1.
         25    2    1    2    0    0  0.25888125166E+02  0.61585004026E+02  0.31832574131E+03  0.34845272572E+03  0.12500046694E+03 0.  0.
          2    1    1    2  501    0 -0.32130252829E+02 -0.27418030811E+02 -0.34153658914E+03  0.34413855245E+03  0.00000000000E+00 0. -1.
          1    1    1    2  502    0  0.62421276631E+01 -0.34166973215E+02  0.10947088211E+04  0.10952596720E+04  0.00000000000E+00 0. -1.
         22    1    3    3    0    0  0.65569012246E+02  0.58644928940E+02  0.27887588840E+03  0.29242141540E+03  0.00000000000E+00 0.  1.
         22    1    3    3    0    0 -0.39680887080E+02  0.29400750859E+01  0.39449852915E+02  0.56031310318E+02  0.00000000000E+00 0.  1.
</event>
<event>
 7    1  0.4822463E-005  0.6516022E+03  0.7818608E-02  0.1104327E+00
          2   -1    0    0  502    0  0.00000000000E+00  0.00000000000E+00  0.64002629886E+03  0.64002629886E+03  0.00000000000E+00 0. -1.
          1   -1    0    0  501    0 -0.00000000000E+00 -0.00000000000E+00 -0.34876178367E+04  0.34876178367E+04  0.00000000000E+00 0. -1.
         25    2    1    2    0    0 -0.31803078846E+03  0.65498834298E+03 -0.55584715706E+03  0.92452352886E+03  0.12499752620E+03 0.  0.
          2    1    1    2  501    0  0.32471637892E+03 -0.54763289526E+03 -0.27035477317E+04  0.27775011885E+04  0.00000000000E+00 0. -1.
          1    1    1    2  502    0 -0.66855904602E+01 -0.10735544772E+03  0.41180335093E+03  0.42561941816E+03  0.00000000000E+00 0. -1.
         22    1    3    3    0    0 -0.10963983062E+03  0.32247351314E+03 -0.20118189976E+03  0.39558085890E+03  0.00000000000E+00 0. -1.
         22    1    3    3    0    0 -0.20839095784E+03  0.33251482984E+03 -0.35466525729E+03  0.52894266996E+03  0.00000000000E+00 0. -1.
</event>
<event>
 7    1  0.4822463E-005  0.4436656E+03  0.7818608E-02  0.1052473E+00
          2   -1    0    0  502    0  0.00000000000E+00  0.00000000000E+00  0.13426399008E+04  0.13426399008E+04  0.00000000000E+00 0. -1.
          1   -1    0    0  501    0 -0.00000000000E+00 -0.00000000000E+00 -0.74791088580E+03  0.74791088580E+03  0.00000000000E+00 0. -1.
         25    2    1    2    0    0 -0.17800131101E+03  0.49137362299E+03 -0.17534382989E+03  0.56524591408E+03  0.12499992242E+03 0.  0.
          2    1    1    2  501    0 -0.13019589520E+03 -0.41131237194E+03 -0.22071369443E+03  0.48460641075E+03  0.00000000000E+00 0. -1.
          1    1    1    2  502    0  0.30819720621E+03 -0.80061251058E+02  0.99078653933E+03  0.10406984618E+04  0.00000000000E+00 0. -1.
         22    1    3    3    0    0 -0.45315123070E+01  0.17568229800E+03 -0.76862156877E+02  0.19181396089E+03  0.00000000000E+00 0.  1.
         22    1    3    3    0    0 -0.17346979870E+03  0.31569132500E+03 -0.98481673010E+02  0.37343195319E+03  0.00000000000E+00 0.  1.
</event>
<event>
 7    1  0.4894162E-005  0.3427334E+03  0.7818608E-02  0.1172816E+00
          2   -1    0    0  502    0  0.00000000000E+00  0.00000000000E+00  0.16453778569E+04  0.16453778569E+04  0.00000000000E+00 0. -1.
          1   -1    0    0  501    0 -0.00000000000E+00 -0.00000000000E+00 -0.87224373710E+03  0.87224373710E+03  0.00000000000E+00 0. -1.
         25    2    1    2    0    0 -0.36489072683E+03  0.20931910964E+03 -0.19349494915E+02  0.43927104835E+03  0.12499967512E+03 0.  0.
          2    1    1    2  501    0  0.86921635987E+02 -0.20337945215E+02 -0.62001547110E+03  0.62640896164E+03  0.00000000000E+00 0. -1.
          1    1    1    2  502    0  0.27796909084E+03 -0.18898116442E+03  0.14124990858E+04  0.14519415840E+04  0.00000000000E+00 0. -1.
         22    1    3    3    0    0 -0.24715725915E+02 -0.14317342388E+02 -0.14740983116E+02  0.32142650541E+02  0.00000000000E+00 0.  1.
         22    1    3    3    0    0 -0.34017500092E+03  0.22363645202E+03 -0.46085117989E+01  0.40712839781E+03  0.00000000000E+00 0.  1.
</event>
<event>
 7    1  0.4822463E-005  0.4620032E+03  0.7818608E-02  0.1284096E+00
          2   -1    0    0  502    0  0.00000000000E+00  0.00000000000E+00  0.17211010127E+03  0.17211010127E+03  0.00000000000E+00 0. -1.
          1   -1    0    0  501    0 -0.00000000000E+00 -0.00000000000E+00 -0.19640243071E+04  0.19640243071E+04  0.00000000000E+00 0. -1.
         25    2    1    2    0    0  0.25419203363E+03 -0.39155456556E+03 -0.30806865578E+03  0.57311486042E+03  0.12500311512E+03 0.  0.
          2    1    1    2  501    0 -0.17745804703E+02  0.11000515277E+02 -0.24070281911E+03  0.24160664736E+03  0.00000000000E+00 0. -1.
          1    1    1    2  502    0 -0.23644622893E+03  0.38055405028E+03 -0.12431427309E+04  0.13214129006E+04  0.00000000000E+00 0. -1.
         22    1    3    3    0    0  0.25463099627E+03 -0.31841671933E+03 -0.28083407067E+03  0.49506961800E+03  0.00000000000E+00 0.  1.
         22    1    3    3    0    0 -0.43896264149E+00 -0.73137846231E+02 -0.27234585111E+02  0.78045242428E+02  0.00000000000E+00 0.  1.
</event>
<event>
 7    1  0.4822463E-005  0.4116790E+03  0.7818608E-02  0.1216405E+00
          2   -1    0    0  502    0  0.00000000000E+00  0.00000000000E+00  0.31864811882E+04  0.31864811882E+04  0.00000000000E+00 0. -1.
          1   -1    0    0  501    0 -0.00000000000E+00 -0.00000000000E+00 -0.10745512196E+03  0.10745512196E+03  0.00000000000E+00 0. -1.
         25    2    1    2    0    0  0.35248177665E+03 -0.17726076064E+03  0.16080913108E+04  0.16604960220E+04  0.12499838034E+03 0.  0.
          2    1    1    2  501    0  0.19926762990E+02 -0.41553143228E+02 -0.40590381503E+02  0.61411063058E+02  0.00000000000E+00 0. -1.
          1    1    1    2  502    0 -0.37240853964E+03  0.21881390387E+03  0.15115251370E+04  0.15720292251E+04  0.00000000000E+00 0. -1.
         22    1    3    3    0    0  0.17775435098E+02 -0.34111182923E+02  0.69586453540E+02  0.79509832157E+02  0.00000000000E+00 0. -1.
         22    1    3    3    0    0  0.33470634156E+03 -0.14314957772E+03  0.15385048573E+04  0.15809861898E+04  0.00000000000E+00 0. -1.
</event>
<event>
 7    1  0.4822463E-005  0.1245507E+03  0.7818608E-02  0.1419163E+00
          2   -1    0    0  502    0  0.00000000000E+00  0.00000000000E+00  0.15296746594E+04  0.15296746594E+04  0.00000000000E+00 0. -1.
          1   -1    0    0  501    0 -0.00000000000E+00 -0.00000000000E+00 -0.72575296630E+02  0.72575296630E+02  0.00000000000E+00 0. -1.
         25    2    1    2    0    0  0.96690490613E+02  0.73706851377E+02  0.68501288557E+02  0.18734663024E+03  0.12499832964E+03 0.  0.
          2    1    1    2  501    0 -0.14187318430E+02  0.19928696288E+02  0.41144780849E+01  0.24806488464E+02  0.00000000000E+00 0. -1.
          1    1    1    2  502    0 -0.82503172183E+02 -0.93635547666E+02  0.13844835961E+04  0.13900968373E+04  0.00000000000E+00 0. -1.
         22    1    3    3    0    0 -0.11880414718E+02  0.63372817186E+02  0.16679699927E+02  0.66599328838E+02  0.00000000000E+00 0.  1.
         22    1    3    3    0    0  0.10857090533E+03  0.10334034191E+02  0.51821588630E+02  0.12074730140E+03  0.00000000000E+00 0.  1.
</event>
<event>
 7    1  0.4822463E-005  0.8437353E+03  0.7818608E-02  0.1134183E+00
          2   -1    0    0  502    0  0.00000000000E+00  0.00000000000E+00  0.23533773862E+04  0.23533773862E+04  0.00000000000E+00 0. -1.
          1   -1    0    0  501    0 -0.00000000000E+00 -0.00000000000E+00 -0.17010398032E+04  0.17010398032E+04  0.00000000000E+00 0. -1.
         25    2    1    2    0    0 -0.29357470129E+03 -0.81017867998E+03  0.11972053242E+04  0.14803719904E+04  0.12500017167E+03 0.  0.
          2    1    1    2  501    0  0.52193945332E+02  0.23291091430E+02 -0.13918445039E+04  0.13930175182E+04  0.00000000000E+00 0. -1.
          1    1    1    2  502    0  0.24138075595E+03  0.78688758855E+03  0.84697676265E+03  0.11810276808E+04  0.00000000000E+00 0. -1.
         22    1    3    3    0    0 -0.16456609472E+03 -0.34336275430E+03  0.61161610553E+03  0.72045419085E+03  0.00000000000E+00 0. -1.
         22    1    3    3    0    0 -0.12900860657E+03 -0.46681592568E+03  0.58558921866E+03  0.75991779953E+03  0.00000000000E+00 0. -1.
</event>
<event>
 7    1  0.4822463E-005  0.1042992E+04  0.7818608E-02  0.1110506E+00
          2   -1    0    0  502    0  0.00000000000E+00  0.00000000000E+00  0.85458440572E+03  0.85458440572E+03  0.00000000000E+00 0. -1.
          1   -1    0    0  501    0 -0.00000000000E+00 -0.00000000000E+00 -0.39493722008E+04  0.39493722008E+04  0.00000000000E+00 0. -1.
         25    2    1    2    0    0  0.59120755099E+02  0.10822272000E+04 -0.33870495927E+03  0.11423909328E+04  0.12500007127E+03 0.  0.
          2    1    1    2  501    0 -0.19475429842E+02 -0.10344418719E+04 -0.31227475200E+04  0.32896810411E+04  0.00000000000E+00 0. -1.
          1    1    1    2  502    0 -0.39645325257E+02 -0.47785328037E+02  0.36666468414E+03  0.37188463263E+03  0.00000000000E+00 0. -1.
         22    1    3    3    0    0 -0.41842967013E+01  0.22746610283E+03 -0.21672774813E+02  0.22853456072E+03  0.00000000000E+00 0.  1.
         22    1    3    3    0    0  0.63305051800E+02  0.85476109715E+03 -0.31703218445E+03  0.91385637207E+03  0.00000000000E+00 0.  1.
</event>
<event>
 7    1  0.4822463E-005  0.6810313E+03  0.7818608E-02  0.1149328E+00
          2   -1    0    0  502    0  0.00000000000E+00  0.00000000000E+00  0.13387675247E+04  0.13387675247E+04  0.00000000000E+00 0. -1.
          1   -1    0    0  501    0 -0.00000000000E+00 -0.00000000000E+00 -0.11050427025E+04  0.11050427025E+04  0.00000000000E+00 0. -1.
         25    2    1    2    0    0 -0.36262819735E+03  0.62480398394E+03  0.94626881390E+02  0.73922912520E+03  0.12500489987E+03 0.  0.
          2    1    1    2  501    0  0.41970131771E+02 -0.41497252949E+02 -0.66109650822E+03  0.66372592773E+03  0.00000000000E+00 0. -1.
          1    1    1    2  502    0  0.32065806558E+03 -0.58330673099E+03  0.80019444904E+03  0.10408551742E+04  0.00000000000E+00 0. -1.
         22    1    3    3    0    0 -0.81995348267E+02  0.61618465810E+02  0.28975390583E+02  0.10658163878E+03  0.00000000000E+00 0. -1.
         22    1    3    3    0    0 -0.28063284908E+03  0.56318551813E+03  0.65651490807E+02  0.63264748641E+03  0.00000000000E+00 0. -1.
</event>
<event>
 7    1  0.4822463E-005  0.2197737E+03  0.7818608E-02  0.1339888E+00
          2   -1    0    0  502    0  0.00000000000E+00  0.00000000000E+00  0.19566432270E+04  0.19566432270E+04  0.00000000000E+00 0. -1.
          1   -1    0    0  501    0 -0.00000000000E+00 -0.00000000000E+00 -0.14210312939E+03  0.14210312939E+03  0.00000000000E+00 0. -1.
         25    2    1    2    0    0 -0.22116578479E+03  0.67926094163E+02  0.82182471604E+01  0.26309688728E+03  0.12499669548E+03 0.  0.
          2    1    1    2  501    0  0.19464288009E+02  0.17969030579E+02  0.13985899808E+02  0.29955800124E+02  0.00000000000E+00 0. -1.
          1    1    1    2  502    0  0.20170149678E+03 -0.85895124743E+02  0.17923359506E+04  0.18056936690E+04  0.00000000000E+00 0. -1.
         22    1    3    3    0    0 -0.16882066351E+03  0.97184887542E+02  0.34143692184E+02  0.19776529147E+03  0.00000000000E+00 0.  1.
         22    1    3    3    0    0 -0.52345121275E+02 -0.29258793379E+02 -0.25925445023E+02  0.65331595809E+02  0.00000000000E+00 0.  1.
</event>
<event>
 7    1  0.4822463E-005  0.4378650E+03  0.7818608E-02  0.1078699E+00
          2   -1    0    0  502    0  0.00000000000E+00  0.00000000000E+00  0.14931551091E+04  0.14931551091E+04  0.00000000000E+00 0. -1.
          1   -1    0    0  501    0 -0.00000000000E+00 -0.00000000000E+00 -0.68111076656E+03  0.68111076656E+03  0.00000000000E+00 0. -1.
         25    2    1    2    0    0 -0.32351332175E+03  0.40802914906E+03 -0.15061677369E+03  0.55629086468E+03  0.12500183109E+03 0.  0.
          2    1    1    2  501    0  0.35596706938E+03 -0.18598705685E+03 -0.18955443163E+03  0.44411104732E+03  0.00000000000E+00 0. -1.
          1    1    1    2  502    0 -0.32453747625E+02 -0.22204209221E+03  0.11522155479E+04  0.11738639637E+04  0.00000000000E+00 0. -1.
         22    1    3    3    0    0 -0.17024951790E+03  0.12403869565E+03 -0.35196824159E+02  0.21356336950E+03  0.00000000000E+00 0. -1.
         22    1    3    3    0    0 -0.15326380385E+03  0.28399045341E+03 -0.11541994953E+03  0.34272749518E+03  0.00000000000E+00 0. -1.
</event>
<event>
 7    1  0.4822463E-005  0.6479910E+03  0.7818608E-02  0.1061983E+00
          2   -1    0    0  502    0  0.00000000000E+00  0.00000000000E+00  0.24379233044E+04  0.24379233044E+04  0.00000000000E+00 0. -1.
          1   -1    0    0  501    0 -0.00000000000E+00 -0.00000000000E+00 -0.24642010133E+04  0.24642010133E+04  0.00000000000E+00 0. -1.
         25    2    1    2    0    0 -0.41048690958E+03 -0.71647345614E+03  0.54515404359E+03  0.99732190471E+03  0.12499733632E+03 0.  0.
          2    1    1    2  501    0  0.29305408332E+03  0.56619751934E+03 -0.21869918519E+04  0.22780240751E+04  0.00000000000E+00 0. -1.
          1    1    1    2  502    0  0.11743282626E+03  0.15027593680E+03  0.16155600994E+04  0.16267783379E+04  0.00000000000E+00 0. -1.
         22    1    3    3    0    0 -0.25062245729E+03 -0.34616150040E+03  0.33165143732E+03  0.54095478216E+03  0.00000000000E+00 0.  1.
         22    1    3    3    0    0 -0.15986445229E+03 -0.37031195574E+03  0.21350260627E+03  0.45636712256E+03  0.00000000000E+00 0.  1.
</event>
<event>
 7    1  0.4822463E-005  0.1122636E+03  0.7818608E-02  0.1263559E+00
          2   -1    0    0  502    0  0.00000000000E+00  0.00000000000E+00  0.38675007382E+03  0.38675007382E+03  0.00000000000E+00 0. -1.
          1   -1    0    0  501    0 -0.00000000000E+00 -0.00000000000E+00 -0.11457417659E+04  0.11457417659E+04  0.00000000000E+00 0. -1.
         25    2    1    2    0    0  0.20339275871E+02 -0.19050078147E+02 -0.18213381920E+03  0.22265343721E+03  0.12500093354E+03 0.  0.
          2    1    1    2  501    0 -0.11326627734E+03  0.67224442912E+02 -0.93114393913E+03  0.94041342540E+03  0.00000000000E+00 0. -1.
          1    1    1    2  502    0  0.92927001465E+02 -0.48174364765E+02  0.35428606621E+03  0.36942497714E+03  0.00000000000E+00 0. -1.
         22    1    3    3    0    0  0.24625202123E+02 -0.29467248634E+02  0.17337027238E+01  0.38441189456E+02  0.00000000000E+00 0. -1.
         22    1    3    3    0    0 -0.42859262526E+01  0.10417170487E+02 -0.18386752192E+03  0.18421224776E+03  0.00000000000E+00 0. -1.
</event>
<event>
 7    1  0.4822463E-005  0.4785168E+03  0.7818608E-02  0.1108332E+00
          2   -1    0    0  502    0  0.00000000000E+00  0.00000000000E+00  0.92968632796E+03  0.92968632796E+03  0.00000000000E+00 0. -1.
          1   -1    0    0  501    0 -0.00000000000E+00 -0.00000000000E+00 -0.95857692088E+03  0.95857692088E+03  0.00000000000E+00 0. -1.
         25    2    1    2    0    0  0.12928007813E+03 -0.48230452323E+03  0.38846239773E+03  0.64487167666E+03  0.12500181273E+03 0.  0.
          2    1    1    2  501    0 -0.24752662100E+03  0.40897608345E+03 -0.74627006396E+03  0.88625609916E+03  0.00000000000E+00 0. -1.
          1    1    1    2  502    0  0.11824654286E+03  0.73328439780E+02  0.32891707330E+03  0.35713547302E+03  0.00000000000E+00 0. -1.
         22    1    3    3    0    0  0.14701743178E+03 -0.36936037620E+03  0.32888058032E+03  0.51594926966E+03  0.00000000000E+00 0.  1.
         22    1    3    3    0    0 -0.17737353643E+02 -0.11294414702E+03  0.59581817415E+02  0.12892240700E+03  0.00000000000E+00 0.  1.
</event>
<event>
 7    1  0.4822463E-005  0.4660566E+03  0.7818608E-02  0.1216536E+00
          2   -1    0    0  502    0  0.00000000000E+00  0.00000000000E+00  0.24031917413E+04  0.24031917413E+04  0.00000000000E+00 0. -1.
          1   -1    0    0  501    0 -0.00000000000E+00 -0.00000000000E+00 -0.84720853044E+03  0.84720853044E+03  0.00000000000E+00 0. -1.
         25    2    1    2    0    0 -0.29972761074E+03 -0.32080919750E+03 -0.48115841605E+03  0.66324467015E+03  0.12499955719E+03 0.  0.
          2    1    1    2  501    0 -0.40643668484E+02  0.76074842663E+00 -0.24974502513E+03  0.25303174525E+03  0.00000000000E+00 0. -1.
          1    1    1    2  502    0  0.34037127923E+03  0.32004844908E+03  0.22868866521E+04  0.23341238564E+04  0.00000000000E+00 0. -1.
         22    1    3    3    0    0 -0.85763204113E+02 -0.24573973430E+02 -0.11932102414E+03  0.14898561727E+03  0.00000000000E+00 0.  1.
         22    1    3    3    0    0 -0.21396440663E+03 -0.29623522407E+03 -0.36183739191E+03  0.51425905288E+03  0.00000000000E+00 0.  1.
</event>
<event>
 7    1  0.4822463E-005  0.1823299E+03  0.7818608E-02  0.1208627E+00
          2   -1    0    0  502    0  0.00000000000E+00  0.00000000000E+00  0.70619662035E+03  0.70619662035E+03  0.00000000000E+00 0. -1.
          1   -1    0    0  501    0 -0.00000000000E+00 -0.00000000000E+00 -0.63591669134E+03  0.63591669134E+03  0.00000000000E+00 0. -1.
         25    2    1    2    0    0 -0.74522644633E+02 -0.14567189532E+03  0.15681205910E+03  0.25882580003E+03  0.12500738871E+03 0.  0.
          2    1    1    2  501    0  0.16729257547E+03  0.81114267293E+02 -0.56336101654E+03  0.59324696807E+03  0.00000000000E+00 0. -1.
          1    1    1    2  502    0 -0.92769930835E+02  0.64557628031E+02  0.47682888645E+03  0.49004054359E+03  0.00000000000E+00 0. -1.
         22    1    3    3    0    0 -0.53786200580E+02 -0.27700421734E+02  0.11852892880E+03  0.13307657833E+03  0.00000000000E+00 0.  1.
         22    1    3    3    0    0 -0.20736444053E+02 -0.11797147359E+03  0.38283130299E+02  0.12574922170E+03  0.00000000000E+00 0.  1.
</event>
<event>
 7    1  0.4822463E-005  0.3347963E+03  0.7818608E-02  0.1181471E+00
          2   -1    0    0  502    0  0.00000000000E+00  0.00000000000E+00  0.95250913174E+03  0.95250913174E+03  0.00000000000E+00 0. -1.
          1   -1    0    0  501    0 -0.00000000000E+00 -0.00000000000E+00 -0.12352288023E+04  0.12352288023E+04  0.00000000000E+00 0. -1.
         25    2    1    2    0    0  0.25890420559E+02 -0.35351660731E+03 -0.82787958954E+03  0.90920508012E+03  0.12499982971E+03 0.  0.
          2    1    1    2  501    0 -0.85220846259E+02  0.29565376324E+03 -0.29975346353E+03  0.42956475560E+03  0.00000000000E+00 0. -1.
          1    1    1    2  502    0  0.59330425700E+02  0.57862844067E+02  0.84491338247E+03  0.84896809835E+03  0.00000000000E+00 0. -1.
         22    1    3    3    0    0 -0.17189004767E+02 -0.13795825337E+03 -0.19692549482E+03  0.24105516395E+03  0.00000000000E+00 0.  1.
         22    1    3    3    0    0  0.43079425327E+02 -0.21555835394E+03 -0.63095409472E+03  0.66814991617E+03  0.00000000000E+00 0.  1.
</event>
<event>
 7    1  0.4822463E-005  0.7899774E+02  0.7818608E-02  0.1382983E+00
          2   -1    0    0  502    0  0.00000000000E+00  0.00000000000E+00  0.20323225902E+03  0.20323225902E+03  0.00000000000E+00 0. -1.
          1   -1    0    0  501    0 -0.00000000000E+00 -0.00000000000E+00 -0.12828916002E+03  0.12828916002E+03  0.00000000000E+00 0. -1.
         25    2    1    2    0    0  0.12171402882E+03  0.18848432227E+02  0.85162077680E+02  0.19505047575E+03  0.12499016124E+03 0.  0.
          2    1    1    2  501    0 -0.70746836181E+02 -0.12653829057E+02 -0.34448028715E+02  0.79698813679E+02  0.00000000000E+00 0. -1.
          1    1    1    2  502    0 -0.50967192644E+02 -0.61946031705E+01  0.24229050036E+02  0.56772129607E+02  0.00000000000E+00 0. -1.
         22    1    3    3    0    0  0.92518554176E+02  0.36551489478E+02 -0.40175230149E+01  0.99558197759E+02  0.00000000000E+00 0.  1.
         22    1    3    3    0    0  0.29195474649E+02 -0.17703057251E+02  0.89179600695E+02  0.95492277992E+02  0.00000000000E+00 0.  1.
</event>
<event>
 7    1  0.4822463E-005  0.1078018E+03  0.7818608E-02  0.1370400E+00
          2   -1    0    0  502    0  0.00000000000E+00  0.00000000000E+00  0.27028603069E+04  0.27028603069E+04  0.00000000000E+00 0. -1.
          1   -1    0    0  501    0 -0.00000000000E+00 -0.00000000000E+00 -0.22023324628E+02  0.22023324628E+02  0.00000000000E+00 0. -1.
         25    2    1    2    0    0 -0.56618456214E+02 -0.12498192112E+03  0.24032422840E+04  0.24103993028E+04  0.12500077324E+03 0.  0.
          2    1    1    2  501    0  0.63725985183E+02  0.83880996036E+02  0.21240234843E+03  0.23709023662E+03  0.00000000000E+00 0. -1.
          1    1    1    2  502    0 -0.71075289690E+01  0.41100925085E+02  0.65192349912E+02  0.77394092139E+02  0.00000000000E+00 0. -1.
         22    1    3    3    0    0  0.49943344739E+01 -0.23396206099E+02  0.67089192318E+02  0.71227000236E+02  0.00000000000E+00 0.  1.
         22    1    3    3    0    0 -0.61612790688E+02 -0.10158571502E+03  0.23361530916E+04  0.23391723026E+04  0.00000000000E+00 0.  1.
</event>
<event>
 7    1  0.4822463E-005  0.2993316E+03  0.7818608E-02  0.1100075E+00
          2   -1    0    0  502    0  0.00000000000E+00  0.00000000000E+00  0.18875876474E+04  0.18875876474E+04  0.00000000000E+00 0. -1.
          1   -1    0    0  501    0 -0.00000000000E+00 -0.00000000000E+00 -0.22292715816E+04  0.22292715816E+04  0.00000000000E+00 0. -1.
         25    2    1    2    0    0 -0.32274497413E+03  0.23048743291E+03 -0.10100092611E+04  0.10922604228E+04  0.12500139488E+03 0.  0.
          2    1    1    2  501    0  0.24066263768E+03  0.57224776360E+02 -0.11528089786E+04  0.11790511953E+04  0.00000000000E+00 0. -1.
          1    1    1    2  502    0  0.82082336446E+02 -0.28771220927E+03  0.18211343054E+04  0.18455476108E+04  0.00000000000E+00 0. -1.
         22    1    3    3    0    0 -0.25015812963E+02 -0.13902211921E+02 -0.46392588569E+02  0.54509950181E+02  0.00000000000E+00 0. -1.
         22    1    3    3    0    0 -0.29772916116E+03  0.24438964483E+03 -0.96361667253E+03  0.10377504726E+04  0.00000000000E+00 0. -1.
</event>
<event>
 7    1  0.4822463E-005  0.1975116E+03  0.7818608E-02  0.1175009E+00
          2   -1    0    0  502    0  0.00000000000E+00  0.00000000000E+00  0.18414456473E+04  0.18414456473E+04  0.00000000000E+00 0. -1.
          1   -1    0    0  501    0 -0.00000000000E+00 -0.00000000000E+00 -0.10521728857E+03  0.10521728857E+03  0.00000000000E+00 0. -1.
         25    2    1    2    0    0  0.26420975444E+03 -0.11173470678E+03  0.89344717829E+03  0.94665960694E+03  0.12500044793E+03 0.  0.
          2    1    1    2  501    0 -0.18838643963E+03 -0.18956769731E+02  0.54009367860E+02  0.19689037958E+03  0.00000000000E+00 0. -1.
          1    1    1    2  502    0 -0.75823314810E+02  0.13069147651E+03  0.78877181254E+03  0.80311294931E+03  0.00000000000E+00 0. -1.
         22    1    3    3    0    0  0.21576633706E+03 -0.35832985233E+02  0.55794425344E+03  0.59928365987E+03  0.00000000000E+00 0. -1.
         22    1    3    3    0    0  0.48443417372E+02 -0.75901721550E+02  0.33550292485E+03  0.34737594707E+03  0.00000000000E+00 0. -1.
</event>
<event>
 7    1  0.4822463E-005  0.3092339E+03  0.7818608E-02  0.1221951E+00
          2   -1    0    0  502    0  0.00000000000E+00  0.00000000000E+00  0.44330289008E+03  0.44330289008E+03  0.00000000000E+00 0. -1.
          1   -1    0    0  501    0 -0.00000000000E+00 -0.00000000000E+00 -0.42898007138E+03  0.42898007138E+03  0.00000000000E+00 0. -1.
         25    2    1    2    0    0  0.24289717988E+03  0.16889090496E+03  0.10871808153E+03  0.33906804210E+03  0.12499735259E+03 0.  0.
          2    1    1    2  501    0 -0.22279014332E+03 -0.22316217116E+03 -0.22699132436E+03  0.38853811130E+03  0.00000000000E+00 0. -1.
          1    1    1    2  502    0 -0.20107036553E+02  0.54271266193E+02  0.13259606154E+03  0.14467680806E+03  0.00000000000E+00 0. -1.
         22    1    3    3    0    0  0.11012401861E+03  0.25573174731E+02  0.86682857015E+02  0.14246123838E+03  0.00000000000E+00 0. -1.
         22    1    3    3    0    0  0.13277316127E+03  0.14331773023E+03  0.22035224513E+02  0.19660680372E+03  0.00000000000E+00 0. -1.
</event>
<event>
 7    1  0.4822463E-005  0.6695824E+02  0.7818608E-02  0.1416686E+00
          2   -1    0    0  502    0  0.00000000000E+00  0.00000000000E+00  0.82728742935E+03  0.82728742935E+03  0.00000000000E+00 0. -1.
          1   -1    0    0  501    0 -0.00000000000E+00 -0.00000000000E+00 -0.85091048878E+02  0.85091048878E+02  0.00000000000E+00 0. -1.
         25    2    1    2    0    0 -0.85905503036E+01 -0.63792784081E+02  0.77981624111E+03  0.79238791508E+03  0.12498768422E+03 0.  0.
          2    1    1    2  501    0 -0.37188175176E+02  0.56337481521E+02 -0.24114612613E+02  0.71682541379E+02  0.00000000000E+00 0. -1.
          1    1    1    2  502    0  0.45778725480E+02  0.74553025600E+01 -0.13505248029E+02  0.48308021768E+02  0.00000000000E+00 0. -1.
         22    1    3    3    0    0  0.32982490433E+01 -0.48527305965E+02  0.76836793017E+03  0.76990587346E+03  0.00000000000E+00 0. -1.
         22    1    3    3    0    0 -0.11888799347E+02 -0.15265478116E+02  0.11448310942E+02  0.22482041621E+02  0.00000000000E+00 0. -1.
</event>
<event>
 7    1  0.4822463E-005  0.1073389E+04  0.7818608E-02  0.1092752E+00
          2   -1    0    0  502    0  0.00000000000E+00  0.00000000000E+00  0.15400283048E+04  0.15400283048E+04  0.00000000000E+00 0. -1.
          1   -1    0    0  501    0 -0.00000000000E+00 -0.00000000000E+00 -0.28088833600E+04  0.28088833600E+04  0.00000000000E+00 0. -1.
         25    2    1    2    0    0 -0.10046728579E+04  0.44145900761E+03 -0.11489469991E+04  0.15937245418E+04  0.12500040556E+03 0.  0.
          2    1    1    2  501    0  0.55338224117E+02  0.51957615268E+02 -0.12189853585E+04  0.12213464771E+04  0.00000000000E+00 0. -1.
          1    1    1    2  502    0  0.94933463377E+03 -0.49341662288E+03  0.10990773024E+04  0.15338406460E+04  0.00000000000E+00 0. -1.
         22    1    3    3    0    0 -0.76185251984E+03  0.27510513992E+03 -0.83138687145E+03  0.11607352110E+04  0.00000000000E+00 0.  1.
         22    1    3    3    0    0 -0.24282033805E+03  0.16635386770E+03 -0.31756012769E+03  0.43298933078E+03  0.00000000000E+00 0.  1.
</event>
<event>
 7    1  0.4822463E-005  0.3823643E+03  0.7818608E-02  0.1197085E+00
          2   -1    0    0  502    0  0.00000000000E+00  0.00000000000E+00  0.10410757135E+04  0.10410757135E+04  0.00000000000E+00 0. -1.
          1   -1    0    0  501    0 -0.00000000000E+00 -0.00000000000E+00 -0.23462210291E+03  0.23462210291E+03  0.00000000000E+00 0. -1.
         25    2    1    2    0    0  0.15309315966E+03  0.39280486036E+03  0.35980759084E+03  0.56817179801E+03  0.12499806307E+03 0.  0.
          2    1    1    2  501    0 -0.25771809494E+02 -0.55348853065E+02 -0.60006451817E+02  0.85606401395E+02  0.00000000000E+00 0. -1.
          1    1    1    2  502    0 -0.12732135017E+03 -0.33745600730E+03  0.50665247156E+03  0.62191961700E+03  0.00000000000E+00 0. -1.
         22    1    3    3    0    0  0.87834679231E+02  0.33105404796E+03  0.32394208071E+03  0.47143417908E+03  0.00000000000E+00 0. -1.
         22    1    3    3    0    0  0.65258480433E+02  0.61750812403E+02  0.35865510129E+02  0.96737618937E+02  0.00000000000E+00 0. -1.
</event>
<event>
 7    1  0.4822463E-005  0.3155603E+03  0.7818608E-02  0.1318155E+00
          2   -1    0    0  502    0  0.00000000000E+00  0.00000000000E+00  0.31085078781E+04  0.31085078781E+04  0.00000000000E+00 0. -1.
          1   -1    0    0  501    0 -0.00000000000E+00 -0.00000000000E+00 -0.13274642325E+04  0.13274642325E+04  0.00000000000E+00 0. -1.
         25    2    1    2    0    0  0.11181897267E+03 -0.28954136956E+03  0.28066286641E+03  0.43673117703E+03  0.12499915628E+03 0.  0.
          2    1    1    2  501    0 -0.18450156923E+02 -0.12601389775E+02 -0.12402368659E+04  0.12404381028E+04  0.00000000000E+00 0. -1.
          1    1    1    2  502    0 -0.93368815747E+02  0.30214275934E+03  0.27406176451E+04  0.27588028308E+04  0.00000000000E+00 0. -1.
         22    1    3    3    0    0  0.24703219276E+02 -0.41461445461E+02  0.11815802009E+03  0.12763470615E+03  0.00000000000E+00 0. -1.
         22    1    3    3    0    0  0.87115753394E+02 -0.24807992410E+03  0.16250484632E+03  0.30909647088E+03  0.00000000000E+00 0. -1.
</event>
<event>
 7    1  0.4822463E-005  0.3096567E+03  0.7818608E-02  0.1103189E+00
          2   -1    0    0  502    0  0.00000000000E+00  0.00000000000E+00  0.12130825769E+04  0.12130825769E+04  0.00000000000E+00 0. -1.
          1   -1    0    0  501    0 -0.00000000000E+00 -0.00000000000E+00 -0.15161770376E+04  0.15161770376E+04  0.00000000000E+00 0. -1.
         25    2    1    2    0    0 -0.66042258663E+02  0.25013885577E+03  0.48132734883E+02  0.29133013115E+03  0.12500183222E+03 0.  0.
          2    1    1    2  501    0  0.22542435266E+03  0.44034606228E+02 -0.13578612823E+04  0.13771501179E+04  0.00000000000E+00 0. -1.
          1    1    1    2  502    0 -0.15938209400E+03 -0.29417346199E+03  0.10066340867E+04  0.10607793655E+04  0.00000000000E+00 0. -1.
         22    1    3    3    0    0  0.12391616659E+02 -0.87085638916E+01 -0.44723667567E+01  0.15792191516E+02  0.00000000000E+00 0. -1.
         22    1    3    3    0    0 -0.78433875321E+02  0.25884741966E+03  0.52605101640E+02  0.27553793964E+03  0.00000000000E+00 0. -1.
</event>
<event>
 7    1  0.4822463E-005  0.2355518E+03  0.7818608E-02  0.1184979E+00
          2   -1    0    0  502    0  0.00000000000E+00  0.00000000000E+00  0.28483862025E+03  0.28483862025E+03  0.00000000000E+00 0. -1.
          1   -1    0    0  501    0 -0.00000000000E+00 -0.00000000000E+00 -0.70702157048E+03  0.70702157048E+03  0.00000000000E+00 0. -1.
         25    2    1    2    0    0  0.14786189926E+03  0.20370036858E+03 -0.18278091189E+02  0.28163097434E+03  0.12499974272E+03 0.  0.
          2    1    1    2  501    0  0.61234676443E+02 -0.95283025451E+02 -0.45528112897E+03  0.46915823230E+03  0.00000000000E+00 0. -1.
          1    1    1    2  502    0 -0.20909657570E+03 -0.10841734313E+03  0.51376269934E+02  0.24107098409E+03  0.00000000000E+00 0. -1.
         22    1    3    3    0    0  0.12934647566E+02  0.11221409169E+03 -0.33719373533E+02  0.11788258409E+03  0.00000000000E+00 0. -1.
         22    1    3    3    0    0  0.13492725169E+03  0.91486276891E+02  0.15441282344E+02  0.16374839025E+03  0.00000000000E+00 0. -1.
</event>
<event>
 7    1  0.4822463E-005  0.9851663E+02  0.7818608E-02  0.1434114E+00
          2   -1    0    0  502    0  0.00000000000E+00  0.00000000000E+00  0.53645650761E+03  0.53645650761E+03  0.00000000000E+00 0. -1.
          1   -1    0    0  501    0 -0.00000000000E+00 -0.00000000000E+00 -0.10599144132E+03  0.10599144132E+03  0.00000000000E+00 0. -1.
         25    2    1    2    0    0 -0.97842581343E+01 -0.98842258967E+02  0.48106185759E+03  0.50686413598E+03  0.12500087057E+03 0.  0.
          2    1    1    2  501    0 -0.26156147347E+02  0.88047840076E+01 -0.35508093401E+01  0.27825824559E+02  0.00000000000E+00 0. -1.
          1    1    1    2  502    0  0.35940405481E+02  0.90037474959E+02 -0.47045981961E+02  0.10775798839E+03  0.00000000000E+00 0. -1.
         22    1    3    3    0    0 -0.20855019961E+02  0.26041120155E+02  0.12494524951E+03  0.12932280221E+03  0.00000000000E+00 0. -1.
         22    1    3    3    0    0  0.11070761827E+02 -0.12488337912E+03  0.35611660808E+03  0.37754133377E+03  0.00000000000E+00 0. -1.
</event>
<event>
 7    1  0.9194231E-005  0.1891895E+03  0.7818608E-02  0.1272553E+00
          2   -1    0    0  502    0  0.00000000000E+00  0.00000000000E+00  0.19958672915E+04  0.19958672915E+04  0.00000000000E+00 0. -1.
          1   -1    0    0  501    0 -0.00000000000E+00 -0.00000000000E+00 -0.98420867203E+03  0.98420867203E+03  0.00000000000E+00 0. -1.
         25    2    1    2    0    0 -0.69053740792E+02 -0.22377627306E+03 -0.87490837155E+03  0.91429450332E+03  0.12500216273E+03 0.  0.
          2    1    1    2  501    0 -0.15501594681E+02  0.54771152146E+02 -0.75545121335E+02  0.94589872093E+02  0.00000000000E+00 0. -1.
          1    1    1    2  502    0  0.84555335474E+02  0.16900512091E+03  0.19621121124E+04  0.19711915881E+04  0.00000000000E+00 0. -1.
         22    1    3    3    0    0 -0.37956950154E+02 -0.22706043749E+03 -0.81259336883E+03  0.84457394904E+03  0.00000000000E+00 0. -1.
         22    1    3    3    0    0 -0.31096790639E+02  0.32841644359E+01 -0.62315002725E+02  0.69720554277E+02  0.00000000000E+00 0. -1.
</event>
<event>
 7    1  0.4822463E-005  0.6226275E+03  0.7818608E-02  0.1110477E+00
          2   -1    0    0  502    0  0.00000000000E+00  0.00000000000E+00  0.56791836306E+03  0.56791836306E+03  0.00000000000E+00 0. -1.
          1   -1    0    0  501    0 -0.00000000000E+00 -0.00000000000E+00 -0.11418172900E+04  0.11418172900E+04  0.00000000000E+00 0. -1.
         25    2    1    2    0    0  0.55317168127E+03 -0.40073686508E+03 -0.30150025642E+03  0.75704432651E+03  0.12499905476E+03 0.  0.
          2    1    1    2  501    0 -0.45410271931E+03  0.36893031837E+03 -0.45590885946E+03  0.74173563190E+03  0.00000000000E+00 0. -1.
          1    1    1    2  502    0 -0.99068961962E+02  0.31806546714E+02  0.18351018897E+03  0.21095569462E+03  0.00000000000E+00 0. -1.
         22    1    3    3    0    0  0.10038044152E+03 -0.13691041898E+03 -0.87475544177E+02  0.19097818382E+03  0.00000000000E+00 0.  1.
         22    1    3    3    0    0  0.45279123975E+03 -0.26382644610E+03 -0.21402471225E+03  0.56606614270E+03  0.00000000000E+00 0.  1.
</event>
<event>
 7    1  0.4822463E-005  0.4143926E+03  0.7818608E-02  0.1164888E+00
          2   -1    0    0  502    0  0.00000000000E+00  0.00000000000E+00  0.17198592598E+04  0.17198592598E+04  0.00000000000E+00 0. -1.
          1   -1    0    0  501    0 -0.00000000000E+00 -0.00000000000E+00 -0.10993413664E+04  0.10993413664E+04  0.00000000000E+00 0. -1.
         25    2    1    2    0    0 -0.36544434490E+03 -0.25050060027E+03  0.80531321318E+03  0.92760843166E+03  0.12501164431E+03 0.  0.
          2    1    1    2  501    0  0.88498404533E+01  0.80369133034E+02 -0.99072818739E+03  0.99402206138E+03  0.00000000000E+00 0. -1.
          1    1    1    2  502    0  0.35659450444E+03  0.17013146723E+03  0.80593286759E+03  0.89757013308E+03  0.00000000000E+00 0. -1.
         22    1    3    3    0    0 -0.36490836173E+03 -0.25716432064E+03  0.75695529687E+03  0.87879060175E+03  0.00000000000E+00 0.  1.
         22    1    3    3    0    0 -0.53598317052E+00  0.66637203729E+01  0.48357916307E+02  0.48817829906E+02  0.00000000000E+00 0.  1.
</event>
<event>
 7    1  0.4822463E-005  0.1119448E+04  0.7818608E-02  0.1157523E+00
          2   -1    0    0  502    0  0.00000000000E+00  0.00000000000E+00  0.10425561134E+04  0.10425561134E+04  0.00000000000E+00 0. -1.
          1   -1    0    0  501    0 -0.00000000000E+00 -0.00000000000E+00 -0.18599706906E+04  0.18599706906E+04  0.00000000000E+00 0. -1.
         25    2    1    2    0    0  0.10582175408E+04 -0.31723870662E+03 -0.54680780111E+03  0.12389864946E+04  0.12499600703E+03 0.  0.
          2    1    1    2  501    0 -0.10901807520E+04  0.31080966545E+03 -0.63387972773E+03  0.12988072333E+04  0.00000000000E+00 0. -1.
          1    1    1    2  502    0  0.31963211124E+02  0.64290411715E+01  0.36327295164E+03  0.36473307614E+03  0.00000000000E+00 0. -1.
         22    1    3    3    0    0  0.73683254117E+03 -0.24975748763E+03 -0.32770557453E+03  0.84421083855E+03  0.00000000000E+00 0.  1.
         22    1    3    3    0    0  0.32138499967E+03 -0.67481218997E+02 -0.21910222658E+03  0.39477565607E+03  0.00000000000E+00 0.  1.
</event>
<event>
 7    1  0.4822463E-005  0.4010836E+03  0.7818608E-02  0.1198302E+00
          2   -1    0    0  502    0  0.00000000000E+00  0.00000000000E+00  0.55700420276E+03  0.55700420276E+03  0.00000000000E+00 0. -1.
          1   -1    0    0  501    0 -0.00000000000E+00 -0.00000000000E+00 -0.23960891151E+04  0.23960891151E+04  0.00000000000E+00 0. -1.
         25    2    1    2    0    0 -0.41976716278E+03  0.14714193786E+02 -0.40694197677E+03  0.59803677906E+03  0.12500095283E+03 0.  0.
          2    1    1    2  501    0  0.26833578522E+02  0.50784089618E+02 -0.18070877785E+04  0.18080003606E+04  0.00000000000E+00 0. -1.
          1    1    1    2  502    0  0.39293358426E+03 -0.65498283405E+02  0.37494484299E+03  0.54705617815E+03  0.00000000000E+00 0. -1.
         22    1    3    3    0    0 -0.21789838036E+03 -0.54478403179E+02 -0.19904038589E+03  0.30010777362E+03  0.00000000000E+00 0.  1.
         22    1    3    3    0    0 -0.20186878242E+03  0.69192596965E+02 -0.20790159088E+03  0.29792900544E+03  0.00000000000E+00 0.  1.
</event>
<event>
 7    1  0.4822463E-005  0.5245560E+03  0.7818608E-02  0.1055887E+00
          2   -1    0    0  502    0  0.00000000000E+00  0.00000000000E+00  0.14578907093E+04  0.14578907093E+04  0.00000000000E+00 0. -1.
          1   -1    0    0  501    0 -0.00000000000E+00 -0.00000000000E+00 -0.10487563955E+04  0.10487563955E+04  0.00000000000E+00 0. -1.
         25    2    1    2    0    0  0.96279238867E+02 -0.58455088009E+03 -0.22307330007E+03  0.64525970307E+03  0.12501585479E+03 0.  0.
          2    1    1    2  501    0 -0.29087318456E+03  0.41725874695E+03 -0.49236371602E+03  0.70790825695E+03  0.00000000000E+00 0. -1.
          1    1    1    2  502    0  0.19459394570E+03  0.16729213314E+03  0.11245713299E+04  0.11534791448E+04  0.00000000000E+00 0. -1.
         22    1    3    3    0    0  0.87401142907E+02 -0.56992616154E+03 -0.18838813889E+03  0.60658460273E+03  0.00000000000E+00 0. -1.
         22    1    3    3    0    0  0.88780959597E+01 -0.14624718550E+02 -0.34685161179E+02  0.38675100343E+02  0.00000000000E+00 0. -1.
</event>
<event>
 7    1  0.4822463E-005  0.6584966E+02  0.7818608E-02  0.1507273E+00
          2   -1    0    0  502    0  0.00000000000E+00  0.00000000000E+00  0.64988504654E+03  0.64988504654E+03  0.00000000000E+00 0. -1.
          1   -1    0    0  501    0 -0.00000000000E+00 -0.00000000000E+00 -0.90656064317E+03  0.90656064317E+03  0.00000000000E+00 0. -1.
         25    2    1    2    0    0 -0.54712856879E+02  0.33649136759E+02 -0.42670397642E+03  0.44925330292E+03  0.12500594218E+03 0.  0.
          2    1    1    2  501    0 -0.10165062521E+02 -0.22240335757E+02 -0.46656223363E+03  0.46720261010E+03  0.00000000000E+00 0. -1.
          1    1    1    2  502    0  0.64877919401E+02 -0.11408801002E+02  0.63659061342E+03  0.63998977669E+03  0.00000000000E+00 0. -1.
         22    1    3    3    0    0 -0.51913203717E+02 -0.25171916373E+02 -0.86401718107E+02  0.10389351753E+03  0.00000000000E+00 0.  1.
         22    1    3    3    0    0 -0.27996531625E+01  0.58821053132E+02 -0.34030225831E+03  0.34535978538E+03  0.00000000000E+00 0.  1.
</event>
<event>
 7    1  0.4822463E-005  0.2364380E+03  0.7818608E-02  0.1199737E+00
          2   -1    0    0  502    0  0.00000000000E+00  0.00000000000E+00  0.95954484165E+03  0.95954484165E+03  0.00000000000E+00 0. -1.
          1   -1    0    0  501    0 -0.00000000000E+00 -0.00000000000E+00 -0.11531128655E+04  0.11531128655E+04  0.00000000000E+00 0. -1.
         25    2    1    2    0    0  0.12287537224E+03 -0.15520045111E+03 -0.19554351006E+03  0.30503740553E+03  0.12500006928E+03 0.  0.
          2    1    1    2  501    0 -0.58685555560E+02 -0.75879713307E+02 -0.88429027819E+03  0.88947794881E+03  0.00000000000E+00 0. -1.
          1    1    1    2  502    0 -0.64189816680E+02  0.23108016441E+03  0.88626576438E+03  0.91814235283E+03  0.00000000000E+00 0. -1.
         22    1    3    3    0    0  0.34797343790E+02  0.61824653717E+01  0.17148029854E+01  0.35383874324E+02  0.00000000000E+00 0. -1.
         22    1    3    3    0    0  0.88078028449E+02 -0.16138291648E+03 -0.19725831305E+03  0.26965353121E+03  0.00000000000E+00 0. -1.
</event>
<event>
 7    1  0.4822463E-005  0.1223427E+04  0.7818608E-02  0.1138233E+00
          2   -1    0    0  502    0  0.00000000000E+00  0.00000000000E+00  0.20019125954E+04  0.20019125954E+04  0.00000000000E+00 0. -1.
          1   -1    0    0  501    0 -0.00000000000E+00 -0.00000000000E+00 -0.17539881881E+04  0.17539881881E+04  0.00000000000E+00 0. -1.
         25    2    1    2    0    0  0.75625919998E+03 -0.93859235458E+03  0.50440550341E+03  0.13126059570E+04  0.12500360382E+03 0.  0.
          2    1    1    2  501    0  0.33979755179E+02 -0.15922258113E+02 -0.99832334083E+03  0.99902834540E+03  0.00000000000E+00 0. -1.
          1    1    1    2  502    0 -0.79023895515E+03  0.95451461269E+03  0.74184224472E+03  0.14442664810E+04  0.00000000000E+00 0. -1.
         22    1    3    3    0    0  0.44296749866E+03 -0.58115063002E+03  0.36775188453E+03  0.81804505269E+03  0.00000000000E+00 0.  1.
         22    1    3    3    0    0  0.31329170131E+03 -0.35744172455E+03  0.13665361888E+03  0.49456090436E+03  0.00000000000E+00 0.  1.
</event>
<event>
 7    1  0.4822463E-005  0.2605723E+03  0.7818608E-02  0.1245520E+00
          2   -1    0    0  502    0  0.00000000000E+00  0.00000000000E+00  0.12549807100E+04  0.12549807100E+04  0.00000000000E+00 0. -1.
          1   -1    0    0  501    0 -0.00000000000E+00 -0.00000000000E+00 -0.19405953856E+03  0.19405953856E+03  0.00000000000E+00 0. -1.
         25    2    1    2    0    0  0.26916002216E+02  0.26278704261E+03  0.17314256907E+03  0.33969022137E+03  0.12501838399E+03 0.  0.
          2    1    1    2  501    0  0.52015522923E+02 -0.14238240426E+02 -0.85860306478E+02  0.10139198363E+03  0.00000000000E+00 0. -1.
          1    1    1    2  502    0 -0.78931525138E+02 -0.24854880218E+03  0.97363890889E+03  0.10079580436E+04  0.00000000000E+00 0. -1.
         22    1    3    3    0    0 -0.39187308698E+02  0.51510590952E+02  0.70411982257E+02  0.95639078773E+02  0.00000000000E+00 0.  1.
         22    1    3    3    0    0  0.66103310913E+02  0.21127645166E+03  0.10273058681E+03  0.24405114260E+03  0.00000000000E+00 0.  1.
</event>
<event>
 7    1  0.4822463E-005  0.2244947E+03  0.7818608E-02  0.1263494E+00
          2   -1    0    0  502    0  0.00000000000E+00  0.00000000000E+00  0.38770438450E+03  0.38770438450E+03  0.00000000000E+00 0. -1.
          1   -1    0    0  501    0 -0.00000000000E+00 -0.00000000000E+00 -0.53660798652E+03  0.53660798652E+03  0.00000000000E+00 0. -1.
         25    2    1    2    0    0 -0.21028719448E+02 -0.24036187349E+03  0.12717822703E+03  0.30002601269E+03  0.12500107836E+03 0.  0.
          2    1    1    2  501    0 -0.38668171718E+02  0.35328703119E+02 -0.38223741144E+03  0.38580925789E+03  0.00000000000E+00 0. -1.
          1    1    1    2  502    0  0.59696891165E+02  0.20503317037E+03  0.10615558239E+03  0.23847710045E+03  0.00000000000E+00 0. -1.
         22    1    3    3    0    0  0.37094250522E+02 -0.19115947201E+03  0.10197945992E+03  0.21981296005E+03  0.00000000000E+00 0.  1.
         22    1    3    3    0    0 -0.58122969970E+02 -0.49202401478E+02  0.25198767114E+02  0.80213052638E+02  0.00000000000E+00 0.  1.
</event>
<event>
 7    1  0.4822463E-005  0.2796675E+03  0.7818608E-02  0.1230958E+00
          2   -1    0    0  502    0  0.00000000000E+00  0.00000000000E+00  0.20191796940E+04  0.20191796940E+04  0.00000000000E+00 0. -1.
          1   -1    0    0  501    0 -0.00000000000E+00 -0.00000000000E+00 -0.38191971560E+03  0.38191971560E+03  0.00000000000E+00 0. -1.
         25    2    1    2    0    0  0.19319218902E+03  0.22852088451E+03  0.74210792692E+03  0.80987296746E+03  0.12500012671E+03 0.  0.
          2    1    1    2  501    0  0.17414313308E+02 -0.55617485551E+02 -0.33052562202E+03  0.33562441779E+03  0.00000000000E+00 0. -1.
          1    1    1    2  502    0 -0.21060650232E+03 -0.17290339896E+03  0.12256776735E+04  0.12556020243E+04  0.00000000000E+00 0. -1.
         22    1    3    3    0    0  0.99436077159E+02  0.36047443427E+02  0.31172695585E+03  0.32918178355E+03  0.00000000000E+00 0. -1.
         22    1    3    3    0    0  0.93756111858E+02  0.19247344109E+03  0.43038097107E+03  0.48069118391E+03  0.00000000000E+00 0. -1.
</event>
<event>
 7    1  0.4822463E-005  0.8823604E+03  0.7818608E-02  0.1090550E+00
          2   -1    0    0  502    0  0.00000000000E+00  0.00000000000E+00  0.24746022539E+04  0.24746022539E+04  0.00000000000E+00 0. -1.
          1   -1    0    0  501    0 -0.00000000000E+00 -0.00000000000E+00 -0.57929305374E+03  0.57929305374E+03  0.00000000000E+00 0. -1.
         25    2    1    2    0    0  0.89883777653E+03  0.21173176251E+03  0.61885202464E+03  0.11186340403E+04  0.12499839999E+03 0.  0.
          2    1    1    2  501    0 -0.81663181142E+03 -0.25946631763E+03  0.23367084824E+03  0.88815108553E+03  0.00000000000E+00 0. -1.
          1    1    1    2  502    0 -0.82205965108E+02  0.47734555115E+02  0.10427863273E+04  0.10471101818E+04  0.00000000000E+00 0. -1.
         22    1    3    3    0    0  0.27823288628E+03  0.51320435060E+02  0.25877578531E+03  0.38342174315E+03  0.00000000000E+00 0.  1.
         22    1    3    3    0    0  0.62060489026E+03  0.16041132745E+03  0.36007623933E+03  0.73521229717E+03  0.00000000000E+00 0.  1.
</event>
<event>
 7    1  0.4822463E-005  0.1008242E+03  0.7818608E-02  0.1308938E+00
          2   -1    0    0  502    0  0.00000000000E+00  0.00000000000E+00  0.77432539527E+02  0.77432539527E+02  0.00000000000E+00 0. -1.
          1   -1    0    0  501    0 -0.00000000000E+00 -0.00000000000E+00 -0.87130109432E+03  0.87130109432E+03  0.00000000000E+00 0. -1.
         25    2    1    2    0    0  0.83158721343E+02  0.95963488603E+02 -0.99171932882E+02  0.20392374082E+03  0.12500182285E+03 0.  0.
          2    1    1    2  501    0 -0.98287788271E+02 -0.21490494532E+02 -0.64767902873E+03  0.65544675980E+03  0.00000000000E+00 0. -1.
          1    1    1    2  502    0  0.15129066928E+02 -0.74472994071E+02 -0.47017593181E+02  0.89363133229E+02  0.00000000000E+00 0. -1.
         22    1    3    3    0    0  0.19779071626E+02 -0.40967882317E+01  0.25119913633E+02  0.32233606828E+02  0.00000000000E+00 0. -1.
         22    1    3    3    0    0  0.63379649716E+02  0.10006027683E+03 -0.12429184652E+03  0.17169013399E+03  0.00000000000E+00 0. -1.
</event>
<event>
 7    1  0.4822463E-005  0.3877827E+03  0.7818608E-02  0.1113690E+00
          2   -1    0    0  502    0  0.00000000000E+00  0.00000000000E+00  0.11160374497E+04  0.11160374497E+04  0.00000000000E+00 0. -1.
          1   -1    0    0  501    0 -0.00000000000E+00 -0.00000000000E+00 -0.11661358518E+04  0.11661358518E+04  0.00000000000E+00 0. -1.
         25    2    1    2    0    0 -0.38718588899E+03 -0.26218005507E+03 -0.89744378175E+02  0.49227013253E+03  0.12499814423E+03 0.  0.
          2    1    1    2  501    0  0.21841517190E+02  0.15889410810E+03 -0.82770260504E+03  0.84309904036E+03  0.00000000000E+00 0. -1.
          1    1    1    2  502    0  0.36534437180E+03  0.10328594697E+03  0.86734858112E+03  0.94680412864E+03  0.00000000000E+00 0. -1.
         22    1    3    3    0    0 -0.17129559828E+03 -0.12480289321E+03 -0.10379859851E+03  0.23599172273E+03  0.00000000000E+00 0. -1.
         22    1    3    3    0    0 -0.21589029070E+03 -0.13737716186E+03  0.14054220334E+02  0.25627840980E+03  0.00000000000E+00 0. -1.
</event>
<event>
 7    1  0.4822463E-005  0.6909941E+03  0.7818608E-02  0.1159902E+00
          2   -1    0    0  502    0  0.00000000000E+00  0.00000000000E+00  0.16262962955E+04  0.16262962955E+04  0.00000000000E+00 0. -1.
          1   -1    0    0  501    0 -0.00000000000E+00 -0.00000000000E+00 -0.15359266335E+04  0.15359266335E+04  0.00000000000E+00 0. -1.
         25    2    1    2    0    0  0.27684024359E+03  0.58689900722E+03  0.29078795550E+03  0.72199443604E+03  0.12500946148E+03 0.  0.
          2    1    1    2  501    0 -0.28611539725E+03 -0.63742851604E+03 -0.12272010642E+04  0.14121613171E+04  0.00000000000E+00 0. -1.
          1    1    1    2  502    0  0.92751536626E+01  0.50529508818E+02  0.10267827707E+04  0.10280671758E+04  0.00000000000E+00 0. -1.
         22    1    3    3    0    0  0.11831676782E+03  0.39207026908E+03  0.18743512229E+03  0.45038858613E+03  0.00000000000E+00 0. -1.
         22    1    3    3    0    0  0.15852347577E+03  0.19482873814E+03  0.10335283320E+03  0.27160584991E+03  0.00000000000E+00 0. -1.
</event>
<event>
 7    1  0.4822463E-005  0.1865812E+03  0.7818608E-02  0.1264345E+00
          2   -1    0    0  502    0  0.00000000000E+00  0.00000000000E+00  0.62541870265E+02  0.62541870265E+02  0.00000000000E+00 0. -1.
          1   -1    0    0  501    0 -0.00000000000E+00 -0.00000000000E+00 -0.13641652669E+04  0.13641652669E+04  0.00000000000E+00 0. -1.
         25    2    1    2    0    0  0.41595708450E+02  0.17326297288E+03 -0.63500450764E+03  0.67127090004E+03  0.12499454301E+03 0.  0.
          2    1    1    2  501    0  0.16336662685E+02 -0.19671270454E+03 -0.66417927987E+03  0.69289024419E+03  0.00000000000E+00 0. -1.
          1    1    1    2  502    0 -0.57932371135E+02  0.23449731660E+02 -0.24396091244E+01  0.62545992941E+02  0.00000000000E+00 0. -1.
         22    1    3    3    0    0 -0.17716941430E+01  0.11392123875E+03 -0.20064807085E+03  0.23073975789E+03  0.00000000000E+00 0. -1.
         22    1    3    3    0    0  0.43367402593E+02  0.59341734136E+02 -0.43435643680E+03  0.44053114215E+03  0.00000000000E+00 0. -1.
</event>
<event>
 7    1  0.4822463E-005  0.4217778E+03  0.7818608E-02  0.1087013E+00
          2   -1    0    0  502    0  0.00000000000E+00  0.00000000000E+00  0.16462607702E+04  0.16462607702E+04  0.00000000000E+00 0. -1.
          1   -1    0    0  501    0 -0.00000000000E+00 -0.00000000000E+00 -0.38291038364E+03  0.38291038364E+03  0.00000000000E+00 0. -1.
         25    2    1    2    0    0 -0.11763377629E+03 -0.37636640607E+03 -0.11361697064E+03  0.42898244273E+03  0.12501097237E+03 0.  0.
          2    1    1    2  501    0  0.23046289276E+03  0.55158758534E+03  0.90952037247E+03  0.10883884036E+04  0.00000000000E+00 0. -1.
          1    1    1    2  502    0 -0.11282911647E+03 -0.17522117927E+03  0.46744698473E+03  0.51180030747E+03  0.00000000000E+00 0. -1.
         22    1    3    3    0    0 -0.27500806140E+02 -0.12863442304E+03  0.20629939694E+02  0.13314917777E+03  0.00000000000E+00 0. -1.
         22    1    3    3    0    0 -0.90132970154E+02 -0.24773198303E+03 -0.13424691033E+03  0.29583326496E+03  0.00000000000E+00 0. -1.
</event>
<event>
 7    1  0.4822463E-005  0.1645341E+03  0.7818608E-02  0.1341130E+00
          2   -1    0    0  502    0  0.00000000000E+00  0.00000000000E+00  0.28889318319E+04  0.28889318319E+04  0.00000000000E+00 0. -1.
          1   -1    0    0  501    0 -0.00000000000E+00 -0.00000000000E+00 -0.96326971265E+02  0.96326971265E+02  0.00000000000E+00 0. -1.
         25    2    1    2    0    0  0.29369028913E+02  0.16043618606E+03  0.67368315675E+02  0.21625307777E+03  0.12499837611E+03 0.  0.
          2    1    1    2  501    0  0.42051286763E+01 -0.17034498406E+03  0.31186162739E+03  0.35537694262E+03  0.00000000000E+00 0. -1.
          1    1    1    2  502    0 -0.33574157589E+02  0.99087980080E+01  0.24133749176E+04  0.24136287828E+04  0.00000000000E+00 0. -1.
         22    1    3    3    0    0  0.10073001316E+02  0.17255318417E+03  0.79708983565E+02  0.19034071762E+03  0.00000000000E+00 0. -1.
         22    1    3    3    0    0  0.19296027597E+02 -0.12116998115E+02 -0.12340667890E+02  0.25912360146E+02  0.00000000000E+00 0. -1.
</event>
<event>
 7    1  0.4822463E-005  0.8335507E+03  0.7818608E-02  0.1052729E+00
          2   -1    0    0  502    0  0.00000000000E+00  0.00000000000E+00  0.14198901390E+04  0.14198901390E+04  0.00000000000E+00 0. -1.
          1   -1    0    0  501    0 -0.00000000000E+00 -0.00000000000E+00 -0.23229898767E+04  0.23229898767E+04  0.00000000000E+00 0. -1.
         25    2    1    2    0    0 -0.60808489516E+02 -0.90749650803E+03  0.16518270614E+03  0.93282904211E+03  0.12504843431E+03 0.  0.
          2    1    1    2  501    0 -0.11220072469E+03  0.12620733420E+03 -0.17504211708E+04  0.17585481424E+04  0.00000000000E+00 0. -1.
          1    1    1    2  502    0  0.17300921420E+03  0.78128917383E+03  0.68213872699E+03  0.10515028313E+04  0.00000000000E+00 0. -1.
         22    1    3    3    0    0  0.49268620011E+01 -0.61752524612E+03  0.74754342656E+02  0.62205298433E+03  0.00000000000E+00 0.  1.
         22    1    3    3    0    0 -0.65735351517E+02 -0.28997126191E+03  0.90428363479E+02  0.31077605779E+03  0.00000000000E+00 0.  1.
</event>
<event>
 7    1  0.4822463E-005  0.1215641E+03  0.7818608E-02  0.1258260E+00
          2   -1    0    0  502    0  0.00000000000E+00  0.00000000000E+00  0.21210351099E+03  0.21210351099E+03  0.00000000000E+00 0. -1.
          1   -1    0    0  501    0 -0.00000000000E+00 -0.00000000000E+00 -0.32578501554E+03  0.32578501554E+03  0.00000000000E+00 0. -1.
         25    2    1    2    0    0  0.57139776649E+02 -0.57101418648E+02 -0.15365577325E+03  0.21391362628E+03  0.12499366690E+03 0.  0.
          2    1    1    2  501    0 -0.10521236351E+02  0.16937140235E+03 -0.45112203382E+02  0.17559179720E+03  0.00000000000E+00 0. -1.
          1    1    1    2  502    0 -0.46618540298E+02 -0.11226998371E+03  0.85086472087E+02  0.14838310306E+03  0.00000000000E+00 0. -1.
         22    1    3    3    0    0  0.45832603070E+02  0.32745662175E+02 -0.42633518595E+02  0.70643632432E+02  0.00000000000E+00 0.  1.
         22    1    3    3    0    0  0.11307173579E+02 -0.89847080823E+02 -0.11102225466E+03  0.14326999384E+03  0.00000000000E+00 0.  1.
</event>
<event>
 7    1  0.4822463E-005  0.4190610E+03  0.7818608E-02  0.1156437E+00
          2   -1    0    0  502    0  0.00000000000E+00  0.00000000000E+00  0.24875959322E+04  0.24875959322E+04  0.00000000000E+00 0. -1.
          1   -1    0    0  501    0 -0.00000000000E+00 -0.00000000000E+00 -0.18525865695E+04  0.18525865695E+04  0.00000000000E+00 0. -1.
         25    2    1    2    0    0 -0.14570333447E+03  0.43902323890E+03  0.46451315117E+03  0.66735921948E+03  0.12499997700E+03 0.  0.
          2    1    1    2  501    0  0.81671312486E+02 -0.33324128978E+02 -0.17280796695E+04  0.17303294614E+04  0.00000000000E+00 0. -1.
          1    1    1    2  502    0  0.64032021981E+02 -0.40569910993E+03  0.18985758810E+04  0.19424938207E+04  0.00000000000E+00 0. -1.
         22    1    3    3    0    0 -0.15065342836E+03  0.34908433541E+03  0.42117171093E+03  0.56739927634E+03  0.00000000000E+00 0.  1.
         22    1    3    3    0    0  0.49500938898E+01  0.89938903495E+02  0.43341440237E+02  0.99959943143E+02  0.00000000000E+00 0.  1.
</event>
<event>
 7    1  0.4822463E-005  0.2519761E+03  0.7818608E-02  0.1163545E+00
          2   -1    0    0  502    0  0.00000000000E+00  0.00000000000E+00  0.18101377903E+04  0.18101377903E+04  0.00000000000E+00 0. -1.
          1   -1    0    0  501    0 -0.00000000000E+00 -0.00000000000E+00 -0.42647625089E+03  0.42647625089E+03  0.00000000000E+00 0. -1.
         25    2    1    2    0    0 -0.16357154678E+03  0.19953077654E+03 -0.17037052183E+02  0.28720138930E+03  0.12500478056E+03 0.  0.
          2    1    1    2  501    0 -0.74774106554E+02 -0.11246016550E+03 -0.24741799818E+03  0.28187607500E+03  0.00000000000E+00 0. -1.
          1    1    1    2  502    0  0.23834565334E+03 -0.87070611040E+02  0.16481165898E+04  0.16675365769E+04  0.00000000000E+00 0. -1.
         22    1    3    3    0    0 -0.13571422093E+03  0.19060588562E+03 -0.53929217467E+02  0.24011937425E+03  0.00000000000E+00 0.  1.
         22    1    3    3    0    0 -0.27857325849E+02  0.89248909277E+01  0.36892165284E+02  0.47082015047E+02  0.00000000000E+00 0.  1.
</event>
<event>
 7    1  0.4822463E-005  0.8811657E+02  0.7818608E-02  0.1417964E+00
          2   -1    0    0  502    0  0.00000000000E+00  0.00000000000E+00  0.15441869392E+04  0.15441869392E+04  0.00000000000E+00 0. -1.
          1   -1    0    0  501    0 -0.00000000000E+00 -0.00000000000E+00 -0.20284680615E+03  0.20284680615E+03  0.00000000000E+00 0. -1.
         25    2    1    2    0    0 -0.76796285566E+02 -0.69226818472E+02  0.77501485978E+03  0.79181054505E+03  0.12500353797E+03 0.  0.
          2    1    1    2  501    0  0.34614941376E+02 -0.44408833257E+01 -0.19049077178E+03  0.19366117253E+03  0.00000000000E+00 0. -1.
          1    1    1    2  502    0  0.42181344190E+02  0.73667701798E+02  0.75681604509E+03  0.76156202780E+03  0.00000000000E+00 0. -1.
         22    1    3    3    0    0 -0.72458302060E+02 -0.51678549143E+02  0.76681269013E+03  0.77196021900E+03  0.00000000000E+00 0.  1.
         22    1    3    3    0    0 -0.43379835054E+01 -0.17548269329E+02  0.82021696516E+01  0.19850326051E+02  0.00000000000E+00 0.  1.
</event>
<event>
 7    1  0.4822463E-005  0.2469396E+03  0.7818608E-02  0.1208282E+00
          2   -1    0    0  502    0  0.00000000000E+00  0.00000000000E+00  0.54298374246E+03  0.54298374246E+03  0.00000000000E+00 0. -1.
          1   -1    0    0  501    0 -0.00000000000E+00 -0.00000000000E+00 -0.33517365178E+03  0.33517365178E+03  0.00000000000E+00 0. -1.
         25    2    1    2    0    0 -0.27000103513E+03  0.83614162220E+02 -0.11620735066E+03  0.33018435988E+03  0.12500270423E+03 0.  0.
          2    1    1    2  501    0  0.67274453508E+02  0.49897839964E+02 -0.53326998432E+02  0.99294588420E+02  0.00000000000E+00 0. -1.
          1    1    1    2  502    0  0.20272658162E+03 -0.13351200218E+03  0.37734443978E+03  0.44867844594E+03  0.00000000000E+00 0. -1.
         22    1    3    3    0    0 -0.27316258652E+03  0.73689709135E+02 -0.13124914838E+03  0.31188829869E+03  0.00000000000E+00 0.  1.
         22    1    3    3    0    0  0.31615513927E+01  0.99244530852E+01  0.15041797722E+02  0.18296061187E+02  0.00000000000E+00 0.  1.
</event>
<event>
 7    1  0.4822463E-005  0.1245427E+03  0.7818608E-02  0.1300319E+00
          2   -1    0    0  502    0  0.00000000000E+00  0.00000000000E+00  0.47216145969E+02  0.47216145969E+02  0.00000000000E+00 0. -1.
          1   -1    0    0  501    0 -0.00000000000E+00 -0.00000000000E+00 -0.14292102566E+04  0.14292102566E+04  0.00000000000E+00 0. -1.
         25    2    1    2    0    0 -0.73329200885E+02 -0.32339759918E+02 -0.56619261028E+03  0.58533504967E+03  0.12498006506E+03 0.  0.
          2    1    1    2  501    0 -0.23345439870E+02 -0.62342550795E+02 -0.72518788127E+03  0.72823695755E+03  0.00000000000E+00 0. -1.
          1    1    1    2  502    0  0.96674640756E+02  0.94682310713E+02 -0.90613619122E+02  0.16285439539E+03  0.00000000000E+00 0. -1.
         22    1    3    3    0    0 -0.26478058624E+01 -0.30108538926E+02 -0.24120086983E+02  0.38669284816E+02  0.00000000000E+00 0. -1.
         22    1    3    3    0    0 -0.70681395023E+02 -0.22312209924E+01 -0.54207252329E+03  0.54666576485E+03  0.00000000000E+00 0. -1.
</event>
<event>
 7    1  0.4822463E-005  0.1395111E+03  0.7818608E-02  0.1349805E+00
          2   -1    0    0  502    0  0.00000000000E+00  0.00000000000E+00  0.20601902936E+04  0.20601902936E+04  0.00000000000E+00 0. -1.
          1   -1    0    0  501    0 -0.00000000000E+00 -0.00000000000E+00 -0.74552525267E+03  0.74552525267E+03  0.00000000000E+00 0. -1.
         25    2    1    2    0    0  0.80297150503E+02 -0.11267584974E+03 -0.39347981687E+03  0.43542523185E+03  0.12500114700E+03 0.  0.
          2    1    1    2  501    0 -0.33413122690E+02 -0.18760465854E+02 -0.32756715978E+03  0.32980090360E+03  0.00000000000E+00 0. -1.
          1    1    1    2  502    0 -0.46884027813E+02  0.13143631559E+03  0.20357120176E+04  0.20404894109E+04  0.00000000000E+00 0. -1.
         22    1    3    3    0    0  0.14123037328E+02 -0.94584980818E+02 -0.11986242877E+03  0.15333877726E+03  0.00000000000E+00 0.  1.
         22    1    3    3    0    0  0.66174113175E+02 -0.18090868918E+02 -0.27361738810E+03  0.28208645459E+03  0.00000000000E+00 0.  1.
</event>
<event>
 7    1  0.6456111E-005  0.4330612E+03  0.7818608E-02  0.1163432E+00
          2   -1    0    0  502    0  0.00000000000E+00  0.00000000000E+00  0.15821153691E+04  0.15821153691E+04  0.00000000000E+00 0. -1.
          1   -1    0    0  501    0 -0.00000000000E+00 -0.00000000000E+00 -0.11605934863E+04  0.11605934863E+04  0.00000000000E+00 0. -1.
         25    2    1    2    0    0  0.44191739285E+02 -0.46535538003E+03 -0.53436168190E+03  0.72088360836E+03  0.12498892020E+03 0.  0.
          2    1    1    2  501    0 -0.70687269065E+02  0.34556230136E+02 -0.49853975117E+03  0.50471051757E+03  0.00000000000E+00 0. -1.
          1    1    1    2  502    0  0.26495529779E+02  0.43079914990E+03  0.14544233158E+04  0.15171147295E+04  0.00000000000E+00 0. -1.
         22    1    3    3    0    0  0.65242235372E+02 -0.11510618042E+03 -0.16369372206E+03  0.21047949233E+03  0.00000000000E+00 0. -1.
         22    1    3    3    0    0 -0.21050496086E+02 -0.35024919961E+03 -0.37066795984E+03  0.51040411603E+03  0.00000000000E+00 0. -1.
</event>
<event>
 7    1  0.4822463E-005  0.4112058E+03  0.7818608E-02  0.1176379E+00
          2   -1    0    0  502    0  0.00000000000E+00  0.00000000000E+00  0.29496308929E+03  0.29496308929E+03  0.00000000000E+00 0. -1.
          1   -1    0    0  501    0 -0.00000000000E+00 -0.00000000000E+00 -0.16847566189E+04  0.16847566189E+04  0.00000000000E+00 0. -1.
         25    2    1    2    0    0 -0.34808328344E+03  0.24967897612E+03  0.16327050617E+02  0.44653431240E+03  0.12499902496E+03 0.  0.
          2    1    1    2  501    0  0.28424635269E+02 -0.65560514799E+02 -0.92086299704E+03  0.92363131189E+03  0.00000000000E+00 0. -1.
          1    1    1    2  502    0  0.31965864817E+03 -0.18411846133E+03 -0.48525758319E+03  0.60955408390E+03  0.00000000000E+00 0. -1.
         22    1    3    3    0    0 -0.18592515221E+03  0.20136454153E+03 -0.14886481405E+02  0.27447668050E+03  0.00000000000E+00 0. -1.
         22    1    3    3    0    0 -0.16215813123E+03  0.48314434590E+02  0.31213532021E+02  0.17205763190E+03  0.00000000000E+00 0. -1.
</event>
<event>
 7    1  0.4822463E-005  0.2768709E+03  0.7818608E-02  0.1124263E+00
          2   -1    0    0  502    0  0.00000000000E+00  0.00000000000E+00  0.11469819727E+04  0.11469819727E+04  0.00000000000E+00 0. -1.
          1   -1    0    0  501    0 -0.00000000000E+00 -0.00000000000E+00 -0.89513379065E+03  0.89513379065E+03  0.00000000000E+00 0. -1.
         25    2    1    2    0    0  0.31134376052E+03 -0.21625515718E+03 -0.23131278004E+03  0.46133829436E+03  0.12500475757E+03 0.  0.
          2    1    1    2  501    0 -0.19425011142E+03 -0.31389858391E+02 -0.51204934308E+03  0.54855533790E+03  0.00000000000E+00 0. -1.
          1    1    1    2  502    0 -0.11709364910E+03  0.24764501557E+03  0.99521030514E+03  0.10322221311E+04  0.00000000000E+00 0. -1.
         22    1    3    3    0    0  0.56441221005E+02 -0.73049749965E+02 -0.65341849386E+01  0.92544978098E+02  0.00000000000E+00 0.  1.
         22    1    3    3    0    0  0.25490253951E+03 -0.14320540721E+03 -0.22477859510E+03  0.36879331626E+03  0.00000000000E+00 0.  1.
</event>
<event>
 7    1  0.4822463E-005  0.4105358E+03  0.7818608E-02  0.1217034E+00
          2   -1    0    0  502    0  0.00000000000E+00  0.00000000000E+00  0.52375979665E+03  0.52375979665E+03  0.00000000000E+00 0. -1.
          1   -1    0    0  501    0 -0.00000000000E+00 -0.00000000000E+00 -0.18421929264E+04  0.18421929264E+04  0.00000000000E+00 0. -1.
         25    2    1    2    0    0 -0.25236150296E+03 -0.36016038815E+03 -0.32520290239E+02  0.45834936142E+03  0.12499893786E+03 0.  0.
          2    1    1    2  501    0  0.35126430437E+02  0.29555733321E+02 -0.14703958193E+04  0.14711122571E+04  0.00000000000E+00 0. -1.
          1    1    1    2  502    0  0.21723507253E+03  0.33060465483E+03  0.18448297980E+03  0.43649110456E+03  0.00000000000E+00 0. -1.
         22    1    3    3    0    0 -0.11549744409E+03 -0.23048007194E+03  0.30395140024E+02  0.25958541501E+03  0.00000000000E+00 0.  1.
         22    1    3    3    0    0 -0.13686405888E+03 -0.12968031621E+03 -0.62915430263E+02  0.19876394640E+03  0.00000000000E+00 0.  1.
</event>
<event>
 7    1  0.4822463E-005  0.3114003E+03  0.7818608E-02  0.1122283E+00
          2   -1    0    0  502    0  0.00000000000E+00  0.00000000000E+00  0.17094419454E+04  0.17094419454E+04  0.00000000000E+00 0. -1.
          1   -1    0    0  501    0 -0.00000000000E+00 -0.00000000000E+00 -0.51844327175E+03  0.51844327175E+03  0.00000000000E+00 0. -1.
         25    2    1    2    0    0  0.39716546764E+03  0.21441562949E+03  0.19242346198E+03  0.50632500601E+03  0.12499500846E+03 0.  0.
          2    1    1    2  501    0 -0.17893488580E+03 -0.11606609265E+02 -0.32158736834E+03  0.36819945982E+03  0.00000000000E+00 0. -1.
          1    1    1    2  502    0 -0.21823058184E+03 -0.20280902022E+03  0.13201625800E+04  0.13533607513E+04  0.00000000000E+00 0. -1.
         22    1    3    3    0    0  0.23084129360E+03  0.17516796996E+03  0.76114128928E+02  0.29960787899E+03  0.00000000000E+00 0. -1.
         22    1    3    3    0    0  0.16632417404E+03  0.39247659521E+02  0.11630933306E+03  0.20671712702E+03  0.00000000000E+00 0. -1.
</event>
<event>
 7    1  0.4822463E-005  0.1825511E+04  0.7818608E-02  0.1093005E+00
          2   -1    0    0  502    0  0.00000000000E+00  0.00000000000E+00  0.32614056203E+04  0.32614056203E+04  0.00000000000E+00 0. -1.
          1   -1    0    0  501    0 -0.00000000000E+00 -0.00000000000E+00 -0.25759669309E+04  0.25759669309E+04  0.00000000000E+00 0. -1.
         25    2    1    2    0    0  0.72666403273E+03 -0.16477063327E+04  0.37527689144E+03  0.18437557297E+04  0.12500268147E+03 0.  0.
          2    1    1    2  501    0 -0.76612523546E+03  0.16682423496E+04 -0.13839147019E+04  0.22989563535E+04  0.00000000000E+00 0. -1.
          1    1    1    2  502    0  0.39461202725E+02 -0.20536016864E+02  0.16940764998E+04  0.16946604679E+04  0.00000000000E+00 0. -1.
         22    1    3    3    0    0  0.19258864585E+03 -0.53870500727E+03  0.77246485533E+02  0.57728718234E+03  0.00000000000E+00 0.  1.
         22    1    3    3    0    0  0.53407538688E+03 -0.11090013254E+04  0.29803040591E+03  0.12664685474E+04  0.00000000000E+00 0.  1.
</event>
<event>
 7    1  0.4822463E-005  0.5528341E+03  0.7818608E-02  0.1138379E+00
          2   -1    0    0  502    0  0.00000000000E+00  0.00000000000E+00  0.23300597472E+04  0.23300597472E+04  0.00000000000E+00 0. -1.
          1   -1    0    0  501    0 -0.00000000000E+00 -0.00000000000E+00 -0.17836350386E+04  0.17836350386E+04  0.00000000000E+00 0. -1.
         25    2    1    2    0    0  0.16179439303E+03 -0.56371544788E+03  0.10364439597E+04  0.11974111922E+04  0.12499979969E+03 0.  0.
          2    1    1    2  501    0 -0.22085622367E+03  0.50554749953E+03 -0.16569671179E+04  0.17463950801E+04  0.00000000000E+00 0. -1.
          1    1    1    2  502    0  0.59061830640E+02  0.58167948351E+02  0.11669478668E+04  0.11698885134E+04  0.00000000000E+00 0. -1.
         22    1    3    3    0    0  0.11427730894E+02 -0.25830127984E+03  0.41950584190E+03  0.49278321358E+03  0.00000000000E+00 0. -1.
         22    1    3    3    0    0  0.15036666213E+03 -0.30541416804E+03  0.61693811778E+03  0.70462797865E+03  0.00000000000E+00 0. -1.
</event>
<event>
 7    1  0.4822463E-005  0.1509114E+03  0.7818608E-02  0.1218828E+00
          2   -1    0    0  502    0  0.00000000000E+00  0.00000000000E+00  0.11018569906E+03  0.11018569906E+03  0.00000000000E+00 0. -1.
          1   -1    0    0  501    0 -0.00000000000E+00 -0.00000000000E+00 -0.21486446092E+04  0.21486446092E+04  0.00000000000E+00 0. -1.
         25    2    1    2    0    0  0.95159568734E+02  0.23470343833E+02 -0.13941867698E+04  0.14032063261E+04  0.12500017615E+03 0.  0.
          2    1    1    2  501    0 -0.24580247391E+03 -0.14472751961E+02 -0.65948067451E+03  0.70394820603E+03  0.00000000000E+00 0. -1.
          1    1    1    2  502    0  0.15064290518E+03 -0.89975918724E+01  0.15208534179E+02  0.15167577609E+03  0.00000000000E+00 0. -1.
         22    1    3    3    0    0  0.85143264769E+01  0.40711405567E+02 -0.14357399426E+03  0.14947710235E+03  0.00000000000E+00 0.  1.
         22    1    3    3    0    0  0.86645242258E+02 -0.17241061733E+02 -0.12506127755E+04  0.12537292238E+04  0.00000000000E+00 0.  1.
</event>
<event>
 7    1  0.4822463E-005  0.3105021E+03  0.7818608E-02  0.1155482E+00
          2   -1    0    0  502    0  0.00000000000E+00  0.00000000000E+00  0.59859871998E+03  0.59859871998E+03  0.00000000000E+00 0. -1.
          1   -1    0    0  501    0 -0.00000000000E+00 -0.00000000000E+00 -0.30424266281E+03  0.30424266281E+03  0.00000000000E+00 0. -1.
         25    2    1    2    0    0  0.31528131731E+03  0.82677570847E+02 -0.65846513004E+02  0.35524512515E+03  0.12500178361E+03 0.  0.
          2    1    1    2  501    0 -0.23265123364E+03 -0.17022989096E+03  0.28654081073E+03  0.40646088189E+03  0.00000000000E+00 0. -1.
          1    1    1    2  502    0 -0.82630083663E+02  0.87552320110E+02  0.73661759446E+02  0.14113537575E+03  0.00000000000E+00 0. -1.
         22    1    3    3    0    0  0.15252221307E+03  0.51424444165E+01 -0.83742253423E+02  0.17407537225E+03  0.00000000000E+00 0. -1.
         22    1    3    3    0    0  0.16275910424E+03  0.77535126431E+02  0.17895740419E+02  0.18116975290E+03  0.00000000000E+00 0. -1.
</event>
<event>
 7    1  0.4822463E-005  0.8390103E+03  0.7818608E-02  0.1117405E+00
          2   -1    0    0  502    0  0.00000000000E+00  0.00000000000E+00  0.23352394373E+04  0.23352394373E+04  0.00000000000E+00 0. -1.
          1   -1    0    0  501    0 -0.00000000000E+00 -0.00000000000E+00 -0.60366793635E+03  0.60366793635E+03  0.00000000000E+00 0. -1.
         25    2    1    2    0    0  0.64122737665E+03 -0.58846144447E+03  0.18327392614E+03  0.89815225615E+03  0.12501489121E+03 0.  0.
          2    1    1    2  501    0 -0.58050585652E+03  0.55217277785E+03  0.40949929329E+03  0.89976191143E+03  0.00000000000E+00 0. -1.
          1    1    1    2  502    0 -0.60721520124E+02  0.36288666619E+02  0.11387982815E+04  0.11409932061E+04  0.00000000000E+00 0. -1.
         22    1    3    3    0    0  0.41104958627E+02 -0.65800382499E+02 -0.12564344608E+02  0.78594978950E+02  0.00000000000E+00 0. -1.
         22    1    3    3    0    0  0.60012241802E+03 -0.52266106197E+03  0.19583827075E+03  0.81955727720E+03  0.00000000000E+00 0. -1.
</event>
<event>
 7    1  0.4822463E-005  0.2842916E+03  0.7818608E-02  0.1150600E+00
          2   -1    0    0  502    0  0.00000000000E+00  0.00000000000E+00  0.47611399536E+03  0.47611399536E+03  0.00000000000E+00 0. -1.
          1   -1    0    0  501    0 -0.00000000000E+00 -0.00000000000E+00 -0.31553520039E+03  0.31553520039E+03  0.00000000000E+00 0. -1.
         25    2    1    2    0    0  0.16720745542E+03  0.17395321853E+03  0.21925239059E+02  0.27262439214E+03  0.12500115080E+03 0.  0.
          2    1    1    2  501    0 -0.49053761282E+02  0.13034865388E+03 -0.42602411306E+02  0.14564342935E+03  0.00000000000E+00 0. -1.
          1    1    1    2  502    0 -0.11815369413E+03 -0.30430187241E+03  0.18125596721E+03  0.37338137425E+03  0.00000000000E+00 0. -1.
         22    1    3    3    0    0  0.35481681382E+02  0.26061700417E+02  0.56450798377E+02  0.71588089650E+02  0.00000000000E+00 0.  1.
         22    1    3    3    0    0  0.13172577403E+03  0.14789151811E+03 -0.34525559318E+02  0.20103630249E+03  0.00000000000E+00 0.  1.
</event>
<event>
 7    1  0.4822463E-005  0.4192762E+03  0.7818608E-02  0.1119083E+00
          2   -1    0    0  502    0  0.00000000000E+00  0.00000000000E+00  0.13010240392E+04  0.13010240392E+04  0.00000000000E+00 0. -1.
          1   -1    0    0  501    0 -0.00000000000E+00 -0.00000000000E+00 -0.10652186900E+04  0.10652186900E+04  0.00000000000E+00 0. -1.
         25    2    1    2    0    0  0.13303062768E+03  0.44179124938E+03 -0.80534278479E+03  0.93652611168E+03  0.12501000325E+03 0.  0.
          2    1    1    2  501    0 -0.60885684479E+02 -0.32344229043E+03 -0.47277350063E+02  0.33250132277E+03  0.00000000000E+00 0. -1.
          1    1    1    2  502    0 -0.72144943202E+02 -0.11834895895E+03  0.10884254840E+04  0.10972152948E+04  0.00000000000E+00 0. -1.
         22    1    3    3    0    0 -0.14396664633E+02  0.55709908538E+02 -0.16165094414E+03  0.17158637942E+03  0.00000000000E+00 0.  1.
         22    1    3    3    0    0  0.14742729231E+03  0.38608134085E+03 -0.64369184065E+03  0.76493973226E+03  0.00000000000E+00 0.  1.
</event>
<event>
 7    1  0.4822463E-005  0.1031599E+04  0.7818608E-02  0.1127938E+00
          2   -1    0    0  502    0  0.00000000000E+00  0.00000000000E+00  0.26858148184E+04  0.26858148184E+04  0.00000000000E+00 0. -1.
          1   -1    0    0  501    0 -0.00000000000E+00 -0.00000000000E+00 -0.13964272712E+04  0.13964272712E+04  0.00000000000E+00 0. -1.
         25    2    1    2    0    0 -0.44329453196E+03 -0.96691700842E+03  0.86094898251E+03  0.13741531418E+04  0.12500065356E+03 0.  0.
          2    1    1    2  501    0  0.39801314821E+03  0.94464034184E+03 -0.90878785236E+03  0.13699106548E+04  0.00000000000E+00 0. -1.
          1    1    1    2  502    0  0.45281383752E+02  0.22276666578E+02  0.13372264170E+04  0.13381782930E+04  0.00000000000E+00 0. -1.
         22    1    3    3    0    0 -0.10252853336E+03 -0.36437357282E+03  0.28998223933E+03  0.47683319919E+03  0.00000000000E+00 0. -1.
         22    1    3    3    0    0 -0.34076599860E+03 -0.60254343560E+03  0.57096674319E+03  0.89731994261E+03  0.00000000000E+00 0. -1.
</event>
<event>
 7    1  0.4822463E-005  0.6607215E+02  0.7818608E-02  0.1401912E+00
          2   -1    0    0  502    0  0.00000000000E+00  0.00000000000E+00  0.37629796285E+03  0.37629796285E+03  0.00000000000E+00 0. -1.
          1   -1    0    0  501    0 -0.00000000000E+00 -0.00000000000E+00 -0.15847754418E+04  0.15847754418E+04  0.00000000000E+00 0. -1.
         25    2    1    2    0    0 -0.21871162470E+02 -0.50301343050E+01 -0.15603699289E+04  0.15655296067E+04  0.12499993864E+03 0.  0.
          2    1    1    2  501    0 -0.34217007881E+02  0.40151017044E+02  0.18896105301E+02  0.56035440513E+02  0.00000000000E+00 0. -1.
          1    1    1    2  502    0  0.56088170350E+02 -0.35120882739E+02  0.33299634458E+03  0.33950835743E+03  0.00000000000E+00 0. -1.
         22    1    3    3    0    0  0.34419206721E+02  0.38139589477E+02 -0.45627411762E+03  0.45915725028E+03  0.00000000000E+00 0. -1.
         22    1    3    3    0    0 -0.56290369191E+02 -0.43169723782E+02 -0.11040958112E+04  0.11063723564E+04  0.00000000000E+00 0. -1.
</event>
<event>
 7    1  0.4822463E-005  0.3008696E+03  0.7818608E-02  0.1267922E+00
          2   -1    0    0  502    0  0.00000000000E+00  0.00000000000E+00  0.66703586958E+03  0.66703586958E+03  0.00000000000E+00 0. -1.
          1   -1    0    0  501    0 -0.00000000000E+00 -0.00000000000E+00 -0.17498299402E+03  0.17498299402E+03  0.00000000000E+00 0. -1.
         25    2    1    2    0    0  0.12998875589E+03  0.28429268815E+03  0.36083159031E+03  0.49350224983E+03  0.12500249929E+03 0.  0.
          2    1    1    2  501    0 -0.33771134759E+02 -0.16144854227E+02  0.88805635763E+01  0.38470901606E+02  0.00000000000E+00 0. -1.
          1    1    1    2  502    0 -0.96217621136E+02 -0.26814783392E+03  0.12234072167E+03  0.31004571216E+03  0.00000000000E+00 0. -1.
         22    1    3    3    0    0  0.66959244227E+02  0.21784325209E+03  0.32088713161E+03  0.39358324926E+03  0.00000000000E+00 0. -1.
         22    1    3    3    0    0  0.63029511668E+02  0.66449436058E+02  0.39944458701E+02  0.99919000567E+02  0.00000000000E+00 0. -1.
</event>
<event>
 7    1  0.4822463E-005  0.1995850E+03  0.7818608E-02  0.1243738E+00
          2   -1    0    0  502    0  0.00000000000E+00  0.00000000000E+00  0.42331094094E+03  0.42331094094E+03  0.00000000000E+00 0. -1.
          1   -1    0    0  501    0 -0.00000000000E+00 -0.00000000000E+00 -0.53646974658E+03  0.53646974658E+03  0.00000000000E+00 0. -1.
         25    2    1    2    0    0 -0.60810595612E+01  0.15435915389E+03 -0.13296387092E+03  0.23909847755E+03  0.12499985328E+03 0.  0.
          2    1    1    2  501    0  0.53562792073E+02  0.47640860353E+02 -0.31704499788E+03  0.32504792716E+03  0.00000000000E+00 0. -1.
          1    1    1    2  502    0 -0.47481732512E+02 -0.20200001424E+03  0.33685006316E+03  0.39563428280E+03  0.00000000000E+00 0. -1.
         22    1    3    3    0    0 -0.55119261540E+01 -0.21732078919E+02 -0.18567699947E+02  0.29110549040E+02  0.00000000000E+00 0. -1.
         22    1    3    3    0    0 -0.56913340721E+00  0.17609123281E+03 -0.11439617097E+03  0.20998792851E+03  0.00000000000E+00 0. -1.
</event>
<event>
 7    1  0.4822463E-005  0.2071902E+03  0.7818608E-02  0.1144786E+00
          2   -1    0    0  502    0  0.00000000000E+00  0.00000000000E+00  0.14333166014E+04  0.14333166014E+04  0.00000000000E+00 0. -1.
          1   -1    0    0  501    0 -0.00000000000E+00 -0.00000000000E+00 -0.20035554072E+04  0.20035554072E+04  0.00000000000E+00 0. -1.
         25    2    1    2    0    0 -0.29531284452E+02 -0.97232188906E+02 -0.16146004542E+04  0.16226146970E+04  0.12497052770E+03 0.  0.
          2    1    1    2  501    0 -0.17848886044E+03  0.10039158736E+03 -0.34943444014E+03  0.40501996502E+03  0.00000000000E+00 0. -1.
          1    1    1    2  502    0  0.20802014489E+03 -0.31593984512E+01  0.13937960886E+04  0.14092373466E+04  0.00000000000E+00 0. -1.
         22    1    3    3    0    0  0.43670822438E+02 -0.16795195266E+02 -0.70175128195E+03  0.70330937790E+03  0.00000000000E+00 0. -1.
         22    1    3    3    0    0 -0.73202106890E+02 -0.80436993640E+02 -0.91284917229E+03  0.91930531912E+03  0.00000000000E+00 0. -1.
</event>
<event>
 7    1  0.4822463E-005  0.2396708E+03  0.7818608E-02  0.1150304E+00
          2   -1    0    0  502    0  0.00000000000E+00  0.00000000000E+00  0.10450733007E+04  0.10450733007E+04  0.00000000000E+00 0. -1.
          1   -1    0    0  501    0 -0.00000000000E+00 -0.00000000000E+00 -0.15179948590E+03  0.15179948590E+03  0.00000000000E+00 0. -1.
         25    2    1    2    0    0 -0.56623171084E+02  0.14311178718E+03  0.62330799986E+03  0.65408177575E+03  0.12499175788E+03 0.  0.
          2    1    1    2  501    0 -0.59288945785E+02 -0.26163706536E+03  0.59352599148E+02  0.27475782807E+03  0.00000000000E+00 0. -1.
          1    1    1    2  502    0  0.11591211687E+03  0.11852527818E+03  0.21061321581E+03  0.26803318280E+03  0.00000000000E+00 0. -1.
         22    1    3    3    0    0  0.33138779596E+02  0.83009980515E+01  0.76265692113E+02  0.83567583878E+02  0.00000000000E+00 0. -1.
         22    1    3    3    0    0 -0.89761950680E+02  0.13481078913E+03  0.54704230775E+03  0.57051419187E+03  0.00000000000E+00 0. -1.
</event>
<event>
 7    1  0.4822463E-005  0.3193402E+03  0.7818608E-02  0.1086537E+00
          2   -1    0    0  502    0  0.00000000000E+00  0.00000000000E+00  0.17064374357E+04  0.17064374357E+04  0.00000000000E+00 0. -1.
          1   -1    0    0  501    0 -0.00000000000E+00 -0.00000000000E+00 -0.19958165093E+03  0.19958165093E+03  0.00000000000E+00 0. -1.
         25    2    1    2    0    0  0.41702553668E+03  0.22233454016E+03  0.63620242773E+03  0.80232322514E+03  0.12500433013E+03 0.  0.
          2    1    1    2  501    0 -0.14136358035E+03 -0.24958728273E+03  0.13383320455E+03  0.31652614456E+03  0.00000000000E+00 0. -1.
          1    1    1    2  502    0 -0.27566195634E+03  0.27252742572E+02  0.73682015250E+03  0.78716971695E+03  0.00000000000E+00 0. -1.
         22    1    3    3    0    0  0.10269035665E+03  0.10315626004E+03  0.13305706634E+03  0.19720726720E+03  0.00000000000E+00 0.  1.
         22    1    3    3    0    0  0.31433518003E+03  0.11917828012E+03  0.50314536140E+03  0.60511595794E+03  0.00000000000E+00 0.  1.
</event>
<event>
 7    1  0.4822463E-005  0.5844148E+03  0.7818608E-02  0.1084125E+00
          2   -1    0    0  502    0  0.00000000000E+00  0.00000000000E+00  0.95784185598E+03  0.95784185598E+03  0.00000000000E+00 0. -1.
          1   -1    0    0  501    0 -0.00000000000E+00 -0.00000000000E+00 -0.16589097318E+04  0.16589097318E+04  0.00000000000E+00 0. -1.
         25    2    1    2    0    0  0.16095381043E+03 -0.54460356697E+03 -0.98017153545E+03  0.11396756740E+04  0.12500091537E+03 0.  0.
          2    1    1    2  501    0 -0.31726132678E+03  0.54567173673E+03 -0.42166387705E+03  0.75908683228E+03  0.00000000000E+00 0. -1.
          1    1    1    2  502    0  0.15630751635E+03 -0.10681697609E+01  0.70076753667E+03  0.71798908146E+03  0.00000000000E+00 0. -1.
         22    1    3    3    0    0  0.18075303550E+03 -0.47566573818E+03 -0.87892879000E+03  0.10156009907E+04  0.00000000000E+00 0. -1.
         22    1    3    3    0    0 -0.19799225070E+02 -0.68937828789E+02 -0.10124274545E+03  0.12407468339E+03  0.00000000000E+00 0. -1.
</event>
<event>
 7    1  0.4822463E-005  0.1639605E+03  0.7818608E-02  0.1199672E+00
          2   -1    0    0  502    0  0.00000000000E+00  0.00000000000E+00  0.17781047159E+03  0.17781047159E+03  0.00000000000E+00 0. -1.
          1   -1    0    0  501    0 -0.00000000000E+00 -0.00000000000E+00 -0.69086089923E+03  0.69086089923E+03  0.00000000000E+00 0. -1.
         25    2    1    2    0    0 -0.11470851602E+03  0.25308734324E+03 -0.25011981790E+03  0.39420306514E+03  0.12499954520E+03 0.  0.
          2    1    1    2  501    0  0.79691854583E+02 -0.11318619875E+03 -0.29576933603E+03  0.32655995990E+03  0.00000000000E+00 0. -1.
          1    1    1    2  502    0  0.35016661433E+02 -0.13990114449E+03  0.32838726291E+02  0.14790834578E+03  0.00000000000E+00 0. -1.
         22    1    3    3    0    0 -0.41183655868E+02  0.14928270881E+02 -0.83793405190E+02  0.94553062010E+02  0.00000000000E+00 0. -1.
         22    1    3    3    0    0 -0.73524860147E+02  0.23815907236E+03 -0.16632641271E+03  0.29965000312E+03  0.00000000000E+00 0. -1.
</event>
<event>
 7    1  0.4822463E-005  0.7284767E+03  0.7818608E-02  0.1211105E+00
          2   -1    0    0  502    0  0.00000000000E+00  0.00000000000E+00  0.15830502004E+04  0.15830502004E+04  0.00000000000E+00 0. -1.
          1   -1    0    0  501    0 -0.00000000000E+00 -0.00000000000E+00 -0.15824404535E+04  0.15824404535E+04  0.00000000000E+00 0. -1.
         25    2    1    2    0    0 -0.21627007466E+03  0.70549658078E+03  0.37662129186E+03  0.83783418761E+03  0.12499743098E+03 0.  0.
          2    1    1    2  501    0  0.26446152945E+02 -0.77185459003E+01 -0.12176858948E+04  0.12179975013E+04  0.00000000000E+00 0. -1.
          1    1    1    2  502    0  0.18982392172E+03 -0.69777803488E+03  0.84167434981E+03  0.11096589649E+04  0.00000000000E+00 0. -1.
         22    1    3    3    0    0 -0.25686539333E+02  0.44217859770E+02  0.64110277046E+02  0.82006981705E+02  0.00000000000E+00 0.  1.
         22    1    3    3    0    0 -0.19058353533E+03  0.66127872101E+03  0.31251101481E+03  0.75582720590E+03  0.00000000000E+00 0.  1.
</event>
<event>
 7    1  0.4822463E-005  0.4277399E+03  0.7818608E-02  0.1081804E+00
          2   -1    0    0  502    0  0.00000000000E+00  0.00000000000E+00  0.12997142931E+04  0.12997142931E+04  0.00000000000E+00 0. -1.
          1   -1    0    0  501    0 -0.00000000000E+00 -0.00000000000E+00 -0.51267930655E+03  0.51267930655E+03  0.00000000000E+00 0. -1.
         25    2    1    2    0    0 -0.19163478047E+03  0.42596064494E+03  0.19576568854E+03  0.52164460851E+03  0.12499013022E+03 0.  0.
          2    1    1    2  501    0  0.22030446695E+03  0.14650057275E+01 -0.25817492539E+03  0.33939725470E+03  0.00000000000E+00 0. -1.
          1    1    1    2  502    0 -0.28669686483E+02 -0.42742565067E+03  0.84944422342E+03  0.95135173646E+03  0.00000000000E+00 0. -1.
         22    1    3    3    0    0 -0.15548341338E+03  0.34034492133E+03  0.20767875134E+03  0.42794885334E+03  0.00000000000E+00 0.  1.
         22    1    3    3    0    0 -0.36151367084E+02  0.85615723612E+02 -0.11913062804E+02  0.93695755171E+02  0.00000000000E+00 0.  1.
</event>
<event>
 7    1  0.4822463E-005  0.3660678E+03  0.7818608E-02  0.1099734E+00
          2   -1    0    0  502    0  0.00000000000E+00  0.00000000000E+00  0.29712257738E+03  0.29712257738E+03  0.00000000000E+00 0. -1.
          1   -1    0    0  501    0 -0.00000000000E+00 -0.00000000000E+00 -0.26048794488E+04  0.26048794488E+04  0.00000000000E+00 0. -1.
         25    2    1    2    0    0 -0.28747495978E+03 -0.35820153527E+02 -0.27073564324E+03  0.41575038905E+03  0.12500264625E+03 0.  0.
          2    1    1    2  501    0 -0.11471788628E+03  0.16768798657E+03 -0.20526727721E+04  0.20627033145E+04  0.00000000000E+00 0. -1.
          1    1    1    2  502    0  0.40219284606E+03 -0.13186783305E+03  0.15651543886E+02  0.42354832268E+03  0.00000000000E+00 0. -1.
         22    1    3    3    0    0 -0.82843867236E+02 -0.69068741993E+02 -0.10193537073E+03  0.14840625750E+03  0.00000000000E+00 0. -1.
         22    1    3    3    0    0 -0.20463109255E+03  0.33248588466E+02 -0.16880027251E+03  0.26734413155E+03  0.00000000000E+00 0. -1.
</event>
<event>
 7    1  0.4822463E-005  0.7591924E+03  0.7818608E-02  0.1006779E+00
          2   -1    0    0  502    0  0.00000000000E+00  0.00000000000E+00  0.14271945876E+04  0.14271945876E+04  0.00000000000E+00 0. -1.
          1   -1    0    0  501    0 -0.00000000000E+00 -0.00000000000E+00 -0.17140505601E+04  0.17140505601E+04  0.00000000000E+00 0. -1.
         25    2    1    2    0    0 -0.50536435459E+03  0.81299836327E+03 -0.43463854457E+03  0.10587232467E+04  0.12499911671E+03 0.  0.
          2    1    1    2  501    0  0.52615113146E+03 -0.44672519732E+03 -0.80568659453E+03  0.10609096586E+04  0.00000000000E+00 0. -1.
          1    1    1    2  502    0 -0.20786776867E+02 -0.36627316595E+03  0.95346916655E+03  0.10216122424E+04  0.00000000000E+00 0. -1.
         22    1    3    3    0    0 -0.39397554825E+02  0.14648980561E+03 -0.56589515759E+02  0.16190677493E+03  0.00000000000E+00 0. -1.
         22    1    3    3    0    0 -0.46596679977E+03  0.66650855766E+03 -0.37804902881E+03  0.89681647181E+03  0.00000000000E+00 0. -1.
</event>
<event>
 7    1  0.4822463E-005  0.2119638E+03  0.7818608E-02  0.1144452E+00
          2   -1    0    0  502    0  0.00000000000E+00  0.00000000000E+00  0.31246903027E+04  0.31246903027E+04  0.00000000000E+00 0. -1.
          1   -1    0    0  501    0 -0.00000000000E+00 -0.00000000000E+00 -0.39698877455E+03  0.39698877455E+03  0.00000000000E+00 0. -1.
         25    2    1    2    0    0 -0.27561012176E+03 -0.11285569390E+03  0.38874586520E+03  0.50541391668E+03  0.12499013000E+03 0.  0.
          2    1    1    2  501    0  0.77554241348E+02  0.18540774679E+03 -0.30426193174E+03  0.36464505485E+03  0.00000000000E+00 0. -1.
          1    1    1    2  502    0  0.19805588042E+03 -0.72552052887E+02  0.26432175947E+04  0.26516201057E+04  0.00000000000E+00 0. -1.
         22    1    3    3    0    0 -0.20303104405E+03 -0.47573151761E+02  0.18201128902E+03  0.27679038811E+03  0.00000000000E+00 0. -1.
         22    1    3    3    0    0 -0.72579077716E+02 -0.65282542143E+02  0.20673457617E+03  0.22862352857E+03  0.00000000000E+00 0. -1.
</event>
<event>
 7    1  0.4822463E-005  0.1202398E+04  0.7818608E-02  0.1111155E+00
          2   -1    0    0  502    0  0.00000000000E+00  0.00000000000E+00  0.13100366004E+04  0.13100366004E+04  0.00000000000E+00 0. -1.
          1   -1    0    0  501    0 -0.00000000000E+00 -0.00000000000E+00 -0.27643149019E+04  0.27643149019E+04  0.00000000000E+00 0. -1.
         25    2    1    2    0    0  0.70056382271E+03 -0.97253022199E+03  0.46993896649E+03  0.12934730787E+04  0.12500108294E+03 0.  0.
          2    1    1    2  501    0 -0.35691765613E+02 -0.39741430301E+02 -0.14950319547E+04  0.14959859053E+04  0.00000000000E+00 0. -1.
          1    1    1    2  502    0 -0.66487205710E+03  0.10122716523E+04 -0.42918531332E+03  0.12848925183E+04  0.00000000000E+00 0. -1.
         22    1    3    3    0    0  0.67671230520E+03 -0.96286971959E+03  0.44672875243E+03  0.12588185807E+04  0.00000000000E+00 0. -1.
         22    1    3    3    0    0  0.23851517509E+02 -0.96605023982E+01  0.23210214053E+02  0.34654497983E+02  0.00000000000E+00 0. -1.
</event>
<event>
 7    1  0.4822463E-005  0.2287657E+03  0.7818608E-02  0.1174244E+00
          2   -1    0    0  502    0  0.00000000000E+00  0.00000000000E+00  0.22856545655E+04  0.22856545655E+04  0.00000000000E+00 0. -1.
          1   -1    0    0  501    0 -0.00000000000E+00 -0.00000000000E+00 -0.11276846510E+03  0.11276846510E+03  0.00000000000E+00 0. -1.
         25    2    1    2    0    0  0.12165897207E+03 -0.20604030785E+03  0.78739968653E+03  0.83239204775E+03  0.12499896341E+03 0.  0.
          2    1    1    2  501    0 -0.12828230002E+03 -0.29316185819E+02 -0.26767723717E+02  0.13428439330E+03  0.00000000000E+00 0. -1.
          1    1    1    2  502    0  0.66233279574E+01  0.23535649367E+03  0.14122541376E+04  0.14317465895E+04  0.00000000000E+00 0. -1.
         22    1    3    3    0    0  0.94031062373E+02 -0.18546655240E+03  0.76126254532E+03  0.78915166201E+03  0.00000000000E+00 0.  1.
         22    1    3    3    0    0  0.27627909695E+02 -0.20573755456E+02  0.26137141212E+02  0.43240385733E+02  0.00000000000E+00 0.  1.
</event>
<event>
 7    1  0.4822463E-005  0.1031248E+04  0.7818608E-02  0.1117052E+00
          2   -1    0    0  502    0  0.00000000000E+00  0.00000000000E+00  0.19078278923E+04  0.19078278923E+04  0.00000000000E+00 0. -1.
          1   -1    0    0  501    0 -0.00000000000E+00 -0.00000000000E+00 -0.12505101133E+04  0.12505101133E+04  0.00000000000E+00 0. -1.
         25    2    1    2    0    0 -0.10171640296E+04  0.62473687966E+02 -0.62460139922E+03  0.12017812688E+04  0.12500274117E+03 0.  0.
          2    1    1    2  501    0  0.10628249864E+04 -0.97925812913E+02  0.51077479465E+03  0.11832486245E+04  0.00000000000E+00 0. -1.
          1    1    1    2  502    0 -0.45660956804E+02  0.35452124947E+02  0.77114438360E+03  0.77330811227E+03  0.00000000000E+00 0. -1.
         22    1    3    3    0    0 -0.81307628026E+03  0.78621504551E+02 -0.44943098695E+03  0.93234252855E+03  0.00000000000E+00 0.  1.
         22    1    3    3    0    0 -0.20408774937E+03 -0.16147816585E+02 -0.17517041227E+03  0.26943874027E+03  0.00000000000E+00 0.  1.
</event>
<event>
 7    1  0.4822463E-005  0.1646852E+03  0.7818608E-02  0.1189026E+00
          2   -1    0    0  502    0  0.00000000000E+00  0.00000000000E+00  0.26721851650E+04  0.26721851650E+04  0.00000000000E+00 0. -1.
          1   -1    0    0  501    0 -0.00000000000E+00 -0.00000000000E+00 -0.88555620083E+03  0.88555620083E+03  0.00000000000E+00 0. -1.
         25    2    1    2    0    0 -0.57555979020E+02  0.67791159585E+02 -0.18198691362E+03  0.23801824914E+03  0.12500047262E+03 0.  0.
          2    1    1    2  501    0 -0.34197600760E+02 -0.20454825051E+03 -0.65699639157E+03  0.68895117477E+03  0.00000000000E+00 0. -1.
          1    1    1    2  502    0  0.91753579780E+02  0.13675709093E+03  0.26256122693E+04  0.26307719419E+04  0.00000000000E+00 0. -1.
         22    1    3    3    0    0 -0.51098148516E+02  0.91962809345E+02 -0.77741670600E+02  0.13081263866E+03  0.00000000000E+00 0.  1.
         22    1    3    3    0    0 -0.64578305043E+01 -0.24171649760E+02 -0.10424524302E+03  0.10720561048E+03  0.00000000000E+00 0.  1.
</event>
<event>
 7    1  0.4822463E-005  0.3075855E+03  0.7818608E-02  0.1255806E+00
          2   -1    0    0  502    0  0.00000000000E+00  0.00000000000E+00  0.32894434684E+03  0.32894434684E+03  0.00000000000E+00 0. -1.
          1   -1    0    0  501    0 -0.00000000000E+00 -0.00000000000E+00 -0.76636004788E+03  0.76636004788E+03  0.00000000000E+00 0. -1.
         25    2    1    2    0    0  0.13915888107E+03 -0.30629110490E+03 -0.18827855492E+03  0.40528155254E+03  0.12499954988E+03 0.  0.
          2    1    1    2  501    0 -0.12222231080E+03  0.26870034258E+03 -0.42050052913E+03  0.51376926957E+03  0.00000000000E+00 0. -1.
          1    1    1    2  502    0 -0.16936570265E+02  0.37590762320E+02  0.17136338300E+03  0.17625357261E+03  0.00000000000E+00 0. -1.
         22    1    3    3    0    0  0.55826507482E+02 -0.29420993121E+02 -0.57889938322E+01  0.63369600152E+02  0.00000000000E+00 0. -1.
         22    1    3    3    0    0  0.83332373587E+02 -0.27687011178E+03 -0.18248956109E+03  0.34191195239E+03  0.00000000000E+00 0. -1.
</event>
<event>
 7    1  0.4822463E-005  0.1306379E+04  0.7818608E-02  0.1093798E+00
          2   -1    0    0  502    0  0.00000000000E+00  0.00000000000E+00  0.39172479537E+04  0.39172479537E+04  0.00000000000E+00 0. -1.
          1   -1    0    0  501    0 -0.00000000000E+00 -0.00000000000E+00 -0.84689396786E+03  0.84689396786E+03  0.00000000000E+00 0. -1.
         25    2    1    2    0    0 -0.40920009392E+03  0.12773687834E+04  0.25825314821E+03  0.13716540341E+04  0.12499749927E+03 0.  0.
          2    1    1    2  501    0  0.54343638061E+02 -0.28831391749E+02 -0.14801903358E+03  0.16029383784E+03  0.00000000000E+00 0. -1.
          1    1    1    2  502    0  0.35485645586E+03 -0.12485373917E+04  0.29601198712E+04  0.32321940496E+04  0.00000000000E+00 0. -1.
         22    1    3    3    0    0 -0.31023884116E+03  0.10537090472E+04  0.16928286113E+03  0.11113989301E+04  0.00000000000E+00 0. -1.
         22    1    3    3    0    0 -0.98961252752E+02  0.22365973622E+03  0.88970287081E+02  0.26025510395E+03  0.00000000000E+00 0. -1.
</event>
<event>
 7    1  0.4822463E-005  0.1918388E+03  0.7818608E-02  0.1316965E+00
          2   -1    0    0  502    0  0.00000000000E+00  0.00000000000E+00  0.34255331177E+03  0.34255331177E+03  0.00000000000E+00 0. -1.
          1   -1    0    0  501    0 -0.00000000000E+00 -0.00000000000E+00 -0.72022244987E+03  0.72022244987E+03  0.00000000000E+00 0. -1.
         25    2    1    2    0    0  0.20265315897E+03 -0.31589791652E+02 -0.39119537231E+03  0.45905089498E+03  0.12501074788E+03 0.  0.
          2    1    1    2  501    0 -0.18183162482E+03  0.82693822633E+00 -0.26574181378E+03  0.32199710434E+03  0.00000000000E+00 0. -1.
          1    1    1    2  502    0 -0.20821534142E+02  0.30762853426E+02  0.27926804799E+03  0.28172776233E+03  0.00000000000E+00 0. -1.
         22    1    3    3    0    0  0.19796742797E+03 -0.40051477720E+02 -0.26856297447E+03  0.33603763876E+03  0.00000000000E+00 0.  1.
         22    1    3    3    0    0  0.46857309983E+01  0.84616860681E+01 -0.12263239784E+03  0.12301325622E+03  0.00000000000E+00 0.  1.
</event>
<event>
 7    1  0.4822463E-005  0.4177712E+03  0.7818608E-02  0.1116869E+00
          2   -1    0    0  502    0  0.00000000000E+00  0.00000000000E+00  0.32064844791E+04  0.32064844791E+04  0.00000000000E+00 0. -1.
          1   -1    0    0  501    0 -0.00000000000E+00 -0.00000000000E+00 -0.42273791661E+03  0.42273791661E+03  0.00000000000E+00 0. -1.
         25    2    1    2    0    0  0.38292408620E+03  0.29408192260E+03  0.59691157303E+03  0.77784315039E+03  0.12498602959E+03 0.  0.
          2    1    1    2  501    0 -0.33325898477E+01 -0.14298645001E+03 -0.29939526980E+03  0.33180379537E+03  0.00000000000E+00 0. -1.
          1    1    1    2  502    0 -0.37959149635E+03 -0.15109547260E+03  0.24862302593E+04  0.25195754499E+04  0.00000000000E+00 0. -1.
         22    1    3    3    0    0  0.10893250563E+03  0.10648004698E+03  0.28036891514E+03  0.31907839125E+03  0.00000000000E+00 0. -1.
         22    1    3    3    0    0  0.27399158057E+03  0.18760187563E+03  0.31654265789E+03  0.45876475914E+03  0.00000000000E+00 0. -1.
</event>
<event>
 7    1  0.4822463E-005  0.2132698E+03  0.7818608E-02  0.1189963E+00
          2   -1    0    0  502    0  0.00000000000E+00  0.00000000000E+00  0.13648985988E+04  0.13648985988E+04  0.00000000000E+00 0. -1.
          1   -1    0    0  501    0 -0.00000000000E+00 -0.00000000000E+00 -0.76331340449E+03  0.76331340449E+03  0.00000000000E+00 0. -1.
         25    2    1    2    0    0  0.12676121773E+03  0.20366573044E+03  0.48115656423E+02  0.27475197286E+03  0.12500157648E+03 0.  0.
          2    1    1    2  501    0  0.60701646926E+02 -0.10161678651E+03 -0.63501973125E+03  0.64595721245E+03  0.00000000000E+00 0. -1.
          1    1    1    2  502    0 -0.18746286465E+03 -0.10204894393E+03  0.11884892691E+04  0.12075028180E+04  0.00000000000E+00 0. -1.
         22    1    3    3    0    0  0.60807901791E+02  0.43621399212E+02  0.67228623770E+02  0.10059878351E+03  0.00000000000E+00 0.  1.
         22    1    3    3    0    0  0.65953315935E+02  0.16004433123E+03 -0.19112967347E+02  0.17415318935E+03  0.00000000000E+00 0.  1.
</event>
<event>
 7    1  0.4822463E-005  0.3196934E+03  0.7818608E-02  0.1101818E+00
          2   -1    0    0  502    0  0.00000000000E+00  0.00000000000E+00  0.21403624859E+03  0.21403624859E+03  0.00000000000E+00 0. -1.
          1   -1    0    0  501    0 -0.00000000000E+00 -0.00000000000E+00 -0.21529298573E+04  0.21529298573E+04  0.00000000000E+00 0. -1.
         25    2    1    2    0    0 -0.47359205389E+03 -0.12693068321E+03 -0.96698728765E+03  0.10913707369E+04  0.12499935628E+03 0.  0.
          2    1    1    2  501    0  0.24765702654E+03  0.11167336522E+03 -0.10100573699E+04  0.10459545084E+04  0.00000000000E+00 0. -1.
          1    1    1    2  502    0  0.22593502735E+03  0.15257317991E+02  0.38151048746E+02  0.22964086060E+03  0.00000000000E+00 0. -1.
         22    1    3    3    0    0 -0.44886102828E+03 -0.84646313820E+02 -0.86319980382E+03  0.97660387183E+03  0.00000000000E+00 0. -1.
         22    1    3    3    0    0 -0.24731025608E+02 -0.42284369389E+02 -0.10378748382E+03  0.11476686508E+03  0.00000000000E+00 0. -1.
</event>
<event>
 7    1  0.4822463E-005  0.1844306E+03  0.7818608E-02  0.1168099E+00
          2   -1    0    0  502    0  0.00000000000E+00  0.00000000000E+00  0.17997139020E+04  0.17997139020E+04  0.00000000000E+00 0. -1.
          1   -1    0    0  501    0 -0.00000000000E+00 -0.00000000000E+00 -0.19812044088E+03  0.19812044088E+03  0.00000000000E+00 0. -1.
         25    2    1    2    0    0  0.18712285193E+03 -0.11764572171E+02 -0.31775623485E+02  0.22757145608E+03  0.12500284198E+03 0.  0.
          2    1    1    2  501    0 -0.14073107615E+03  0.18058559599E+03  0.14362794583E+03  0.27026908831E+03  0.00000000000E+00 0. -1.
          1    1    1    2  502    0 -0.46391775783E+02 -0.16882102382E+03  0.14897411388E+04  0.14999937985E+04  0.00000000000E+00 0. -1.
         22    1    3    3    0    0  0.13067886696E+03 -0.53325238848E+02  0.17023673068E+02  0.14216312043E+03  0.00000000000E+00 0.  1.
         22    1    3    3    0    0  0.56443984974E+02  0.41560666677E+02 -0.48799296553E+02  0.85408335649E+02  0.00000000000E+00 0.  1.
</event>
<event>
 7    1  0.4822463E-005  0.1721514E+03  0.7818608E-02  0.1212273E+00
          2   -1    0    0  502    0  0.00000000000E+00  0.00000000000E+00  0.19565688267E+04  0.19565688267E+04  0.00000000000E+00 0. -1.
          1   -1    0    0  501    0 -0.00000000000E+00 -0.00000000000E+00 -0.13387550955E+04  0.13387550955E+04  0.00000000000E+00 0. -1.
         25    2    1    2    0    0  0.81589341281E+02  0.17357976172E+03  0.15033467478E+02  0.22942936965E+03  0.12500030490E+03 0.  0.
          2    1    1    2  501    0  0.33481735545E+02 -0.16966900931E+03 -0.12236641536E+04  0.12358246478E+04  0.00000000000E+00 0. -1.
          1    1    1    2  502    0 -0.11507107683E+03 -0.39107524133E+01  0.18264444173E+04  0.18300699048E+04  0.00000000000E+00 0. -1.
         22    1    3    3    0    0  0.10430130248E+03  0.99475529756E+02  0.37123196449E+02  0.14883640158E+03  0.00000000000E+00 0.  1.
         22    1    3    3    0    0 -0.22711961202E+02  0.74104231969E+02 -0.22089728971E+02  0.80592968076E+02  0.00000000000E+00 0.  1.
</event>
<event>
 7    1  0.4822463E-005  0.6680124E+03  0.7818608E-02  0.1212704E+00
          2   -1    0    0  502    0  0.00000000000E+00  0.00000000000E+00  0.63473918821E+03  0.63473918821E+03  0.00000000000E+00 0. -1.
          1   -1    0    0  501    0 -0.00000000000E+00 -0.00000000000E+00 -0.11341649226E+04  0.11341649226E+04  0.00000000000E+00 0. -1.
         25    2    1    2    0    0  0.17798386656E+03  0.64285211886E+03  0.19495007673E+02  0.67892753703E+03  0.12500176692E+03 0.  0.
          2    1    1    2  501    0 -0.27917848719E+02  0.96430323295E+01 -0.41069585874E+03  0.41175658190E+03  0.00000000000E+00 0. -1.
          1    1    1    2  502    0 -0.15006601784E+03 -0.65249515119E+03 -0.10822488335E+03  0.67821999190E+03  0.00000000000E+00 0. -1.
         22    1    3    3    0    0  0.87236837590E+02  0.40351313709E+03 -0.44089336693E+02  0.41518307679E+03  0.00000000000E+00 0. -1.
         22    1    3    3    0    0  0.90747028967E+02  0.23933898177E+03  0.63584344367E+02  0.26374446025E+03  0.00000000000E+00 0. -1.
</event>
<event>
 7    1  0.4822463E-005  0.2144087E+03  0.7818608E-02  0.1241796E+00
          2   -1    0    0  502    0  0.00000000000E+00  0.00000000000E+00  0.39193684816E+04  0.39193684816E+04  0.00000000000E+00 0. -1.
          1   -1    0    0  501    0 -0.00000000000E+00 -0.00000000000E+00 -0.44445742478E+03  0.44445742478E+03  0.00000000000E+00 0. -1.
         25    2    1    2    0    0  0.24376999947E+03 -0.12948229498E+03  0.21890630331E+03  0.37381104242E+03  0.12500099379E+03 0.  0.
          2    1    1    2  501    0 -0.66857538700E+02  0.12689342868E+02 -0.36071995358E+03  0.36708287186E+03  0.00000000000E+00 0. -1.
          1    1    1    2  502    0 -0.17691246077E+03  0.11679295211E+03  0.36167247070E+04  0.36229319920E+04  0.00000000000E+00 0. -1.
         22    1    3    3    0    0  0.10422186853E+03 -0.12466577694E+03  0.10344576483E+03  0.19262601091E+03  0.00000000000E+00 0.  1.
         22    1    3    3    0    0  0.13954813094E+03 -0.48165180445E+01  0.11546053848E+03  0.18118503151E+03  0.00000000000E+00 0.  1.
</event>
<event>
 7    1  0.4822463E-005  0.7907973E+03  0.7818608E-02  0.1157199E+00
          2   -1    0    0  502    0  0.00000000000E+00  0.00000000000E+00  0.33782109342E+04  0.33782109342E+04  0.00000000000E+00 0. -1.
          1   -1    0    0  501    0 -0.00000000000E+00 -0.00000000000E+00 -0.37726899703E+03  0.37726899703E+03  0.00000000000E+00 0. -1.
         25    2    1    2    0    0 -0.12389045615E+03  0.81377553771E+03  0.87164710469E+03  0.12053930646E+04  0.12499717683E+03 0.  0.
          2    1    1    2  501    0  0.17744278535E+02 -0.42795663840E+02 -0.14189035491E+03  0.14926218905E+03  0.00000000000E+00 0. -1.
          1    1    1    2  502    0  0.10614617761E+03 -0.77097987387E+03  0.22711851874E+04  0.24008246775E+04  0.00000000000E+00 0. -1.
         22    1    3    3    0    0 -0.41627057787E+02  0.59789376662E+03  0.58863249547E+03  0.84005832109E+03  0.00000000000E+00 0. -1.
         22    1    3    3    0    0 -0.82263398364E+02  0.21588177108E+03  0.28301460922E+03  0.36533474352E+03  0.00000000000E+00 0. -1.
</event>
<event>
 7    1  0.4822463E-005  0.4566162E+02  0.7818608E-02  0.1557339E+00
          2   -1    0    0  502    0  0.00000000000E+00  0.00000000000E+00  0.35806190760E+03  0.35806190760E+03  0.00000000000E+00 0. -1.
          1   -1    0    0  501    0 -0.00000000000E+00 -0.00000000000E+00 -0.34154067421E+02  0.34154067421E+02  0.00000000000E+00 0. -1.
         25    2    1    2    0    0  0.25274785885E+02  0.30954688306E+02  0.15255272318E+03  0.20122752620E+03  0.12499270548E+03 0.  0.
          2    1    1    2  501    0 -0.48558895592E+02 -0.20882741144E+02  0.14532972162E+03  0.15464405324E+03  0.00000000000E+00 0. -1.
          1    1    1    2  502    0  0.23284109708E+02 -0.10071947162E+02  0.26025395384E+02  0.36344395571E+02  0.00000000000E+00 0. -1.
         22    1    3    3    0    0 -0.43074784739E+02  0.79267428903E+01  0.15690318022E+02  0.46523718820E+02  0.00000000000E+00 0. -1.
         22    1    3    3    0    0  0.68349570624E+02  0.23027945415E+02  0.13686240516E+03  0.15470380739E+03  0.00000000000E+00 0. -1.
</event>
<event>
 7    1  0.4822463E-005  0.2072237E+03  0.7818608E-02  0.1174932E+00
          2   -1    0    0  502    0  0.00000000000E+00  0.00000000000E+00  0.39480208354E+03  0.39480208354E+03  0.00000000000E+00 0. -1.
          1   -1    0    0  501    0 -0.00000000000E+00 -0.00000000000E+00 -0.10210509164E+04  0.10210509164E+04  0.00000000000E+00 0. -1.
         25    2    1    2    0    0 -0.13839070153E+03  0.21637534699E+03 -0.20243218869E+03  0.35010281030E+03  0.12499163855E+03 0.  0.
          2    1    1    2  501    0  0.18784415191E+03 -0.80986202298E+02 -0.71346988282E+03  0.74221524106E+03  0.00000000000E+00 0. -1.
          1    1    1    2  502    0 -0.49453450384E+02 -0.13538914469E+03  0.28965323868E+03  0.32353494855E+03  0.00000000000E+00 0. -1.
         22    1    3    3    0    0 -0.11510927978E+03  0.17716588909E+03 -0.91643203937E+02  0.23029627738E+03  0.00000000000E+00 0.  1.
         22    1    3    3    0    0 -0.23281421745E+02  0.39209457902E+02 -0.11078898475E+03  0.11980653292E+03  0.00000000000E+00 0.  1.
</event>
<event>
 7    1  0.4822463E-005  0.4885952E+03  0.7818608E-02  0.1076792E+00
          2   -1    0    0  502    0  0.00000000000E+00  0.00000000000E+00  0.14076950865E+04  0.14076950865E+04  0.00000000000E+00 0. -1.
          1   -1    0    0  501    0 -0.00000000000E+00 -0.00000000000E+00 -0.16476357305E+04  0.16476357305E+04  0.00000000000E+00 0. -1.
         25    2    1    2    0    0 -0.27942484034E+03  0.41380723743E+03  0.11266337462E+04  0.12386456887E+04  0.12499949167E+03 0.  0.
          2    1    1    2  501    0  0.19930464553E+03  0.53489101461E+02 -0.13247532394E+04  0.13407291192E+04  0.00000000000E+00 0. -1.
          1    1    1    2  502    0  0.80120194803E+02 -0.46729633890E+03 -0.41821150905E+02  0.47595600913E+03  0.00000000000E+00 0. -1.
         22    1    3    3    0    0 -0.27614912559E+03  0.34365970166E+03  0.10170696687E+04  0.11085084759E+04  0.00000000000E+00 0.  1.
         22    1    3    3    0    0 -0.32757147454E+01  0.70147535779E+02  0.10956407749E+03  0.13013721281E+03  0.00000000000E+00 0.  1.
</event>
<event>
 7    1  0.4822463E-005  0.3049107E+03  0.7818608E-02  0.1123347E+00
          2   -1    0    0  502    0  0.00000000000E+00  0.00000000000E+00  0.25219347728E+04  0.25219347728E+04  0.00000000000E+00 0. -1.
          1   -1    0    0  501    0 -0.00000000000E+00 -0.00000000000E+00 -0.32641035677E+04  0.32641035677E+04  0.00000000000E+00 0. -1.
         25    2    1    2    0    0 -0.23504130850E+03  0.27531025549E+03  0.51791751707E+02  0.38645479514E+03  0.12499907865E+03 0.  0.
          2    1    1    2  501    0  0.28688995186E+03 -0.10218934282E+03 -0.30857187698E+04  0.31007110204E+04  0.00000000000E+00 0. -1.
          1    1    1    2  502    0 -0.51848643358E+02 -0.17312091267E+03  0.22917582231E+04  0.22988725249E+04  0.00000000000E+00 0. -1.
         22    1    3    3    0    0 -0.44614077793E-01  0.12754709171E+02  0.30952250165E+02  0.33477251780E+02  0.00000000000E+00 0. -1.
         22    1    3    3    0    0 -0.23499669442E+03  0.26255554632E+03  0.20839501542E+02  0.35297754336E+03  0.00000000000E+00 0. -1.
</event>
<event>
 7    1  0.4822463E-005  0.2576753E+03  0.7818608E-02  0.1215067E+00
          2   -1    0    0  502    0  0.00000000000E+00  0.00000000000E+00  0.17063076031E+04  0.17063076031E+04  0.00000000000E+00 0. -1.
          1   -1    0    0  501    0 -0.00000000000E+00 -0.00000000000E+00 -0.16518444262E+03  0.16518444262E+03  0.00000000000E+00 0. -1.
         25    2    1    2    0    0  0.26892091256E+03  0.12788286172E+03  0.10850114448E+04  0.11320543303E+04  0.12499875138E+03 0.  0.
          2    1    1    2  501    0 -0.20004768518E+03 -0.15674489926E+03 -0.22406566090E+02  0.25512760336E+03  0.00000000000E+00 0. -1.
          1    1    1    2  502    0 -0.68873227377E+02  0.28862037548E+02  0.47851828171E+03  0.48431011200E+03  0.00000000000E+00 0. -1.
         22    1    3    3    0    0  0.12736689796E+03  0.43869313254E+02  0.28432824709E+03  0.31462580223E+03  0.00000000000E+00 0. -1.
         22    1    3    3    0    0  0.14155401461E+03  0.84013548463E+02  0.80068319775E+03  0.81742852809E+03  0.00000000000E+00 0. -1.
</event>
<event>
 7    1  0.4822463E-005  0.5472323E+03  0.7818608E-02  0.1095018E+00
          2   -1    0    0  502    0  0.00000000000E+00  0.00000000000E+00  0.66083656451E+03  0.66083656451E+03  0.00000000000E+00 0. -1.
          1   -1    0    0  501    0 -0.00000000000E+00 -0.00000000000E+00 -0.83369510718E+03  0.83369510718E+03  0.00000000000E+00 0. -1.
         25    2    1    2    0    0  0.16807197228E+03 -0.45895618805E+03 -0.26698900480E+03  0.57078698336E+03  0.12500272505E+03 0.  0.
          2    1    1    2  501    0  0.12619048818E+03 -0.70462804650E+02  0.25847834970E+03  0.29614203249E+03  0.00000000000E+00 0. -1.
          1    1    1    2  502    0 -0.29426246046E+03  0.52941899270E+03 -0.16434788757E+03  0.62760265584E+03  0.00000000000E+00 0. -1.
         22    1    3    3    0    0  0.17577635450E+03 -0.32311106667E+03 -0.18236725829E+03  0.41055560537E+03  0.00000000000E+00 0.  1.
         22    1    3    3    0    0 -0.77043822240E+01 -0.13584512138E+03 -0.84621746514E+02  0.16023137799E+03  0.00000000000E+00 0.  1.
</event>
<event>
 7    1  0.4935818E-005  0.3152786E+03  0.7818608E-02  0.1242872E+00
          2   -1    0    0  502    0  0.00000000000E+00  0.00000000000E+00  0.13013100356E+04  0.13013100356E+04  0.00000000000E+00 0. -1.
          1   -1    0    0  501    0 -0.00000000000E+00 -0.00000000000E+00 -0.78621742398E+03  0.78621742398E+03  0.00000000000E+00 0. -1.
         25    2    1    2    0    0  0.88376835250E+02  0.29379476864E+03 -0.35984174788E+03  0.48911875229E+03  0.12500095692E+03 0.  0.
          2    1    1    2  501    0  0.45145811483E+02 -0.75809702935E+01 -0.34001388629E+03  0.34308170787E+03  0.00000000000E+00 0. -1.
          1    1    1    2  502    0 -0.13352264673E+03 -0.28621379835E+03  0.12149482458E+04  0.12553269995E+04  0.00000000000E+00 0. -1.
         22    1    3    3    0    0  0.84384775100E+02  0.11292471141E+03 -0.10141534215E+03  0.17366016336E+03  0.00000000000E+00 0.  1.
         22    1    3    3    0    0  0.39920601506E+01  0.18087005723E+03 -0.25842640573E+03  0.31545858892E+03  0.00000000000E+00 0.  1.
</event>
<event>
 7    1  0.4822463E-005  0.2046112E+03  0.7818608E-02  0.1299742E+00
          2   -1    0    0  502    0  0.00000000000E+00  0.00000000000E+00  0.86692905094E+03  0.86692905094E+03  0.00000000000E+00 0. -1.
          1   -1    0    0  501    0 -0.00000000000E+00 -0.00000000000E+00 -0.23647620307E+03  0.23647620307E+03  0.00000000000E+00 0. -1.
         25    2    1    2    0    0  0.19356454085E+03 -0.10457444006E+03 -0.75213617684E+02  0.26398170088E+03  0.12500482040E+03 0.  0.
          2    1    1    2  501    0 -0.16981688496E+03  0.71476454016E+02  0.61895278961E+02  0.19436482052E+03  0.00000000000E+00 0. -1.
          1    1    1    2  502    0 -0.23747655893E+02  0.33097986044E+02  0.64377118660E+03  0.64505873262E+03  0.00000000000E+00 0. -1.
         22    1    3    3    0    0  0.14995590399E+03 -0.12933118099E+03 -0.38248027206E+02  0.20168351222E+03  0.00000000000E+00 0. -1.
         22    1    3    3    0    0  0.43608636868E+02  0.24756740926E+02 -0.36965590478E+02  0.62298188659E+02  0.00000000000E+00 0. -1.
</event>
<event>
 7    1  0.4822463E-005  0.7224483E+03  0.7818608E-02  0.1060310E+00
          2   -1    0    0  502    0  0.00000000000E+00  0.00000000000E+00  0.11433141109E+04  0.11433141109E+04  0.00000000000E+00 0. -1.
          1   -1    0    0  501    0 -0.00000000000E+00 -0.00000000000E+00 -0.11154745028E+04  0.11154745028E+04  0.00000000000E+00 0. -1.
         25    2    1    2    0    0  0.21664692776E+03  0.63641451853E+03 -0.50229173071E+03  0.84845835239E+03  0.12500104918E+03 0.  0.
          2    1    1    2  501    0 -0.23622796992E+03 -0.81042118737E+03 -0.82502703563E+01  0.84418849890E+03  0.00000000000E+00 0. -1.
          1    1    1    2  502    0  0.19581042162E+02  0.17400666884E+03  0.53838160919E+03  0.56614176240E+03  0.00000000000E+00 0. -1.
         22    1    3    3    0    0  0.18622498598E+03  0.54919355623E+03 -0.37281979914E+03  0.68941127801E+03  0.00000000000E+00 0.  1.
         22    1    3    3    0    0  0.30421941780E+02  0.87220962298E+02 -0.12947193157E+03  0.15904707439E+03  0.00000000000E+00 0.  1.
</event>
<event>
 7    1  0.4822463E-005  0.2458539E+03  0.7818608E-02  0.1244502E+00
          2   -1    0    0  502    0  0.00000000000E+00  0.00000000000E+00  0.96799621892E+02  0.96799621892E+02  0.00000000000E+00 0. -1.
          1   -1    0    0  501    0 -0.00000000000E+00 -0.00000000000E+00 -0.13337521550E+04  0.13337521550E+04  0.00000000000E+00 0. -1.
         25    2    1    2    0    0  0.16891212497E+02  0.22963868871E+03 -0.86388099190E+03  0.90274006461E+03  0.12502006111E+03 0.  0.
          2    1    1    2  501    0 -0.35194974690E+00 -0.28496654145E+03 -0.37383159008E+03  0.47005968914E+03  0.00000000000E+00 0. -1.
          1    1    1    2  502    0 -0.16539262750E+02  0.55327852732E+02  0.76004888676E+00  0.57752023121E+02  0.00000000000E+00 0. -1.
         22    1    3    3    0    0  0.20693585162E+02  0.26806922700E+02 -0.32397038030E+02  0.46865804641E+02  0.00000000000E+00 0.  1.
         22    1    3    3    0    0 -0.38023726649E+01  0.20283176601E+03 -0.83148395387E+03  0.85587425997E+03  0.00000000000E+00 0.  1.
</event>
<event>
 7    1  0.4822463E-005  0.2452906E+03  0.7818608E-02  0.1175668E+00
          2   -1    0    0  502    0  0.00000000000E+00  0.00000000000E+00  0.10337855028E+04  0.10337855028E+04  0.00000000000E+00 0. -1.
          1   -1    0    0  501    0 -0.00000000000E+00 -0.00000000000E+00 -0.62732872723E+03  0.62732872723E+03  0.00000000000E+00 0. -1.
         25    2    1    2    0    0  0.23778465290E+03 -0.18588139838E+03  0.57425018735E+03  0.66066755780E+03  0.12499963534E+03 0.  0.
          2    1    1    2  501    0 -0.12057671095E+03  0.66269857935E+01 -0.54957965176E+03  0.56269037116E+03  0.00000000000E+00 0. -1.
          1    1    1    2  502    0 -0.11720794195E+03  0.17925441259E+03  0.38178624001E+03  0.43775630110E+03  0.00000000000E+00 0. -1.
         22    1    3    3    0    0  0.78983881829E+02  0.30178522729E+01  0.16058515344E+03  0.17898366553E+03  0.00000000000E+00 0. -1.
         22    1    3    3    0    0  0.15880077107E+03 -0.18889925066E+03  0.41366503391E+03  0.48168389227E+03  0.00000000000E+00 0. -1.
</event>
<event>
 7    1  0.4822463E-005  0.7505266E+03  0.7818608E-02  0.1053923E+00
          2   -1    0    0  502    0  0.00000000000E+00  0.00000000000E+00  0.10242734340E+04  0.10242734340E+04  0.00000000000E+00 0. -1.
          1   -1    0    0  501    0 -0.00000000000E+00 -0.00000000000E+00 -0.74073578378E+03  0.74073578378E+03  0.00000000000E+00 0. -1.
         25    2    1    2    0    0 -0.27291645264E+03  0.69784922180E+03  0.26245963711E+03  0.80373339502E+03  0.12500153066E+03 0.  0.
          2    1    1    2  501    0 -0.16897906446E+03 -0.73824733523E+02 -0.56104346506E+02  0.19274779688E+03  0.00000000000E+00 0. -1.
          1    1    1    2  502    0  0.44189551709E+03 -0.62402448828E+03  0.77182359661E+02  0.76852802593E+03  0.00000000000E+00 0. -1.
         22    1    3    3    0    0 -0.45356082029E+02  0.16357406767E+03  0.11356173700E+03  0.20423006121E+03  0.00000000000E+00 0. -1.
         22    1    3    3    0    0 -0.22756037061E+03  0.53427515413E+03  0.14889790012E+03  0.59950333381E+03  0.00000000000E+00 0. -1.
</event>
<event>
 7    1  0.4822463E-005  0.6914468E+03  0.7818608E-02  0.1097677E+00
          2   -1    0    0  502    0  0.00000000000E+00  0.00000000000E+00  0.26767602464E+04  0.26767602464E+04  0.00000000000E+00 0. -1.
          1   -1    0    0  501    0 -0.00000000000E+00 -0.00000000000E+00 -0.74655918624E+03  0.74655918624E+03  0.00000000000E+00 0. -1.
         25    2    1    2    0    0 -0.63282336476E+03 -0.13047294247E+03  0.29623199176E+03  0.72171139620E+03  0.12500138705E+03 0.  0.
          2    1    1    2  501    0  0.67573088191E+03  0.23228074872E+03 -0.29241556632E+03  0.77205792168E+03  0.00000000000E+00 0. -1.
          1    1    1    2  502    0 -0.42907517151E+02 -0.10180780625E+03  0.19263846348E+04  0.19295501148E+04  0.00000000000E+00 0. -1.
         22    1    3    3    0    0 -0.95665577750E+02 -0.66661664550E+02  0.64263465734E+02  0.13313704712E+03  0.00000000000E+00 0.  1.
         22    1    3    3    0    0 -0.53715778701E+03 -0.63811277922E+02  0.23196852602E+03  0.58857434908E+03  0.00000000000E+00 0.  1.
</event>
<event>
 7    1  0.4822463E-005  0.3707887E+03  0.7818608E-02  0.1182150E+00
          2   -1    0    0  502    0  0.00000000000E+00  0.00000000000E+00  0.31389113698E+03  0.31389113698E+03  0.00000000000E+00 0. -1.
          1   -1    0    0  501    0 -0.00000000000E+00 -0.00000000000E+00 -0.66992636639E+03  0.66992636639E+03  0.00000000000E+00 0. -1.
         25    2    1    2    0    0  0.39204845475E+03  0.59077540926E+01  0.14694541559E+02  0.41180914002E+03  0.12503577816E+03 0.  0.
          2    1    1    2  501    0 -0.68115608697E+02 -0.29584061792E+02  0.61096580310E+01  0.74513628160E+02  0.00000000000E+00 0. -1.
          1    1    1    2  502    0 -0.32393284606E+03  0.23676307699E+02 -0.37683942900E+03  0.49749473520E+03  0.00000000000E+00 0. -1.
         22    1    3    3    0    0  0.12534943905E+03  0.20157165812E+02 -0.50915762014E+02  0.13678891777E+03  0.00000000000E+00 0.  1.
         22    1    3    3    0    0  0.26669901570E+03 -0.14249411720E+02  0.65610303573E+02  0.27502022225E+03  0.00000000000E+00 0.  1.
</event>
<event>
 7    1  0.4822463E-005  0.3689272E+03  0.7818608E-02  0.1216450E+00
          2   -1    0    0  502    0  0.00000000000E+00  0.00000000000E+00  0.15002172867E+04  0.15002172867E+04  0.00000000000E+00 0. -1.
          1   -1    0    0  501    0 -0.00000000000E+00 -0.00000000000E+00 -0.40482330129E+03  0.40482330129E+03  0.00000000000E+00 0. -1.
         25    2    1    2    0    0  0.22230930013E+03  0.33164081418E+03  0.36370384209E+02  0.41994746483E+03  0.12500405521E+03 0.  0.
          2    1    1    2  501    0  0.10313609100E+02 -0.50354425403E+02 -0.18324052918E+03  0.19031297965E+03  0.00000000000E+00 0. -1.
          1    1    1    2  502    0 -0.23262290923E+03 -0.28128638877E+03  0.12422641304E+04  0.12947801435E+04  0.00000000000E+00 0. -1.
         22    1    3    3    0    0  0.15645514771E+03  0.13101944424E+03 -0.78220318607E+01  0.20421922582E+03  0.00000000000E+00 0.  1.
         22    1    3    3    0    0  0.65854152419E+02  0.20062136994E+03  0.44192416070E+02  0.21572823901E+03  0.00000000000E+00 0.  1.
</event>
<event>
 7    1  0.4822463E-005  0.1489992E+03  0.7818608E-02  0.1202797E+00
          2   -1    0    0  502    0  0.00000000000E+00  0.00000000000E+00  0.29415405826E+03  0.29415405826E+03  0.00000000000E+00 0. -1.
          1   -1    0    0  501    0 -0.00000000000E+00 -0.00000000000E+00 -0.91115126451E+03  0.91115126451E+03  0.00000000000E+00 0. -1.
         25    2    1    2    0    0  0.12079719899E+02 -0.22058365676E+03  0.13555217423E+03  0.28775479892E+03  0.12500145239E+03 0.  0.
          2    1    1    2  501    0 -0.10414245773E+03  0.10565607688E+03 -0.75583762086E+03  0.77025928569E+03  0.00000000000E+00 0. -1.
          1    1    1    2  502    0  0.92062737829E+02  0.11492757988E+03  0.32882403804E+01  0.14729123816E+03  0.00000000000E+00 0. -1.
         22    1    3    3    0    0  0.32639815952E+02 -0.21680190530E+03  0.88807488148E+02  0.23654850174E+03  0.00000000000E+00 0. -1.
         22    1    3    3    0    0 -0.20560096052E+02 -0.37817514631E+01  0.46744686077E+02  0.51206297174E+02  0.00000000000E+00 0. -1.
</event>
<event>
 7    1  0.4822463E-005  0.8526827E+02  0.7818608E-02  0.1421923E+00
          2   -1    0    0  502    0  0.00000000000E+00  0.00000000000E+00  0.24071563314E+04  0.24071563314E+04  0.00000000000E+00 0. -1.
          1   -1    0    0  501    0 -0.00000000000E+00 -0.00000000000E+00 -0.10636650018E+03  0.10636650018E+03  0.00000000000E+00 0. -1.
         25    2    1    2    0    0  0.71637464282E+02  0.46912909046E+02  0.79193509157E+02  0.17096423592E+03  0.12499764297E+03 0.  0.
          2    1    1    2  501    0 -0.85334462576E+02 -0.14723156675E+02 -0.29279208012E+02  0.91411234908E+02  0.00000000000E+00 0. -1.
          1    1    1    2  502    0  0.13696998294E+02 -0.32189752371E+02  0.22508755301E+04  0.22511473608E+04  0.00000000000E+00 0. -1.
         22    1    3    3    0    0 -0.26469830179E+02  0.45556366019E+02  0.35673749587E+02  0.63629009140E+02  0.00000000000E+00 0.  1.
         22    1    3    3    0    0  0.98107294461E+02  0.13565430265E+01  0.43519759570E+02  0.10733522678E+03  0.00000000000E+00 0.  1.
</event>
<event>
 7    1  0.4822463E-005  0.3235081E+03  0.7818608E-02  0.1193822E+00
          2   -1    0    0  502    0  0.00000000000E+00  0.00000000000E+00  0.88406580892E+03  0.88406580892E+03  0.00000000000E+00 0. -1.
          1   -1    0    0  501    0 -0.00000000000E+00 -0.00000000000E+00 -0.41323424807E+03  0.41323424807E+03  0.00000000000E+00 0. -1.
         25    2    1    2    0    0 -0.20857933449E+03 -0.23660306537E+03  0.10055365653E+03  0.35386869098E+03  0.12500265317E+03 0.  0.
          2    1    1    2  501    0  0.15619658276E+03  0.28997867938E+03 -0.18861762679E+03  0.37955449688E+03  0.00000000000E+00 0. -1.
          1    1    1    2  502    0  0.52382751726E+02 -0.53375614014E+02  0.55889553111E+03  0.56387686914E+03  0.00000000000E+00 0. -1.
         22    1    3    3    0    0 -0.21682247382E+02  0.11099734650E+02 -0.71840131002E+01  0.25395550891E+02  0.00000000000E+00 0. -1.
         22    1    3    3    0    0 -0.18689708711E+03 -0.24770280002E+03  0.10773766963E+03  0.32847314009E+03  0.00000000000E+00 0. -1.
</event>
<event>
 7    1  0.4822463E-005  0.9880192E+03  0.7818608E-02  0.1078945E+00
          2   -1    0    0  502    0  0.00000000000E+00  0.00000000000E+00  0.19882426210E+04  0.19882426210E+04  0.00000000000E+00 0. -1.
          1   -1    0    0  501    0 -0.00000000000E+00 -0.00000000000E+00 -0.22895216571E+04  0.22895216571E+04  0.00000000000E+00 0. -1.
         25    2    1    2    0    0  0.30539704256E+02  0.10639156022E+04  0.98302921170E+03  0.14542424367E+04  0.12500220624E+03 0.  0.
          2    1    1    2  501    0 -0.79248258820E+02 -0.97759073763E+03 -0.19328456201E+04  0.21674538353E+04  0.00000000000E+00 0. -1.
          1    1    1    2  502    0  0.48708554565E+02 -0.86324864552E+02  0.64853737223E+03  0.65606800616E+03  0.00000000000E+00 0. -1.
         22    1    3    3    0    0 -0.23121977687E+02  0.78653050885E+03  0.76408127657E+03  0.10968067580E+04  0.00000000000E+00 0.  1.
         22    1    3    3    0    0  0.53661681942E+02  0.27738509333E+03  0.21894793513E+03  0.35743567870E+03  0.00000000000E+00 0.  1.
</event>
<event>
 7    1  0.4822463E-005  0.4787313E+03  0.7818608E-02  0.1118867E+00
          2   -1    0    0  502    0  0.00000000000E+00  0.00000000000E+00  0.12027981411E+04  0.12027981411E+04  0.00000000000E+00 0. -1.
          1   -1    0    0  501    0 -0.00000000000E+00 -0.00000000000E+00 -0.79665077872E+03  0.79665077872E+03  0.00000000000E+00 0. -1.
         25    2    1    2    0    0 -0.30882425162E+03  0.31259648374E+03 -0.73661658721E+02  0.46275207202E+03  0.12499784060E+03 0.  0.
          2    1    1    2  501    0  0.42529004695E+03 -0.27721756665E+03 -0.40136275698E+03  0.64715783699E+03  0.00000000000E+00 0. -1.
          1    1    1    2  502    0 -0.11646579532E+03 -0.35378917087E+02  0.88117177806E+03  0.88953901078E+03  0.00000000000E+00 0. -1.
         22    1    3    3    0    0 -0.21052373518E+03  0.28547382236E+03 -0.51892315655E+02  0.35848062535E+03  0.00000000000E+00 0.  1.
         22    1    3    3    0    0 -0.98300516441E+02  0.27122661379E+02 -0.21769343066E+02  0.10427144667E+03  0.00000000000E+00 0.  1.
</event>
<event>
 7    1  0.4822463E-005  0.7815307E+02  0.7818608E-02  0.1376470E+00
          2   -1    0    0  502    0  0.00000000000E+00  0.00000000000E+00  0.59519932793E+02  0.59519932793E+02  0.00000000000E+00 0. -1.
          1   -1    0    0  501    0 -0.00000000000E+00 -0.00000000000E+00 -0.69738547228E+03  0.69738547228E+03  0.00000000000E+00 0. -1.
         25    2    1    2    0    0 -0.94067343631E+02 -0.20243328129E+02 -0.10191981373E+03  0.18780764191E+03  0.12500241780E+03 0.  0.
          2    1    1    2  501    0  0.72048300260E+02 -0.29861344100E+02 -0.49406411918E+03  0.50018197819E+03  0.00000000000E+00 0. -1.
          1    1    1    2  502    0  0.22019043371E+02  0.50104672228E+02 -0.41881606578E+02  0.68915784981E+02  0.00000000000E+00 0. -1.
         22    1    3    3    0    0 -0.19682212447E+02  0.50915469456E+02 -0.40070963915E+02  0.67716000072E+02  0.00000000000E+00 0. -1.
         22    1    3    3    0    0 -0.74385131184E+02 -0.71158797584E+02 -0.61848849814E+02  0.12009164183E+03  0.00000000000E+00 0. -1.
</event>
<event>
 7    1  0.4822463E-005  0.3579049E+03  0.7818608E-02  0.1270100E+00
          2   -1    0    0  502    0  0.00000000000E+00  0.00000000000E+00  0.93264987554E+03  0.93264987554E+03  0.00000000000E+00 0. -1.
          1   -1    0    0  501    0 -0.00000000000E+00 -0.00000000000E+00 -0.17905612209E+04  0.17905612209E+04  0.00000000000E+00 0. -1.
         25    2    1    2    0    0 -0.28752558020E+03  0.21993805675E+03  0.77184912078E+03  0.86163814184E+03  0.12500205654E+03 0.  0.
          2    1    1    2  501    0  0.11296799047E+02 -0.28664220379E+02 -0.15016863479E+04  0.15020023777E+04  0.00000000000E+00 0. -1.
          1    1    1    2  502    0  0.27622878116E+03 -0.19127383637E+03 -0.12807411826E+03  0.35957057692E+03  0.00000000000E+00 0. -1.
         22    1    3    3    0    0 -0.15313200247E+03  0.18912753191E+03  0.53121592639E+03  0.58430214269E+03  0.00000000000E+00 0. -1.
         22    1    3    3    0    0 -0.13439357773E+03  0.30810524839E+02  0.24063319439E+03  0.27733599914E+03  0.00000000000E+00 0. -1.
</event>
<event>
 7    1  0.4822463E-005  0.6545007E+03  0.7818608E-02  0.1116775E+00
          2   -1    0    0  502    0  0.00000000000E+00  0.00000000000E+00  0.18332182801E+04  0.18332182801E+04  0.00000000000E+00 0. -1.
          1   -1    0    0  501    0 -0.00000000000E+00 -0.00000000000E+00 -0.51695794340E+03  0.51695794340E+03  0.00000000000E+00 0. -1.
         25    2    1    2    0    0 -0.57468361033E+03  0.27282659279E+03  0.10335421696E+04  0.12200523404E+04  0.12499078096E+03 0.  0.
          2    1    1    2  501    0 -0.12808999920E+02  0.90499928798E+02 -0.24458143379E+03  0.26110225075E+03  0.00000000000E+00 0. -1.
          1    1    1    2  502    0  0.58749261025E+03 -0.36332652159E+03  0.52729960094E+03  0.86902163238E+03  0.00000000000E+00 0. -1.
         22    1    3    3    0    0 -0.75012825193E+02  0.86058707137E+02  0.20489812745E+03  0.23455546817E+03  0.00000000000E+00 0. -1.
         22    1    3    3    0    0 -0.49967078514E+03  0.18676788565E+03  0.82864404214E+03  0.98549687225E+03  0.00000000000E+00 0. -1.
</event>
<event>
 7    1  0.4822463E-005  0.8294313E+03  0.7818608E-02  0.1139451E+00
          2   -1    0    0  502    0  0.00000000000E+00  0.00000000000E+00  0.14572515351E+04  0.14572515351E+04  0.00000000000E+00 0. -1.
          1   -1    0    0  501    0 -0.00000000000E+00 -0.00000000000E+00 -0.29199913671E+04  0.29199913671E+04  0.00000000000E+00 0. -1.
         25    2    1    2    0    0  0.69536069523E+03  0.39786195497E+03 -0.45497219251E+03  0.92975515509E+03  0.12499728306E+03 0.  0.
          2    1    1    2  501    0  0.50309657683E+02 -0.21064520931E+02 -0.20841797618E+04  0.20848932959E+04  0.00000000000E+00 0. -1.
          1    1    1    2  502    0 -0.74567035291E+03 -0.37679743403E+03  0.10764121223E+04  0.13625944512E+04  0.00000000000E+00 0. -1.
         22    1    3    3    0    0  0.67440840600E+03  0.38043625319E+03 -0.40744294491E+03  0.87496753893E+03  0.00000000000E+00 0.  1.
         22    1    3    3    0    0  0.20952289221E+02  0.17425701780E+02 -0.47529247600E+02  0.54787616151E+02  0.00000000000E+00 0.  1.
</event>
<event>
 7    1  0.4822463E-005  0.3175149E+03  0.7818608E-02  0.1083978E+00
          2   -1    0    0  502    0  0.00000000000E+00  0.00000000000E+00  0.13822982686E+04  0.13822982686E+04  0.00000000000E+00 0. -1.
          1   -1    0    0  501    0 -0.00000000000E+00 -0.00000000000E+00 -0.66129347354E+03  0.66129347354E+03  0.00000000000E+00 0. -1.
         25    2    1    2    0    0  0.34639565227E+03 -0.22974802628E+03 -0.89077767110E+02  0.44309526305E+03  0.12499784020E+03 0.  0.
          2    1    1    2  501    0 -0.27675153436E+03 -0.80674044686E+02 -0.31752963477E+03  0.42886452664E+03  0.00000000000E+00 0. -1.
          1    1    1    2  502    0 -0.69644117916E+02  0.31042207096E+03  0.11276121969E+04  0.11716319525E+04  0.00000000000E+00 0. -1.
         22    1    3    3    0    0  0.40357893342E+01  0.59418913832E+01  0.13221981251E+02  0.15047074698E+02  0.00000000000E+00 0.  1.
         22    1    3    3    0    0  0.34235986294E+03 -0.23568991766E+03 -0.10229974836E+03  0.42804818835E+03  0.00000000000E+00 0.  1.
</event>
<event>
 7    1  0.4822463E-005  0.2810293E+02  0.7818608E-02  0.1638749E+00
          2   -1    0    0  502    0  0.00000000000E+00  0.00000000000E+00  0.10719830756E+03  0.10719830756E+03  0.00000000000E+00 0. -1.
          1   -1    0    0  501    0 -0.00000000000E+00 -0.00000000000E+00 -0.18528332942E+03  0.18528332942E+03  0.00000000000E+00 0. -1.
         25    2    1    2    0    0  0.33691488474E+02 -0.15913845856E+02 -0.72463642908E+02  0.14919797045E+03  0.12498275064E+03 0.  0.
          2    1    1    2  501    0 -0.10589209546E+02  0.26024695521E+02 -0.69307750962E+02  0.74786231883E+02  0.00000000000E+00 0. -1.
          1    1    1    2  502    0 -0.23102278928E+02 -0.10110849666E+02  0.63686372009E+02  0.68497434640E+02  0.00000000000E+00 0. -1.
         22    1    3    3    0    0 -0.17016588478E+02 -0.57778405173E+02 -0.15488761585E+02  0.62191720697E+02  0.00000000000E+00 0.  1.
         22    1    3    3    0    0  0.50708076952E+02  0.41864559318E+02 -0.56974881323E+02  0.87006249757E+02  0.00000000000E+00 0.  1.
</event>
<event>
 7    1  0.4822463E-005  0.1385535E+03  0.7818608E-02  0.1223429E+00
          2   -1    0    0  502    0  0.00000000000E+00  0.00000000000E+00  0.14894519983E+04  0.14894519983E+04  0.00000000000E+00 0. -1.
          1   -1    0    0  501    0 -0.00000000000E+00 -0.00000000000E+00 -0.39930351436E+03  0.39930351436E+03  0.00000000000E+00 0. -1.
         25    2    1    2    0    0  0.18145821334E+03 -0.12869741902E+03  0.32294089871E+02  0.25720887620E+03  0.12499355545E+03 0.  0.
          2    1    1    2  501    0 -0.13187731914E+03  0.11566033814E+02 -0.26836547838E+03  0.29924142498E+03  0.00000000000E+00 0. -1.
          1    1    1    2  502    0 -0.49580894201E+02  0.11713138521E+03  0.13262198724E+04  0.13323052115E+04  0.00000000000E+00 0. -1.
         22    1    3    3    0    0  0.13334556739E+03 -0.10715251109E+03 -0.32036810944E+02  0.17403751960E+03  0.00000000000E+00 0. -1.
         22    1    3    3    0    0  0.48112645950E+02 -0.21544907935E+02  0.64330900816E+02  0.83171356596E+02  0.00000000000E+00 0. -1.
</event>
<event>
 7    1  0.4822463E-005  0.6656392E+02  0.7818608E-02  0.1483451E+00
          2   -1    0    0  502    0  0.00000000000E+00  0.00000000000E+00  0.20779766079E+03  0.20779766079E+03  0.00000000000E+00 0. -1.
          1   -1    0    0  501    0 -0.00000000000E+00 -0.00000000000E+00 -0.95102336067E+03  0.95102336067E+03  0.00000000000E+00 0. -1.
         25    2    1    2    0    0  0.57708294397E+02 -0.47669006621E+02 -0.33834560881E+02  0.14956046568E+03  0.12498389476E+03 0.  0.
          2    1    1    2  501    0 -0.31376623346E+02  0.58633518368E+02 -0.85666889777E+03  0.85924617099E+03  0.00000000000E+00 0. -1.
          1    1    1    2  502    0 -0.26331671051E+02 -0.10964511747E+02  0.14727775876E+03  0.15001438479E+03  0.00000000000E+00 0. -1.
         22    1    3    3    0    0 -0.45563765182E+01  0.24679597263E+01 -0.63931620740E+02  0.64141277837E+02  0.00000000000E+00 0. -1.
         22    1    3    3    0    0  0.62264670916E+02 -0.50136966348E+02  0.30097059859E+02  0.85419187838E+02  0.00000000000E+00 0. -1.
</event>
<event>
 7    1  0.4822463E-005  0.4391164E+03  0.7818608E-02  0.1108446E+00
          2   -1    0    0  502    0  0.00000000000E+00  0.00000000000E+00  0.11512518593E+04  0.11512518593E+04  0.00000000000E+00 0. -1.
          1   -1    0    0  501    0 -0.00000000000E+00 -0.00000000000E+00 -0.78700003657E+03  0.78700003657E+03  0.00000000000E+00 0. -1.
         25    2    1    2    0    0 -0.48069561328E+03 -0.84271296844E+02 -0.13438270422E+03  0.52139505677E+03  0.12499667971E+03 0.  0.
          2    1    1    2  501    0  0.50000042307E+02  0.14290798657E+03 -0.39505157016E+03  0.42307025415E+03  0.00000000000E+00 0. -1.
          1    1    1    2  502    0  0.43069557097E+03 -0.58636689725E+02  0.89368609709E+03  0.99378658492E+03  0.00000000000E+00 0. -1.
         22    1    3    3    0    0 -0.70764886495E+02 -0.40016627573E+02  0.15357603417E+02  0.82733642647E+02  0.00000000000E+00 0.  1.
         22    1    3    3    0    0 -0.40993072678E+03 -0.44254669271E+02 -0.14974030764E+03  0.43866141413E+03  0.00000000000E+00 0.  1.
</event>
<event>
 7    1  0.4822463E-005  0.3611417E+03  0.7818608E-02  0.1156190E+00
          2   -1    0    0  502    0  0.00000000000E+00  0.00000000000E+00  0.58688999186E+03  0.58688999186E+03  0.00000000000E+00 0. -1.
          1   -1    0    0  501    0 -0.00000000000E+00 -0.00000000000E+00 -0.59615532791E+03  0.59615532791E+03  0.00000000000E+00 0. -1.
         25    2    1    2    0    0  0.12285669425E+03  0.39512115709E+03  0.13853500432E+03  0.45390716082E+03  0.12500106847E+03 0.  0.
          2    1    1    2  501    0  0.25453640588E+02 -0.99445501488E+02 -0.33408799555E+03  0.34950262425E+03  0.00000000000E+00 0. -1.
          1    1    1    2  502    0 -0.14831033484E+03 -0.29567565560E+03  0.18628765518E+03  0.37963553470E+03  0.00000000000E+00 0. -1.
         22    1    3    3    0    0  0.87126982580E+02  0.37583521746E+03  0.14622424740E+03  0.41258302474E+03  0.00000000000E+00 0. -1.
         22    1    3    3    0    0  0.35729711667E+02  0.19285939633E+02 -0.76892430861E+01  0.41324136078E+02  0.00000000000E+00 0. -1.
</event>
<event>
 7    1  0.4822463E-005  0.4966128E+03  0.7818608E-02  0.1102222E+00
          2   -1    0    0  502    0  0.00000000000E+00  0.00000000000E+00  0.14225532511E+04  0.14225532511E+04  0.00000000000E+00 0. -1.
          1   -1    0    0  501    0 -0.00000000000E+00 -0.00000000000E+00 -0.10174944084E+04  0.10174944084E+04  0.00000000000E+00 0. -1.
         25    2    1    2    0    0 -0.35863060834E+03 -0.37661257254E+03  0.35143724193E+03  0.63998899550E+03  0.12499934521E+03 0.  0.
          2    1    1    2  501    0 -0.66705841993E+02  0.12876274401E+03 -0.80087702405E+03  0.81390019121E+03  0.00000000000E+00 0. -1.
          1    1    1    2  502    0  0.42533645033E+03  0.24784982853E+03  0.85449862489E+03  0.98615847277E+03  0.00000000000E+00 0. -1.
         22    1    3    3    0    0 -0.17305614190E+03 -0.10073975016E+03  0.16015047286E+03  0.25640807216E+03  0.00000000000E+00 0.  1.
         22    1    3    3    0    0 -0.18557446644E+03 -0.27587282239E+03  0.19128676907E+03  0.38358092333E+03  0.00000000000E+00 0.  1.
</event>
<event>
 7    1  0.4822463E-005  0.5259774E+03  0.7818608E-02  0.1036277E+00
          2   -1    0    0  502    0  0.00000000000E+00  0.00000000000E+00  0.70082875810E+03  0.70082875810E+03  0.00000000000E+00 0. -1.
          1   -1    0    0  501    0 -0.00000000000E+00 -0.00000000000E+00 -0.86790849705E+03  0.86790849705E+03  0.00000000000E+00 0. -1.
         25    2    1    2    0    0 -0.21654104285E+02  0.34924748628E+03 -0.34994677881E+03  0.51042252883E+03  0.12500281208E+03 0.  0.
          2    1    1    2  501    0 -0.28482269540E+03  0.18434605641E+03 -0.13568847249E+03  0.36540224123E+03  0.00000000000E+00 0. -1.
          1    1    1    2  502    0  0.30647679968E+03 -0.53359354270E+03  0.31855551235E+03  0.69291248509E+03  0.00000000000E+00 0. -1.
         22    1    3    3    0    0  0.34181457656E+02  0.15178278297E+03 -0.91790628181E+02  0.18064303107E+03  0.00000000000E+00 0.  1.
         22    1    3    3    0    0 -0.55835561941E+02  0.19746470332E+03 -0.25815615063E+03  0.32977949776E+03  0.00000000000E+00 0.  1.
</event>
<event>
 7    1  0.4822463E-005  0.2442329E+03  0.7818608E-02  0.1248018E+00
          2   -1    0    0  502    0  0.00000000000E+00  0.00000000000E+00  0.69819482167E+03  0.69819482167E+03  0.00000000000E+00 0. -1.
          1   -1    0    0  501    0 -0.00000000000E+00 -0.00000000000E+00 -0.92651451459E+03  0.92651451459E+03  0.00000000000E+00 0. -1.
         25    2    1    2    0    0 -0.20904148975E+03 -0.27014333666E+02 -0.65364346284E+03  0.69807047659E+03  0.12499798043E+03 0.  0.
          2    1    1    2  501    0 -0.35898453137E+02  0.43125984623E+02 -0.22481051142E+03  0.23170739205E+03  0.00000000000E+00 0. -1.
          1    1    1    2  502    0  0.24493994288E+03 -0.16111650957E+02  0.65013428134E+03  0.69493146762E+03  0.00000000000E+00 0. -1.
         22    1    3    3    0    0 -0.15203177123E+03 -0.24650523523E+02 -0.27534853376E+03  0.31549662885E+03  0.00000000000E+00 0.  1.
         22    1    3    3    0    0 -0.57009718518E+02 -0.23638101428E+01 -0.37829492908E+03  0.38257384774E+03  0.00000000000E+00 0.  1.
</event>
<event>
 7    1  0.4822463E-005  0.5455539E+03  0.7818608E-02  0.1069487E+00
          2   -1    0    0  502    0  0.00000000000E+00  0.00000000000E+00  0.67500026539E+03  0.67500026539E+03  0.00000000000E+00 0. -1.
          1   -1    0    0  501    0 -0.00000000000E+00 -0.00000000000E+00 -0.10321095689E+04  0.10321095689E+04  0.00000000000E+00 0. -1.
         25    2    1    2    0    0  0.51176576933E+03  0.17902561043E+03  0.79445239388E+02  0.56204112264E+03  0.12499722247E+03 0.  0.
          2    1    1    2  501    0  0.55486554393E+02 -0.19650074622E+03 -0.53176282926E+03  0.56961654433E+03  0.00000000000E+00 0. -1.
          1    1    1    2  502    0 -0.56725232373E+03  0.17475135787E+02  0.95208286321E+02  0.57545216737E+03  0.00000000000E+00 0. -1.
         22    1    3    3    0    0  0.16153787131E+03  0.12391885362E+02 -0.15464757940E+02  0.16274889072E+03  0.00000000000E+00 0. -1.
         22    1    3    3    0    0  0.35022789802E+03  0.16663372507E+03  0.94909997328E+02  0.39929223193E+03  0.00000000000E+00 0. -1.
</event>
<event>
 7    1  0.4822463E-005  0.3057179E+03  0.7818608E-02  0.1324900E+00
          2   -1    0    0  502    0  0.00000000000E+00  0.00000000000E+00  0.22585535451E+04  0.22585535451E+04  0.00000000000E+00 0. -1.
          1   -1    0    0  501    0 -0.00000000000E+00 -0.00000000000E+00 -0.14877259859E+03  0.14877259859E+03  0.00000000000E+00 0. -1.
         25    2    1    2    0    0  0.23233732185E+03 -0.16985587825E+03  0.23837755229E+03  0.39404817016E+03  0.12497380713E+03 0.  0.
          2    1    1    2  501    0  0.12764796553E+02 -0.17569046754E+02 -0.56661374427E+02  0.60680497583E+02  0.00000000000E+00 0. -1.
          1    1    1    2  502    0 -0.24510211841E+03  0.18742492501E+03  0.19280647686E+04  0.19525974759E+04  0.00000000000E+00 0. -1.
         22    1    3    3    0    0  0.10975862995E+03 -0.13380033579E+03  0.80277301995E+02  0.19077193694E+03  0.00000000000E+00 0.  1.
         22    1    3    3    0    0  0.12257869190E+03 -0.36055542462E+02  0.15810025030E+03  0.20327623323E+03  0.00000000000E+00 0.  1.
</event>
<event>
 7    1  0.4822463E-005  0.2000898E+03  0.7818608E-02  0.1198269E+00
          2   -1    0    0  502    0  0.00000000000E+00  0.00000000000E+00  0.76186181212E+03  0.76186181212E+03  0.00000000000E+00 0. -1.
          1   -1    0    0  501    0 -0.00000000000E+00 -0.00000000000E+00 -0.69628000422E+03  0.69628000422E+03  0.00000000000E+00 0. -1.
         25    2    1    2    0    0 -0.86064304839E+02 -0.28753012935E+03  0.82241744016E+00  0.32512433638E+03  0.12499807154E+03 0.  0.
          2    1    1    2  501    0  0.28595011975E+02  0.18771584652E+03 -0.51137150890E+03  0.54548669448E+03  0.00000000000E+00 0. -1.
          1    1    1    2  502    0  0.57469292864E+02  0.99814282830E+02  0.57613089937E+03  0.58753078548E+03  0.00000000000E+00 0. -1.
         22    1    3    3    0    0 -0.50248113729E+02 -0.25368757175E+03 -0.39293075411E+02  0.26158402621E+03  0.00000000000E+00 0.  1.
         22    1    3    3    0    0 -0.35816191109E+02 -0.33842557600E+02  0.40115492851E+02  0.63540310175E+02  0.00000000000E+00 0.  1.
</event>
<event>
 7    1  0.4822463E-005  0.2034420E+03  0.7818608E-02  0.1163889E+00
          2   -1    0    0  502    0  0.00000000000E+00  0.00000000000E+00  0.85342628674E+03  0.85342628674E+03  0.00000000000E+00 0. -1.
          1   -1    0    0  501    0 -0.00000000000E+00 -0.00000000000E+00 -0.43344004188E+03  0.43344004188E+03  0.00000000000E+00 0. -1.
         25    2    1    2    0    0  0.12161059395E+03 -0.12770106754E+03  0.63266883338E+03  0.66857569486E+03  0.12500763105E+03 0.  0.
          2    1    1    2  501    0 -0.18664777968E+03 -0.80939844545E+02 -0.31657608000E+03  0.37630980126E+03  0.00000000000E+00 0. -1.
          1    1    1    2  502    0  0.65037185735E+02  0.20864091209E+03  0.10389349148E+03  0.24198083250E+03  0.00000000000E+00 0. -1.
         22    1    3    3    0    0  0.19804789484E+02 -0.11126393421E+03  0.33528305191E+03  0.35381720936E+03  0.00000000000E+00 0.  1.
         22    1    3    3    0    0  0.10180580446E+03 -0.16437133331E+02  0.29738578147E+03  0.31475848550E+03  0.00000000000E+00 0.  1.
</event>
<event>
 7    1  0.4822463E-005  0.8206201E+02  0.7818608E-02  0.1328769E+00
          2   -1    0    0  502    0  0.00000000000E+00  0.00000000000E+00  0.85085461905E+02  0.85085461905E+02  0.00000000000E+00 0. -1.
          1   -1    0    0  501    0 -0.00000000000E+00 -0.00000000000E+00 -0.47211621869E+03  0.47211621869E+03  0.00000000000E+00 0. -1.
         25    2    1    2    0    0  0.57619773774E+02 -0.40744152052E+01 -0.12037907271E+02  0.13822584808E+03  0.12499933871E+03 0.  0.
          2    1    1    2  501    0 -0.47399970964E+02 -0.73438621904E+02 -0.29266676924E+03  0.30544038085E+03  0.00000000000E+00 0. -1.
          1    1    1    2  502    0 -0.10219802810E+02  0.77513037109E+02 -0.82326080279E+02  0.11353545167E+03  0.00000000000E+00 0. -1.
         22    1    3    3    0    0  0.21368552046E+02  0.60147820868E+02 -0.84947273747E+01  0.64393600341E+02  0.00000000000E+00 0.  1.
         22    1    3    3    0    0  0.36251221728E+02 -0.64222236073E+02 -0.35431798962E+01  0.73832247743E+02  0.00000000000E+00 0.  1.
</event>
<event>
 7    1  0.4822463E-005  0.5016938E+02  0.7818608E-02  0.1535071E+00
          2   -1    0    0  502    0  0.00000000000E+00  0.00000000000E+00  0.20154955416E+04  0.20154955416E+04  0.00000000000E+00 0. -1.
          1   -1    0    0  501    0 -0.00000000000E+00 -0.00000000000E+00 -0.16016977336E+03  0.16016977336E+03  0.00000000000E+00 0. -1.
         25    2    1    2    0    0  0.10541318321E+02 -0.33854901025E+02  0.94133381035E+03  0.95025864120E+03  0.12499947578E+03 0.  0.
          2    1    1    2  501    0  0.26363137437E+02 -0.39629352891E+01 -0.15390818616E+03  0.15620003085E+03  0.00000000000E+00 0. -1.
          1    1    1    2  502    0 -0.36904455758E+02  0.37817836314E+02  0.10679001441E+04  0.10692066430E+04  0.00000000000E+00 0. -1.
         22    1    3    3    0    0 -0.22926585063E+02 -0.73407285221E+02  0.49710681587E+03  0.50302032186E+03  0.00000000000E+00 0.  1.
         22    1    3    3    0    0  0.33467903384E+02  0.39552384196E+02  0.44422699449E+03  0.44723831934E+03  0.00000000000E+00 0.  1.
</event>
<event>
 7    1  0.4822463E-005  0.7375311E+02  0.7818608E-02  0.1426326E+00
          2   -1    0    0  502    0  0.00000000000E+00  0.00000000000E+00  0.10779398842E+02  0.10779398842E+02  0.00000000000E+00 0. -1.
          1   -1    0    0  501    0 -0.00000000000E+00 -0.00000000000E+00 -0.22779944628E+04  0.22779944628E+04  0.00000000000E+00 0. -1.
         25    2    1    2    0    0 -0.94787017096E+02 -0.58267888165E+01 -0.17557035707E+04  0.17627089141E+04  0.12501662941E+03 0.  0.
          2    1    1    2  501    0  0.29920513536E+02 -0.25180126947E+02 -0.30285166676E+03  0.30536602297E+03  0.00000000000E+00 0. -1.
          1    1    1    2  502    0  0.64866503560E+02  0.31006915764E+02 -0.20865982644E+03  0.22069892451E+03  0.00000000000E+00 0. -1.
         22    1    3    3    0    0 -0.95179204669E+01  0.49839155873E+02 -0.79669541637E+03  0.79830953817E+03  0.00000000000E+00 0.  1.
         22    1    3    3    0    0 -0.85269096629E+02 -0.55665944689E+02 -0.95900815435E+03  0.96439937596E+03  0.00000000000E+00 0.  1.
</event>
<event>
 7    1  0.4822463E-005  0.1538943E+03  0.7818608E-02  0.1213366E+00
          2   -1    0    0  502    0  0.00000000000E+00  0.00000000000E+00  0.40990449107E+03  0.40990449107E+03  0.00000000000E+00 0. -1.
          1   -1    0    0  501    0 -0.00000000000E+00 -0.00000000000E+00 -0.82642380990E+03  0.82642380990E+03  0.00000000000E+00 0. -1.
         25    2    1    2    0    0 -0.15288762681E+03 -0.19611167322E+03 -0.69424928131E+03  0.74795798363E+03  0.12499866347E+03 0.  0.
          2    1    1    2  501    0  0.17815849803E+02  0.12605752691E+03 -0.42182186673E+02  0.13411652198E+03  0.00000000000E+00 0. -1.
          1    1    1    2  502    0  0.13507177700E+03  0.70054146312E+02  0.31991214915E+03  0.35425379537E+03  0.00000000000E+00 0. -1.
         22    1    3    3    0    0 -0.16294837156E+03 -0.12691128068E+03 -0.47890483236E+03  0.52154432545E+03  0.00000000000E+00 0.  1.
         22    1    3    3    0    0  0.10060744755E+02 -0.69200392546E+02 -0.21534444895E+03  0.22641365817E+03  0.00000000000E+00 0.  1.
</event>
<event>
 7    1  0.4822463E-005  0.1078923E+04  0.7818608E-02  0.1060746E+00
          2   -1    0    0  502    0  0.00000000000E+00  0.00000000000E+00  0.23990912199E+04  0.23990912199E+04  0.00000000000E+00 0. -1.
          1   -1    0    0  501    0 -0.00000000000E+00 -0.00000000000E+00 -0.16765650662E+04  0.16765650662E+04  0.00000000000E+00 0. -1.
         25    2    1    2    0    0  0.21724504413E+03 -0.96704635327E+03 -0.87331851347E+00  0.99899954123E+03  0.12500104845E+03 0.  0.
          2    1    1    2  501    0  0.15786772149E+02 -0.11546348617E+03 -0.10116683806E+04  0.10183584590E+04  0.00000000000E+00 0. -1.
          1    1    1    2  502    0 -0.23303181628E+03  0.10825098394E+04  0.17350678528E+04  0.20582982859E+04  0.00000000000E+00 0. -1.
         22    1    3    3    0    0  0.20254424645E+03 -0.93055921153E+03 -0.25322274933E+02  0.95268349180E+03  0.00000000000E+00 0.  1.
         22    1    3    3    0    0  0.14700797688E+02 -0.36487141742E+02  0.24448956419E+02  0.46316049434E+02  0.00000000000E+00 0.  1.
</event>
<event>
 7    1  0.4822463E-005  0.6888858E+03  0.7818608E-02  0.1056268E+00
          2   -1    0    0  502    0  0.00000000000E+00  0.00000000000E+00  0.10916494962E+04  0.10916494962E+04  0.00000000000E+00 0. -1.
          1   -1    0    0  501    0 -0.00000000000E+00 -0.00000000000E+00 -0.27047569168E+04  0.27047569168E+04  0.00000000000E+00 0. -1.
         25    2    1    2    0    0  0.35495884883E+03  0.70210387590E+03 -0.23353974399E+03  0.83012598889E+03  0.12499083364E+03 0.  0.
          2    1    1    2  501    0  0.63822364689E+02 -0.18358105661E+03 -0.20274632271E+04  0.20367578245E+04  0.00000000000E+00 0. -1.
          1    1    1    2  502    0 -0.41878121352E+03 -0.51852281929E+03  0.64789555048E+03  0.92952259964E+03  0.00000000000E+00 0. -1.
         22    1    3    3    0    0  0.13812892113E+03  0.23765573202E+03 -0.14219075085E+03  0.30948029896E+03  0.00000000000E+00 0.  1.
         22    1    3    3    0    0  0.21682992770E+03  0.46444814388E+03 -0.91348993132E+02  0.52064568993E+03  0.00000000000E+00 0.  1.
</event>
<event>
 7    1  0.4822463E-005  0.1411509E+03  0.7818608E-02  0.1356657E+00
          2   -1    0    0  502    0  0.00000000000E+00  0.00000000000E+00  0.35450193127E+03  0.35450193127E+03  0.00000000000E+00 0. -1.
          1   -1    0    0  501    0 -0.00000000000E+00 -0.00000000000E+00 -0.28599634260E+03  0.28599634260E+03  0.00000000000E+00 0. -1.
         25    2    1    2    0    0  0.16839383528E+03 -0.46231601017E+02 -0.21431355458E+03  0.30339641205E+03  0.12500095392E+03 0.  0.
          2    1    1    2  501    0 -0.34252220206E+02  0.10183688724E+02  0.23034316002E+02  0.42514724729E+02  0.00000000000E+00 0. -1.
          1    1    1    2  502    0 -0.13414161507E+03  0.36047912293E+02  0.25978482725E+03  0.29458713709E+03  0.00000000000E+00 0. -1.
         22    1    3    3    0    0  0.80167755016E+02 -0.79624593944E+02 -0.76739910378E+02  0.13658681763E+03  0.00000000000E+00 0. -1.
         22    1    3    3    0    0  0.88226080259E+02  0.33392992927E+02 -0.13757364420E+03  0.16680959442E+03  0.00000000000E+00 0. -1.
</event>
<event>
 7    1  0.4822463E-005  0.2405816E+03  0.7818608E-02  0.1166610E+00
          2   -1    0    0  502    0  0.00000000000E+00  0.00000000000E+00  0.24605209082E+03  0.24605209082E+03  0.00000000000E+00 0. -1.
          1   -1    0    0  501    0 -0.00000000000E+00 -0.00000000000E+00 -0.25739217171E+04  0.25739217171E+04  0.00000000000E+00 0. -1.
         25    2    1    2    0    0 -0.25090616112E+03  0.17098108024E+03 -0.49485728482E+03  0.59388294639E+03  0.12499916077E+03 0.  0.
          2    1    1    2  501    0  0.23260090394E+03 -0.35681512605E+02 -0.19980717467E+04  0.20118814716E+04  0.00000000000E+00 0. -1.
          1    1    1    2  502    0  0.18305257186E+02 -0.13529956764E+03  0.16505940527E+03  0.21420938988E+03  0.00000000000E+00 0. -1.
         22    1    3    3    0    0 -0.25883626983E+02 -0.20013098966E+02 -0.59610134895E+02  0.67998929832E+02  0.00000000000E+00 0.  1.
         22    1    3    3    0    0 -0.22502253414E+03  0.19099417921E+03 -0.43524714992E+03  0.52588401656E+03  0.00000000000E+00 0.  1.
</event>
<event>
 7    1  0.4822463E-005  0.2819770E+03  0.7818608E-02  0.1236088E+00
          2   -1    0    0  502    0  0.00000000000E+00  0.00000000000E+00  0.10972277109E+04  0.10972277109E+04  0.00000000000E+00 0. -1.
          1   -1    0    0  501    0 -0.00000000000E+00 -0.00000000000E+00 -0.27945083696E+03  0.27945083696E+03  0.00000000000E+00 0. -1.
         25    2    1    2    0    0  0.26682381510E+03  0.79870018829E+02 -0.50532504505E+02  0.30943189388E+03  0.12498157756E+03 0.  0.
          2    1    1    2  501    0 -0.25814813903E+03 -0.13401739691E+03  0.11631839871E+03  0.31325882946E+03  0.00000000000E+00 0. -1.
          1    1    1    2  502    0 -0.86756760702E+01  0.54147378079E+02  0.75199097975E+03  0.75398782453E+03  0.00000000000E+00 0. -1.
         22    1    3    3    0    0  0.25518496688E+03  0.34984374514E+02 -0.32230252121E+02  0.25958055192E+03  0.00000000000E+00 0. -1.
         22    1    3    3    0    0  0.11638848217E+02  0.44885644315E+02 -0.18302252384E+02  0.49851341965E+02  0.00000000000E+00 0. -1.
</event>
<event>
 7    1  0.4822463E-005  0.1632608E+03  0.7818608E-02  0.1197861E+00
          2   -1    0    0  502    0  0.00000000000E+00  0.00000000000E+00  0.89899673916E+03  0.89899673916E+03  0.00000000000E+00 0. -1.
          1   -1    0    0  501    0 -0.00000000000E+00 -0.00000000000E+00 -0.49990149401E+03  0.49990149401E+03  0.00000000000E+00 0. -1.
         25    2    1    2    0    0  0.96212795296E+02 -0.10125863048E+03  0.73566677075E+03  0.75917135971E+03  0.12500137435E+03 0.  0.
          2    1    1    2  501    0 -0.11330614255E+03 -0.11754063963E+03 -0.38216328476E+03  0.41557533627E+03  0.00000000000E+00 0. -1.
          1    1    1    2  502    0  0.17093347250E+02  0.21879927011E+03  0.45591759161E+02  0.22415153719E+03  0.00000000000E+00 0. -1.
         22    1    3    3    0    0  0.15563162168E+02  0.25814852484E+02  0.21784441721E+03  0.21992000530E+03  0.00000000000E+00 0. -1.
         22    1    3    3    0    0  0.80649633129E+02 -0.12707348296E+03  0.51782235354E+03  0.53925135440E+03  0.00000000000E+00 0. -1.
</event>
<event>
 7    1  0.4822463E-005  0.2583941E+03  0.7818608E-02  0.1326740E+00
          2   -1    0    0  502    0  0.00000000000E+00  0.00000000000E+00  0.37688152529E+03  0.37688152529E+03  0.00000000000E+00 0. -1.
          1   -1    0    0  501    0 -0.00000000000E+00 -0.00000000000E+00 -0.13711799576E+04  0.13711799576E+04  0.00000000000E+00 0. -1.
         25    2    1    2    0    0  0.20365225800E+03  0.17498981448E+03 -0.79773311744E+03  0.85093980812E+03  0.12499901205E+03 0.  0.
          2    1    1    2  501    0  0.58189978143E+01 -0.24600026687E+02 -0.49902125605E+03  0.49966112120E+03  0.00000000000E+00 0. -1.
          1    1    1    2  502    0 -0.20947125582E+03 -0.15038978779E+03  0.30245594118E+03  0.39746055357E+03  0.00000000000E+00 0. -1.
         22    1    3    3    0    0  0.20610249478E+03  0.12772760326E+03 -0.58994608591E+03  0.63783145365E+03  0.00000000000E+00 0.  1.
         22    1    3    3    0    0 -0.24502367756E+01  0.47262211216E+02 -0.20778703153E+03  0.21310835446E+03  0.00000000000E+00 0.  1.
</event>
<event>
 7    1  0.4822463E-005  0.1377857E+04  0.7818608E-02  0.1121382E+00
          2   -1    0    0  502    0  0.00000000000E+00  0.00000000000E+00  0.29258790083E+04  0.29258790083E+04  0.00000000000E+00 0. -1.
          1   -1    0    0  501    0 -0.00000000000E+00 -0.00000000000E+00 -0.23109493969E+04  0.23109493969E+04  0.00000000000E+00 0. -1.
         25    2    1    2    0    0  0.24999690822E+03 -0.13304337750E+04  0.37723103035E+03  0.14108440220E+04  0.12500048073E+03 0.  0.
          2    1    1    2  501    0 -0.14278554969E+02 -0.38414470412E+02 -0.15564574106E+04  0.15569968593E+04  0.00000000000E+00 0. -1.
          1    1    1    2  502    0 -0.23571835325E+03  0.13688482455E+04  0.17941559917E+04  0.22689875240E+04  0.00000000000E+00 0. -1.
         22    1    3    3    0    0  0.10169819467E+03 -0.84315246862E+03  0.26010980424E+03  0.88820364692E+03  0.00000000000E+00 0. -1.
         22    1    3    3    0    0  0.14829871355E+03 -0.48728130642E+03  0.11712122610E+03  0.52264037505E+03  0.00000000000E+00 0. -1.
</event>
<event>
 7    1  0.4822463E-005  0.2864129E+03  0.7818608E-02  0.1141835E+00
          2   -1    0    0  502    0  0.00000000000E+00  0.00000000000E+00  0.21389390154E+04  0.21389390154E+04  0.00000000000E+00 0. -1.
          1   -1    0    0  501    0 -0.00000000000E+00 -0.00000000000E+00 -0.11984859124E+04  0.11984859124E+04  0.00000000000E+00 0. -1.
         25    2    1    2    0    0  0.26967541268E+03 -0.13093263185E+03 -0.67363377736E+01  0.32486644182E+03  0.12499857793E+03 0.  0.
          2    1    1    2  501    0 -0.28851769065E+03 -0.21383421416E+02 -0.10093575550E+04  0.10500011345E+04  0.00000000000E+00 0. -1.
          1    1    1    2  502    0  0.18842277967E+02  0.15231605327E+03  0.19565469957E+04  0.19625573515E+04  0.00000000000E+00 0. -1.
         22    1    3    3    0    0  0.56957282528E+02  0.20050969172E+02  0.17554342261E+02  0.62883450366E+02  0.00000000000E+00 0. -1.
         22    1    3    3    0    0  0.21271813015E+03 -0.15098360103E+03 -0.24290680035E+02  0.26198299145E+03  0.00000000000E+00 0. -1.
</event>
<event>
 7    1  0.4822463E-005  0.5270951E+03  0.7818608E-02  0.1163154E+00
          2   -1    0    0  502    0  0.00000000000E+00  0.00000000000E+00  0.18222158604E+04  0.18222158604E+04  0.00000000000E+00 0. -1.
          1   -1    0    0  501    0 -0.00000000000E+00 -0.00000000000E+00 -0.39028648290E+04  0.39028648290E+04  0.00000000000E+00 0. -1.
         25    2    1    2    0    0  0.46289298849E+03  0.29805282293E+03  0.29013096179E+03  0.63474672511E+03  0.12498810343E+03 0.  0.
          2    1    1    2  501    0  0.29796762962E+01 -0.64784539425E+02 -0.36803534387E+04  0.36809247953E+04  0.00000000000E+00 0. -1.
          1    1    1    2  502    0 -0.46587266478E+03 -0.23326828350E+03  0.13095735084E+04  0.14094091690E+04  0.00000000000E+00 0. -1.
         22    1    3    3    0    0  0.10024737911E+03  0.94144787688E+01  0.60825128437E+02  0.11763445787E+03  0.00000000000E+00 0.  1.
         22    1    3    3    0    0  0.36264560938E+03  0.28863834416E+03  0.22930583336E+03  0.51711226724E+03  0.00000000000E+00 0.  1.
</event>
<event>
 7    1  0.4822463E-005  0.4776758E+02  0.7818608E-02  0.1544146E+00
          2   -1    0    0  502    0  0.00000000000E+00  0.00000000000E+00  0.80596005291E+03  0.80596005291E+03  0.00000000000E+00 0. -1.
          1   -1    0    0  501    0 -0.00000000000E+00 -0.00000000000E+00 -0.39392927402E+03  0.39392927402E+03  0.00000000000E+00 0. -1.
         25    2    1    2    0    0 -0.27139726743E+02  0.31929107009E+01 -0.11077205906E+03  0.16923957795E+03  0.12499930491E+03 0.  0.
          2    1    1    2  501    0 -0.12957349940E+02  0.22993411199E+02 -0.25249677912E+03  0.25387243518E+03  0.00000000000E+00 0. -1.
          1    1    1    2  502    0  0.40097076683E+02 -0.26186321900E+02  0.77529961708E+03  0.77677731381E+03  0.00000000000E+00 0. -1.
         22    1    3    3    0    0  0.46898662924E+02 -0.18565987010E+02 -0.37799105148E+02  0.63031363683E+02  0.00000000000E+00 0. -1.
         22    1    3    3    0    0 -0.74038389667E+02  0.21758897710E+02 -0.72972953914E+02  0.10620821426E+03  0.00000000000E+00 0. -1.
</event>
<event>
 7    1  0.4822463E-005  0.3227537E+03  0.7818608E-02  0.1279417E+00
          2   -1    0    0  502    0  0.00000000000E+00  0.00000000000E+00  0.26943438071E+04  0.26943438071E+04  0.00000000000E+00 0. -1.
          1   -1    0    0  501    0 -0.00000000000E+00 -0.00000000000E+00 -0.18437311741E+04  0.18437311741E+04  0.00000000000E+00 0. -1.
         25    2    1    2    0    0  0.16084563395E+03  0.31058134029E+03  0.85585781132E+03  0.93297870053E+03  0.12499830224E+03 0.  0.
          2    1    1    2  501    0 -0.13534223557E+03 -0.29253324024E+03 -0.17906446830E+04  0.18194234246E+04  0.00000000000E+00 0. -1.
          1    1    1    2  502    0 -0.25503398382E+02 -0.18048100051E+02  0.17853995047E+04  0.17856728560E+04  0.00000000000E+00 0. -1.
         22    1    3    3    0    0  0.14361867755E+03  0.20855668849E+03  0.71266058861E+03  0.75631166288E+03  0.00000000000E+00 0. -1.
         22    1    3    3    0    0  0.17226956400E+02  0.10202465180E+03  0.14319722271E+03  0.17666703765E+03  0.00000000000E+00 0. -1.
</event>
<event>
 7    1  0.4822463E-005  0.7734373E+03  0.7818608E-02  0.1235829E+00
          2   -1    0    0  502    0  0.00000000000E+00  0.00000000000E+00  0.97704334465E+03  0.97704334465E+03  0.00000000000E+00 0. -1.
          1   -1    0    0  501    0 -0.00000000000E+00 -0.00000000000E+00 -0.13674589122E+04  0.13674589122E+04  0.00000000000E+00 0. -1.
         25    2    1    2    0    0 -0.76062754863E+03  0.17175865454E+03 -0.17506102044E+03  0.80890480342E+03  0.12500126790E+03 0.  0.
          2    1    1    2  501    0  0.52481100813E+01 -0.19346351437E+02 -0.65037564260E+03  0.65068448610E+03  0.00000000000E+00 0. -1.
          1    1    1    2  502    0  0.75537943854E+03 -0.15241230310E+03  0.43502109545E+03  0.88491296736E+03  0.00000000000E+00 0. -1.
         22    1    3    3    0    0 -0.47005482803E+03  0.16783299984E+03 -0.11317121572E+03  0.51178821914E+03  0.00000000000E+00 0.  1.
         22    1    3    3    0    0 -0.29057272060E+03  0.39256546954E+01 -0.61889804717E+02  0.29711658427E+03  0.00000000000E+00 0.  1.
</event>
<event>
 7    1  0.4822463E-005  0.5819060E+03  0.7818608E-02  0.1158341E+00
          2   -1    0    0  502    0  0.00000000000E+00  0.00000000000E+00  0.20647079029E+04  0.20647079029E+04  0.00000000000E+00 0. -1.
          1   -1    0    0  501    0 -0.00000000000E+00 -0.00000000000E+00 -0.38229643264E+03  0.38229643264E+03  0.00000000000E+00 0. -1.
         25    2    1    2    0    0  0.49665623030E+03 -0.32394586546E+03 -0.30112592064E+02  0.60674609079E+03  0.12500286252E+03 0.  0.
          2    1    1    2  501    0 -0.46497032558E+03  0.27050933140E+03  0.10989339771E+04  0.12235311962E+04  0.00000000000E+00 0. -1.
          1    1    1    2  502    0 -0.31685904724E+02  0.53436534052E+02  0.61359008521E+03  0.61672704854E+03  0.00000000000E+00 0. -1.
         22    1    3    3    0    0  0.24565087020E+03 -0.11001985252E+03  0.32294635026E+02  0.27109345516E+03  0.00000000000E+00 0. -1.
         22    1    3    3    0    0  0.25100536010E+03 -0.21392601293E+03 -0.62407227090E+02  0.33565263563E+03  0.00000000000E+00 0. -1.
</event>
<event>
 7    1  0.4822463E-005  0.1996190E+03  0.7818608E-02  0.1172980E+00
          2   -1    0    0  502    0  0.00000000000E+00  0.00000000000E+00  0.21589783877E+04  0.21589783877E+04  0.00000000000E+00 0. -1.
          1   -1    0    0  501    0 -0.00000000000E+00 -0.00000000000E+00 -0.21988230844E+03  0.21988230844E+03  0.00000000000E+00 0. -1.
         25    2    1    2    0    0 -0.40529976514E+02  0.30281888624E+03  0.21669973925E+03  0.39487467723E+03  0.12500110746E+03 0.  0.
          2    1    1    2  501    0  0.88631702561E+02 -0.15759383431E+03 -0.63435998105E+02  0.19161294624E+03  0.00000000000E+00 0. -1.
          1    1    1    2  502    0 -0.48101726046E+02 -0.14522505192E+03  0.17858323381E+04  0.17923730727E+04  0.00000000000E+00 0. -1.
         22    1    3    3    0    0 -0.28067205342E+01  0.56254153953E+02  0.10999220067E+03  0.12357464030E+03  0.00000000000E+00 0. -1.
         22    1    3    3    0    0 -0.37723255980E+02  0.24656473228E+03  0.10670753859E+03  0.27130003693E+03  0.00000000000E+00 0. -1.
</event>
<event>
 7    1  0.4822463E-005  0.1501044E+04  0.7818608E-02  0.1110310E+00
          2   -1    0    0  502    0  0.00000000000E+00  0.00000000000E+00  0.11801329668E+04  0.11801329668E+04  0.00000000000E+00 0. -1.
          1   -1    0    0  501    0 -0.00000000000E+00 -0.00000000000E+00 -0.31522848406E+04  0.31522848406E+04  0.00000000000E+00 0. -1.
         25    2    1    2    0    0  0.33931036170E+03 -0.14854434627E+04 -0.37817361285E+03  0.15749013422E+04  0.12500061492E+03 0.  0.
          2    1    1    2  501    0 -0.30428303497E+03  0.14600713745E+04 -0.19185542873E+04  0.24300714264E+04  0.00000000000E+00 0. -1.
          1    1    1    2  502    0 -0.35027326724E+02  0.25372088252E+02  0.32457602646E+03  0.32744503880E+03  0.00000000000E+00 0. -1.
         22    1    3    3    0    0  0.87100417651E+02 -0.51495905119E+03 -0.18268339581E+03  0.55330148225E+03  0.00000000000E+00 0. -1.
         22    1    3    3    0    0  0.25220994405E+03 -0.97048441154E+03 -0.19549021704E+03  0.10215998600E+04  0.00000000000E+00 0. -1.
</event>
<event>
 7    1  0.4822463E-005  0.2648624E+03  0.7818608E-02  0.1292354E+00
          2   -1    0    0  502    0  0.00000000000E+00  0.00000000000E+00  0.44102156089E+04  0.44102156089E+04  0.00000000000E+00 0. -1.
          1   -1    0    0  501    0 -0.00000000000E+00 -0.00000000000E+00 -0.45639717439E+02  0.45639717439E+02  0.00000000000E+00 0. -1.
         25    2    1    2    0    0 -0.21131589285E+03 -0.16149775045E+03  0.61945915160E+03  0.68563182200E+03  0.12500169941E+03 0.  0.
          2    1    1    2  501    0  0.18772251950E+03  0.18556328193E+03  0.13885576748E+04  0.14134234653E+04  0.00000000000E+00 0. -1.
          1    1    1    2  502    0  0.23593373352E+02 -0.24065531488E+02  0.23565590651E+04  0.23568000391E+04  0.00000000000E+00 0. -1.
         22    1    3    3    0    0 -0.87750241023E+02 -0.13811490164E+03  0.28989737792E+03  0.33289085385E+03  0.00000000000E+00 0. -1.
         22    1    3    3    0    0 -0.12356565183E+03 -0.23382848802E+02  0.32956177369E+03  0.35274096814E+03  0.00000000000E+00 0. -1.
</event>
<event>
 7    1  0.4822463E-005  0.1037032E+04  0.7818608E-02  0.1065596E+00
          2   -1    0    0  502    0  0.00000000000E+00  0.00000000000E+00  0.22687454598E+04  0.22687454598E+04  0.00000000000E+00 0. -1.
          1   -1    0    0  501    0 -0.00000000000E+00 -0.00000000000E+00 -0.24184716130E+04  0.24184716130E+04  0.00000000000E+00 0. -1.
         25    2    1    2    0    0  0.17974772883E+03 -0.10639582597E+04 -0.90714030046E+03  0.14152188422E+04  0.12499768866E+03 0.  0.
          2    1    1    2  501    0 -0.85018704204E+02  0.10017349655E+04 -0.10542699010E+04  0.14567725098E+04  0.00000000000E+00 0. -1.
          1    1    1    2  502    0 -0.94729024629E+02  0.62223294238E+02  0.18116840483E+04  0.18152257207E+04  0.00000000000E+00 0. -1.
         22    1    3    3    0    0  0.30000418544E+02 -0.39483134468E+02 -0.27901954599E+02  0.56898700254E+02  0.00000000000E+00 0.  1.
         22    1    3    3    0    0  0.14974731029E+03 -0.10244751253E+04 -0.87923834586E+03  0.13583201420E+04  0.00000000000E+00 0.  1.
</event>
<event>
 7    1  0.4822463E-005  0.2509155E+03  0.7818608E-02  0.1231250E+00
          2   -1    0    0  502    0  0.00000000000E+00  0.00000000000E+00  0.34797026866E+03  0.34797026866E+03  0.00000000000E+00 0. -1.
          1   -1    0    0  501    0 -0.00000000000E+00 -0.00000000000E+00 -0.26484122917E+03  0.26484122917E+03  0.00000000000E+00 0. -1.
         25    2    1    2    0    0  0.14219416734E+03 -0.15773802405E+03  0.11008175394E+03  0.26989560442E+03  0.12500071710E+03 0.  0.
          2    1    1    2  501    0 -0.18296098399E+03  0.20806071515E+03 -0.20111822871E+02  0.27779213141E+03  0.00000000000E+00 0. -1.
          1    1    1    2  502    0  0.40766816656E+02 -0.50322691097E+02 -0.68408915816E+01  0.65123762001E+02  0.00000000000E+00 0. -1.
         22    1    3    3    0    0  0.13207025175E+03 -0.17906109630E+03  0.95327708912E+02  0.24205949619E+03  0.00000000000E+00 0.  1.
         22    1    3    3    0    0  0.10123915584E+02  0.21323072248E+02  0.14754045028E+02  0.27836108232E+02  0.00000000000E+00 0.  1.
</event>
<event>
 7    1  0.4822463E-005  0.7065664E+03  0.7818608E-02  0.1164472E+00
          2   -1    0    0  502    0  0.00000000000E+00  0.00000000000E+00  0.12020541464E+04  0.12020541464E+04  0.00000000000E+00 0. -1.
          1   -1    0    0  501    0 -0.00000000000E+00 -0.00000000000E+00 -0.90592827849E+03  0.90592827849E+03  0.00000000000E+00 0. -1.
         25    2    1    2    0    0  0.24160533891E+03 -0.69993480632E+03 -0.50714925723E+02  0.75264754955E+03  0.12499782903E+03 0.  0.
          2    1    1    2  501    0 -0.26885537803E+02  0.39338615027E+02 -0.36069082865E+03  0.36382445307E+03  0.00000000000E+00 0. -1.
          1    1    1    2  502    0 -0.21471980111E+03  0.66059619130E+03  0.70753162225E+03  0.99151042225E+03  0.00000000000E+00 0. -1.
         22    1    3    3    0    0  0.12331860437E+03 -0.19521223256E+03 -0.38618718105E+02  0.23410830680E+03  0.00000000000E+00 0. -1.
         22    1    3    3    0    0  0.11828673454E+03 -0.50472257376E+03 -0.12096207618E+02  0.51853924275E+03  0.00000000000E+00 0. -1.
</event>
<event>
 7    1  0.4822463E-005  0.3303460E+03  0.7818608E-02  0.1187912E+00
          2   -1    0    0  502    0  0.00000000000E+00  0.00000000000E+00  0.70666470625E+03  0.70666470625E+03  0.00000000000E+00 0. -1.
          1   -1    0    0  501    0 -0.00000000000E+00 -0.00000000000E+00 -0.77665369255E+03  0.77665369255E+03  0.00000000000E+00 0. -1.
         25    2    1    2    0    0  0.35556072246E+03 -0.59772430973E+02  0.73358273522E+02  0.38859072614E+03  0.12500058114E+03 0.  0.
          2    1    1    2  501    0 -0.32563527445E+03 -0.12443522690E+02 -0.57237326875E+03  0.65863824062E+03  0.00000000000E+00 0. -1.
          1    1    1    2  502    0 -0.29925448010E+02  0.72215953663E+02  0.42902600893E+03  0.43608943204E+03  0.00000000000E+00 0. -1.
         22    1    3    3    0    0  0.27843309202E+03  0.11268755403E+01  0.81122952000E+02  0.29001239615E+03  0.00000000000E+00 0.  1.
         22    1    3    3    0    0  0.77127630440E+02 -0.60899306514E+02 -0.77646784784E+01  0.98578329987E+02  0.00000000000E+00 0.  1.
</event>
<event>
 7    1  0.4822463E-005  0.1830709E+03  0.7818608E-02  0.1187287E+00
          2   -1    0    0  502    0  0.00000000000E+00  0.00000000000E+00  0.20842451096E+04  0.20842451096E+04  0.00000000000E+00 0. -1.
          1   -1    0    0  501    0 -0.00000000000E+00 -0.00000000000E+00 -0.10184656199E+03  0.10184656199E+03  0.00000000000E+00 0. -1.
         25    2    1    2    0    0  0.95788726915E+02 -0.12619251721E+03  0.11178025494E+04  0.11358734241E+04  0.12500345844E+03 0.  0.
          2    1    1    2  501    0 -0.68600130124E+02 -0.12437508491E+03 -0.76927973282E+01  0.14224738567E+03  0.00000000000E+00 0. -1.
          1    1    1    2  502    0 -0.27188596792E+02  0.25056760213E+03  0.87228879557E+03  0.90797086182E+03  0.00000000000E+00 0. -1.
         22    1    3    3    0    0 -0.65284134701E+01  0.13682664891E+02  0.23724128847E+02  0.28154392029E+02  0.00000000000E+00 0.  1.
         22    1    3    3    0    0  0.10231714039E+03 -0.13987518210E+03  0.10940784205E+04  0.11077190321E+04  0.00000000000E+00 0.  1.
</event>
<event>
 7    1  0.4822463E-005  0.3061221E+03  0.7818608E-02  0.1139889E+00
          2   -1    0    0  502    0  0.00000000000E+00  0.00000000000E+00  0.28348672229E+04  0.28348672229E+04  0.00000000000E+00 0. -1.
          1   -1    0    0  501    0 -0.00000000000E+00 -0.00000000000E+00 -0.10151282183E+03  0.10151282183E+03  0.00000000000E+00 0. -1.
         25    2    1    2    0    0  0.14439487642E+03 -0.24643081770E+03  0.34565737904E+03  0.46549091142E+03  0.12499894672E+03 0.  0.
          2    1    1    2  501    0  0.13239704018E+03  0.63872331827E+02  0.17112145701E+04  0.17175167993E+04  0.00000000000E+00 0. -1.
          1    1    1    2  502    0 -0.27679191660E+03  0.18255848587E+03  0.67648245192E+03  0.75337233399E+03  0.00000000000E+00 0. -1.
         22    1    3    3    0    0 -0.21937329493E+02 -0.38890729890E+02  0.36507700778E+02  0.57676230050E+02  0.00000000000E+00 0. -1.
         22    1    3    3    0    0  0.16633220591E+03 -0.20754008781E+03  0.30914967826E+03  0.40781468137E+03  0.00000000000E+00 0. -1.
</event>
<event>
 7    1  0.4822463E-005  0.1167710E+03  0.7818608E-02  0.1398784E+00
          2   -1    0    0  502    0  0.00000000000E+00  0.00000000000E+00  0.22779922616E+03  0.22779922616E+03  0.00000000000E+00 0. -1.
          1   -1    0    0  501    0 -0.00000000000E+00 -0.00000000000E+00 -0.11356566881E+03  0.11356566881E+03  0.00000000000E+00 0. -1.
         25    2    1    2    0    0 -0.98836782224E+01 -0.13388462758E+03  0.72179531478E+02  0.19712583427E+03  0.12500371664E+03 0.  0.
          2    1    1    2  501    0  0.13731405215E+02  0.27343272261E+02  0.31814292345E+01  0.30762436820E+02  0.00000000000E+00 0. -1.
          1    1    1    2  502    0 -0.38477269922E+01  0.10654135532E+03  0.38872596644E+02  0.11347662388E+03  0.00000000000E+00 0. -1.
         22    1    3    3    0    0 -0.36134448642E+02 -0.14522450427E+03  0.41746235001E+02  0.15536602961E+03  0.00000000000E+00 0. -1.
         22    1    3    3    0    0  0.26250770420E+02  0.11339876685E+02  0.30433296478E+02  0.41759804661E+02  0.00000000000E+00 0. -1.
</event>
<event>
 7    1  0.4822463E-005  0.1646095E+03  0.7818608E-02  0.1242164E+00
          2   -1    0    0  502    0  0.00000000000E+00  0.00000000000E+00  0.15343646308E+04  0.15343646308E+04  0.00000000000E+00 0. -1.
          1   -1    0    0  501    0 -0.00000000000E+00 -0.00000000000E+00 -0.12289878262E+03  0.12289878262E+03  0.00000000000E+00 0. -1.
         25    2    1    2    0    0  0.22146779530E+03 -0.84316718449E+02  0.14926443935E+03  0.30669601617E+03  0.12500112045E+03 0.  0.
          2    1    1    2  501    0 -0.88184633697E+02 -0.46810102995E+01  0.10824713345E+02  0.88969747087E+02  0.00000000000E+00 0. -1.
          1    1    1    2  502    0 -0.13328316160E+03  0.88997728749E+02  0.12513766955E+04  0.12615976502E+04  0.00000000000E+00 0. -1.
         22    1    3    3    0    0  0.10980502038E+03  0.15851035941E+02  0.29648995618E+02  0.11483667003E+03  0.00000000000E+00 0. -1.
         22    1    3    3    0    0  0.11166277492E+03 -0.10016775439E+03  0.11961544373E+03  0.19185934614E+03  0.00000000000E+00 0. -1.
</event>
<event>
 7    1  0.4822463E-005  0.6547705E+03  0.7818608E-02  0.1167300E+00
          2   -1    0    0  502    0  0.00000000000E+00  0.00000000000E+00  0.62418597740E+03  0.62418597740E+03  0.00000000000E+00 0. -1.
          1   -1    0    0  501    0 -0.00000000000E+00 -0.00000000000E+00 -0.36252159172E+04  0.36252159172E+04  0.00000000000E+00 0. -1.
         25    2    1    2    0    0 -0.75225665832E+02 -0.67898570371E+03 -0.12426174940E+03  0.70551676705E+03  0.12502975483E+03 0.  0.
          2    1    1    2  501    0 -0.31173518270E+01  0.49671820304E+02 -0.29084946438E+04  0.29089204356E+04  0.00000000000E+00 0. -1.
          1    1    1    2  502    0  0.78343017659E+02  0.62931388340E+03  0.31726453334E+02  0.63496469201E+03  0.00000000000E+00 0. -1.
         22    1    3    3    0    0 -0.55147511191E+02 -0.66879455368E+03 -0.12652099860E+03  0.68288722796E+03  0.00000000000E+00 0.  1.
         22    1    3    3    0    0 -0.20078154642E+02 -0.10191150022E+02  0.22592491951E+01  0.22629539092E+02  0.00000000000E+00 0.  1.
</event>
<event>
 7    1  0.4822463E-005  0.8019441E+03  0.7818608E-02  0.1125084E+00
          2   -1    0    0  502    0  0.00000000000E+00  0.00000000000E+00  0.38463049490E+04  0.38463049490E+04  0.00000000000E+00 0. -1.
          1   -1    0    0  501    0 -0.00000000000E+00 -0.00000000000E+00 -0.14168514646E+04  0.14168514646E+04  0.00000000000E+00 0. -1.
         25    2    1    2    0    0 -0.81497503462E+03  0.50082635551E+02  0.20645824360E+04  0.22236946019E+04  0.12499788136E+03 0.  0.
          2    1    1    2  501    0  0.35787704002E+02  0.56933220754E+02 -0.12454872507E+04  0.12473013442E+04  0.00000000000E+00 0. -1.
          1    1    1    2  502    0  0.77918733061E+03 -0.10701585631E+03  0.16103582991E+04  0.17921604675E+04  0.00000000000E+00 0. -1.
         22    1    3    3    0    0 -0.52942433561E+03  0.21257615452E+02  0.14903393764E+04  0.15817248402E+04  0.00000000000E+00 0. -1.
         22    1    3    3    0    0 -0.28555069901E+03  0.28825020100E+02  0.57424305960E+03  0.64196976174E+03  0.00000000000E+00 0. -1.
</event>
<event>
 7    1  0.4822463E-005  0.4139738E+03  0.7818608E-02  0.1047166E+00
          2   -1    0    0  502    0  0.00000000000E+00  0.00000000000E+00  0.14449675032E+04  0.14449675032E+04  0.00000000000E+00 0. -1.
          1   -1    0    0  501    0 -0.00000000000E+00 -0.00000000000E+00 -0.44456112145E+04  0.44456112145E+04  0.00000000000E+00 0. -1.
         25    2    1    2    0    0 -0.69474194570E+01 -0.66734487998E+02  0.13527352182E+04  0.13601544126E+04  0.12500278813E+03 0.  0.
          2    1    1    2  501    0 -0.23417434732E+03  0.34488526686E+03 -0.39949300322E+04  0.40166216444E+04  0.00000000000E+00 0. -1.
          1    1    1    2  502    0  0.24112176678E+03 -0.27815077886E+03 -0.35844889730E+03  0.51380266072E+03  0.00000000000E+00 0. -1.
         22    1    3    3    0    0  0.29013246762E+02 -0.51666633122E+02  0.25768264751E+03  0.26440793538E+03  0.00000000000E+00 0. -1.
         22    1    3    3    0    0 -0.35960666219E+02 -0.15067854877E+02  0.10950525707E+04  0.10957464772E+04  0.00000000000E+00 0. -1.
</event>
<event>
 7    1  0.4822463E-005  0.1492801E+03  0.7818608E-02  0.1271430E+00
          2   -1    0    0  502    0  0.00000000000E+00  0.00000000000E+00  0.76278472811E+03  0.76278472811E+03  0.00000000000E+00 0. -1.
          1   -1    0    0  501    0 -0.00000000000E+00 -0.00000000000E+00 -0.36452777045E+03  0.36452777045E+03  0.00000000000E+00 0. -1.
         25    2    1    2    0    0  0.12304162235E+03  0.16043528246E+03 -0.30221753278E+03  0.38449876337E+03  0.12500056490E+03 0.  0.
          2    1    1    2  501    0 -0.36205768504E+01 -0.72835839402E+02  0.96562722518E+02  0.12100631165E+03  0.00000000000E+00 0. -1.
          1    1    1    2  502    0 -0.11942104550E+03 -0.87599443061E+02  0.60391176792E+03  0.62180742354E+03  0.00000000000E+00 0. -1.
         22    1    3    3    0    0  0.17504124250E+02  0.13064849401E+02 -0.13860636995E+03  0.14031682168E+03  0.00000000000E+00 0.  1.
         22    1    3    3    0    0  0.10553749810E+03  0.14737043306E+03 -0.16361116283E+03  0.24418194169E+03  0.00000000000E+00 0.  1.
</event>
<event>
 7    1  0.4822463E-005  0.4794457E+03  0.7818608E-02  0.1169398E+00
          2   -1    0    0  502    0  0.00000000000E+00  0.00000000000E+00  0.16076352380E+04  0.16076352380E+04  0.00000000000E+00 0. -1.
          1   -1    0    0  501    0 -0.00000000000E+00 -0.00000000000E+00 -0.26529805882E+03  0.26529805882E+03  0.00000000000E+00 0. -1.
         25    2    1    2    0    0  0.29457277819E+03 -0.33848506215E+03  0.57964661447E+03  0.74361459933E+03  0.12500886260E+03 0.  0.
          2    1    1    2  501    0  0.91101203844E+01 -0.65725320221E+02 -0.10550923949E+03  0.12463952675E+03  0.00000000000E+00 0. -1.
          1    1    1    2  502    0 -0.30368289857E+03  0.40421038237E+03  0.86819980419E+03  0.10046791707E+04  0.00000000000E+00 0. -1.
         22    1    3    3    0    0  0.10684702350E+03 -0.96776713082E+02  0.28193374286E+03  0.31665226036E+03  0.00000000000E+00 0.  1.
         22    1    3    3    0    0  0.18772575469E+03 -0.24170834907E+03  0.29771287161E+03  0.42696233897E+03  0.00000000000E+00 0.  1.
</event>
<event>
 7    1  0.4822463E-005  0.3978783E+03  0.7818608E-02  0.1258387E+00
          2   -1    0    0  502    0  0.00000000000E+00  0.00000000000E+00  0.21638475863E+03  0.21638475863E+03  0.00000000000E+00 0. -1.
          1   -1    0    0  501    0 -0.00000000000E+00 -0.00000000000E+00 -0.16032018994E+04  0.16032018994E+04  0.00000000000E+00 0. -1.
         25    2    1    2    0    0 -0.77143008879E+02 -0.38954272872E+03 -0.31936451919E+03  0.52470033130E+03  0.12498864038E+03 0.  0.
          2    1    1    2  501    0  0.46684897370E+02  0.39568563973E+03 -0.11444682206E+04  0.12118391449E+04  0.00000000000E+00 0. -1.
          1    1    1    2  502    0  0.30458111509E+02 -0.61429110039E+01  0.77015599041E+02  0.83047181818E+02  0.00000000000E+00 0. -1.
         22    1    3    3    0    0 -0.79867330220E+02 -0.24572030266E+03 -0.13705659355E+03  0.29247524239E+03  0.00000000000E+00 0. -1.
         22    1    3    3    0    0  0.27243213408E+01 -0.14382242606E+03 -0.18230792564E+03  0.23222508891E+03  0.00000000000E+00 0. -1.
</event>
<event>
 7    1  0.4822463E-005  0.5430923E+03  0.7818608E-02  0.1181051E+00
          2   -1    0    0  502    0  0.00000000000E+00  0.00000000000E+00  0.18485775632E+04  0.18485775632E+04  0.00000000000E+00 0. -1.
          1   -1    0    0  501    0 -0.00000000000E+00 -0.00000000000E+00 -0.20624374909E+04  0.20624374909E+04  0.00000000000E+00 0. -1.
         25    2    1    2    0    0  0.45211800233E+03 -0.28164600989E+03  0.62762738898E+03  0.83263265375E+03  0.12500333508E+03 0.  0.
          2    1    1    2  501    0 -0.48626454581E+03  0.24332051016E+03 -0.19216008774E+04  0.19970498269E+04  0.00000000000E+00 0. -1.
          1    1    1    2  502    0  0.34146543485E+02  0.38325499725E+02  0.10801135607E+04  0.10813325734E+04  0.00000000000E+00 0. -1.
         22    1    3    3    0    0  0.23911181853E+03 -0.19732719863E+03  0.42983688164E+03  0.52997380115E+03  0.00000000000E+00 0.  1.
         22    1    3    3    0    0  0.21300618380E+03 -0.84318811253E+02  0.19779050733E+03  0.30265885260E+03  0.00000000000E+00 0.  1.
</event>
<event>
 7    1  0.4822463E-005  0.3019243E+03  0.7818608E-02  0.1093415E+00
          2   -1    0    0  502    0  0.00000000000E+00  0.00000000000E+00  0.20260567093E+04  0.20260567093E+04  0.00000000000E+00 0. -1.
          1   -1    0    0  501    0 -0.00000000000E+00 -0.00000000000E+00 -0.12937792218E+04  0.12937792218E+04  0.00000000000E+00 0. -1.
         25    2    1    2    0    0 -0.36727734458E+03  0.38749634222E+02  0.89252707213E+03  0.97397295504E+03  0.12499824266E+03 0.  0.
          2    1    1    2  501    0  0.23337193264E+03  0.19284990215E+03 -0.12178687591E+04  0.12549334079E+04  0.00000000000E+00 0. -1.
          1    1    1    2  502    0  0.13390541194E+03 -0.23159953637E+03  0.10576191744E+04  0.10909295682E+04  0.00000000000E+00 0. -1.
         22    1    3    3    0    0 -0.24993351859E+03  0.57150370405E+02  0.72188730705E+03  0.76606410478E+03  0.00000000000E+00 0.  1.
         22    1    3    3    0    0 -0.11734382598E+03 -0.18400736183E+02  0.17063976508E+03  0.20790885026E+03  0.00000000000E+00 0.  1.
</event>
<event>
 7    1  0.4822463E-005  0.3662728E+03  0.7818608E-02  0.1172505E+00
          2   -1    0    0  502    0  0.00000000000E+00  0.00000000000E+00  0.19997415933E+04  0.19997415933E+04  0.00000000000E+00 0. -1.
          1   -1    0    0  501    0 -0.00000000000E+00 -0.00000000000E+00 -0.10353716338E+04  0.10353716338E+04  0.00000000000E+00 0. -1.
         25    2    1    2    0    0 -0.31037029369E+03 -0.24586774327E+03 -0.11776907777E+03  0.43159625600E+03  0.12500042453E+03 0.  0.
          2    1    1    2  501    0  0.23185431314E+03  0.27523670000E+03 -0.71709445596E+03  0.80233167849E+03  0.00000000000E+00 0. -1.
          1    1    1    2  502    0  0.78515980549E+02 -0.29368956727E+02  0.17992334932E+04  0.18011852925E+04  0.00000000000E+00 0. -1.
         22    1    3    3    0    0 -0.10356955719E+03 -0.39046982063E+02  0.12563454253E+02  0.11139641093E+03  0.00000000000E+00 0.  1.
         22    1    3    3    0    0 -0.20680073650E+03 -0.20682076121E+03 -0.13033253203E+03  0.32019984508E+03  0.00000000000E+00 0.  1.
</event>
<event>
 7    1  0.4822463E-005  0.3026141E+03  0.7818608E-02  0.1244338E+00
          2   -1    0    0  502    0  0.00000000000E+00  0.00000000000E+00  0.19482559046E+04  0.19482559046E+04  0.00000000000E+00 0. -1.
          1   -1    0    0  501    0 -0.00000000000E+00 -0.00000000000E+00 -0.65674329142E+03  0.65674329142E+03  0.00000000000E+00 0. -1.
         25    2    1    2    0    0 -0.22937749860E+03  0.23037475555E+03  0.29857876513E+03  0.45876042817E+03  0.12500114642E+03 0.  0.
          2    1    1    2  501    0  0.46577898570E+02  0.62320036101E+01 -0.56142272387E+03  0.56338602520E+03  0.00000000000E+00 0. -1.
          1    1    1    2  502    0  0.18279960003E+03 -0.23660675916E+03  0.15543565719E+04  0.15828527426E+04  0.00000000000E+00 0. -1.
         22    1    3    3    0    0 -0.20919553291E+03  0.13322669830E+03  0.19670498118E+03  0.31655169206E+03  0.00000000000E+00 0.  1.
         22    1    3    3    0    0 -0.20181965693E+02  0.97148057254E+02  0.10187378395E+03  0.14220873610E+03  0.00000000000E+00 0.  1.
</event>
<event>
 7    1  0.4822463E-005  0.4664185E+03  0.7818608E-02  0.1181563E+00
          2   -1    0    0  502    0  0.00000000000E+00  0.00000000000E+00  0.91932371793E+03  0.91932371793E+03  0.00000000000E+00 0. -1.
          1   -1    0    0  501    0 -0.00000000000E+00 -0.00000000000E+00 -0.11856271165E+04  0.11856271165E+04  0.00000000000E+00 0. -1.
         25    2    1    2    0    0 -0.42556083925E+03 -0.25556892611E+03 -0.65825028095E+03  0.83386746614E+03  0.12499605921E+03 0.  0.
          2    1    1    2  501    0  0.51357774933E+01  0.59203606105E+02 -0.37229153636E+03  0.37700455068E+03  0.00000000000E+00 0. -1.
          1    1    1    2  502    0  0.42042506176E+03  0.19636532001E+03  0.76423841873E+03  0.89407881762E+03  0.00000000000E+00 0. -1.
         22    1    3    3    0    0 -0.29386839445E+03 -0.19132871094E+03 -0.54760554699E+03  0.65025928981E+03  0.00000000000E+00 0. -1.
         22    1    3    3    0    0 -0.13169244480E+03 -0.64240215178E+02 -0.11064473396E+03  0.18360817633E+03  0.00000000000E+00 0. -1.
</event>
<event>
 7    1  0.4822463E-005  0.5331871E+03  0.7818608E-02  0.1091682E+00
          2   -1    0    0  502    0  0.00000000000E+00  0.00000000000E+00  0.15828051425E+04  0.15828051425E+04  0.00000000000E+00 0. -1.
          1   -1    0    0  501    0 -0.00000000000E+00 -0.00000000000E+00 -0.35412152189E+04  0.35412152189E+04  0.00000000000E+00 0. -1.
         25    2    1    2    0    0  0.19004353626E+03 -0.59639632228E+03  0.74902998119E+02  0.64267150685E+03  0.12494433836E+03 0.  0.
          2    1    1    2  501    0  0.59160792749E+02  0.14324469159E+03 -0.32007469465E+04  0.32044968492E+04  0.00000000000E+00 0. -1.
          1    1    1    2  502    0 -0.24920432901E+03  0.45315163069E+03  0.11674338720E+04  0.12768520053E+04  0.00000000000E+00 0. -1.
         22    1    3    3    0    0  0.88905904022E+02 -0.42112701203E+03  0.11310466914E+02  0.43055794813E+03  0.00000000000E+00 0.  1.
         22    1    3    3    0    0  0.10113763224E+03 -0.17526931024E+03  0.63592531205E+02  0.21211355872E+03  0.00000000000E+00 0.  1.
</event>
<event>
 7    1  0.4822463E-005  0.8666113E+02  0.7818608E-02  0.1317326E+00
          2   -1    0    0  502    0  0.00000000000E+00  0.00000000000E+00  0.17300992996E+04  0.17300992996E+04  0.00000000000E+00 0. -1.
          1   -1    0    0  501    0 -0.00000000000E+00 -0.00000000000E+00 -0.39108706818E+03  0.39108706818E+03  0.00000000000E+00 0. -1.
         25    2    1    2    0    0 -0.84283010623E+02 -0.65303104102E+02  0.23754195187E+03  0.28882312520E+03  0.12499798986E+03 0.  0.
          2    1    1    2  501    0  0.78974122919E+02 -0.21938346921E+02 -0.35952808045E+03  0.36875282208E+03  0.00000000000E+00 0. -1.
          1    1    1    2  502    0  0.53088877041E+01  0.87241451023E+02  0.14609983600E+04  0.14636104205E+04  0.00000000000E+00 0. -1.
         22    1    3    3    0    0  0.76961999873E+01  0.27205492202E+02  0.18215981437E+02  0.33633202047E+02  0.00000000000E+00 0.  1.
         22    1    3    3    0    0 -0.91979210610E+02 -0.92508596304E+02  0.21932597043E+03  0.25518992315E+03  0.00000000000E+00 0.  1.
</event>
<event>
 7    1  0.4822463E-005  0.2159506E+03  0.7818608E-02  0.1159171E+00
          2   -1    0    0  502    0  0.00000000000E+00  0.00000000000E+00  0.15510829189E+04  0.15510829189E+04  0.00000000000E+00 0. -1.
          1   -1    0    0  501    0 -0.00000000000E+00 -0.00000000000E+00 -0.15497502893E+03  0.15497502893E+03  0.00000000000E+00 0. -1.
         25    2    1    2    0    0 -0.27206875589E+01  0.20440876292E+03  0.72920610602E+03  0.76756593410E+03  0.12500229456E+03 0.  0.
          2    1    1    2  501    0  0.16576615753E+03 -0.27690588738E+01 -0.52402457263E+02  0.17387381688E+03  0.00000000000E+00 0. -1.
          1    1    1    2  502    0 -0.16304546997E+03 -0.20163970405E+03  0.71930424117E+03  0.76461819681E+03  0.00000000000E+00 0. -1.
         22    1    3    3    0    0  0.64540715933E+01  0.17472058330E+03  0.70960429110E+03  0.73082637283E+03  0.00000000000E+00 0.  1.
         22    1    3    3    0    0 -0.91747591523E+01  0.29688179627E+02  0.19601814915E+02  0.36739561280E+02  0.00000000000E+00 0.  1.
</event>
<event>
 7    1  0.4822463E-005  0.7114173E+03  0.7818608E-02  0.1138635E+00
          2   -1    0    0  502    0  0.00000000000E+00  0.00000000000E+00  0.15382128797E+04  0.15382128797E+04  0.00000000000E+00 0. -1.
          1   -1    0    0  501    0 -0.00000000000E+00 -0.00000000000E+00 -0.21764971687E+04  0.21764971687E+04  0.00000000000E+00 0. -1.
         25    2    1    2    0    0 -0.61881134726E+03  0.27499742996E+03 -0.29499858852E+03  0.74913330419E+03  0.12500188092E+03 0.  0.
          2    1    1    2  501    0  0.64147153256E+03 -0.33508532211E+03 -0.15744080616E+04  0.17327806106E+04  0.00000000000E+00 0. -1.
          1    1    1    2  502    0 -0.22660185298E+02  0.60087892142E+02  0.12311223612E+04  0.12327961336E+04  0.00000000000E+00 0. -1.
         22    1    3    3    0    0 -0.21442078077E+03  0.47421526406E+02 -0.13753472516E+03  0.25911555920E+03  0.00000000000E+00 0. -1.
         22    1    3    3    0    0 -0.40439056649E+03  0.22757590356E+03 -0.15746386337E+03  0.49001774499E+03  0.00000000000E+00 0. -1.
</event>
<event>
 7    1  0.4822463E-005  0.1239786E+03  0.7818608E-02  0.1350580E+00
          2   -1    0    0  502    0  0.00000000000E+00  0.00000000000E+00  0.13054050404E+04  0.13054050404E+04  0.00000000000E+00 0. -1.
          1   -1    0    0  501    0 -0.00000000000E+00 -0.00000000000E+00 -0.30914487565E+03  0.30914487565E+03  0.00000000000E+00 0. -1.
         25    2    1    2    0    0 -0.13186323564E+03 -0.14062416922E+02 -0.24391499000E+03  0.30447498200E+03  0.12499931133E+03 0.  0.
          2    1    1    2  501    0  0.10957120423E+02  0.41411197063E+02 -0.17523660988E+02  0.46282009729E+02  0.00000000000E+00 0. -1.
          1    1    1    2  502    0  0.12090611522E+03 -0.27348780141E+02  0.12576988157E+04  0.12637929243E+04  0.00000000000E+00 0. -1.
         22    1    3    3    0    0 -0.20336177327E+02  0.49702697470E+02 -0.75686749607E+02  0.92803029639E+02  0.00000000000E+00 0. -1.
         22    1    3    3    0    0 -0.11152705832E+03 -0.63765114393E+02 -0.16822824039E+03  0.21167195236E+03  0.00000000000E+00 0. -1.
</event>
<event>
 7    1  0.4822463E-005  0.4382277E+03  0.7818608E-02  0.1211369E+00
          2   -1    0    0  502    0  0.00000000000E+00  0.00000000000E+00  0.15221266457E+04  0.15221266457E+04  0.00000000000E+00 0. -1.
          1   -1    0    0  501    0 -0.00000000000E+00 -0.00000000000E+00 -0.31065621487E+03  0.31065621487E+03  0.00000000000E+00 0. -1.
         25    2    1    2    0    0 -0.87185740843E+02 -0.45486963850E+03  0.64513149068E+03  0.80394597643E+03  0.12500700502E+03 0.  0.
          2    1    1    2  501    0  0.24191622785E+02  0.38733525737E+02 -0.17254801401E+03  0.17848904103E+03  0.00000000000E+00 0. -1.
          1    1    1    2  502    0  0.62994118058E+02  0.41613611276E+03  0.73888695412E+03  0.85034784308E+03  0.00000000000E+00 0. -1.
         22    1    3    3    0    0 -0.99625766987E+02 -0.21200690529E+03  0.35584520063E+03  0.42602585385E+03  0.00000000000E+00 0. -1.
         22    1    3    3    0    0  0.12440026144E+02 -0.24286273322E+03  0.28928629005E+03  0.37792012258E+03  0.00000000000E+00 0. -1.
</event>
<event>
 7    1  0.4822463E-005  0.3206434E+03  0.7818608E-02  0.1136884E+00
          2   -1    0    0  502    0  0.00000000000E+00  0.00000000000E+00  0.64618698367E+03  0.64618698367E+03  0.00000000000E+00 0. -1.
          1   -1    0    0  501    0 -0.00000000000E+00 -0.00000000000E+00 -0.62310200789E+03  0.62310200789E+03  0.00000000000E+00 0. -1.
         25    2    1    2    0    0 -0.27488084292E+03 -0.35452529242E+03 -0.22199500077E+03  0.51590139936E+03  0.12499925090E+03 0.  0.
          2    1    1    2  501    0  0.98220232333E+02  0.10739452858E+03 -0.17964903493E+03  0.23120245362E+03  0.00000000000E+00 0. -1.
          1    1    1    2  502    0  0.17666061059E+03  0.24713076385E+03  0.42472901148E+03  0.52218513859E+03  0.00000000000E+00 0. -1.
         22    1    3    3    0    0 -0.20044430894E+03 -0.32900067075E+03 -0.20061899409E+03  0.43435854214E+03  0.00000000000E+00 0. -1.
         22    1    3    3    0    0 -0.74436533984E+02 -0.25524621675E+02 -0.21376006683E+02  0.81542857228E+02  0.00000000000E+00 0. -1.
</event>
<event>
 7    1  0.4822463E-005  0.7679799E+03  0.7818608E-02  0.1138072E+00
          2   -1    0    0  502    0  0.00000000000E+00  0.00000000000E+00  0.30823637776E+04  0.30823637776E+04  0.00000000000E+00 0. -1.
          1   -1    0    0  501    0 -0.00000000000E+00 -0.00000000000E+00 -0.79719642647E+03  0.79719642647E+03  0.00000000000E+00 0. -1.
         25    2    1    2    0    0 -0.76325625453E+03  0.18095696904E+03  0.22730165988E+04  0.24078071668E+04  0.12500143678E+03 0.  0.
          2    1    1    2  501    0  0.56936183126E+02 -0.18595003360E+02 -0.55080720631E+03  0.55405422264E+03  0.00000000000E+00 0. -1.
          1    1    1    2  502    0  0.70632007140E+03 -0.16236196568E+03  0.56295795857E+03  0.91769881458E+03  0.00000000000E+00 0. -1.
         22    1    3    3    0    0 -0.49703137604E+03  0.90549059220E+02  0.12909551591E+04  0.13862916518E+04  0.00000000000E+00 0. -1.
         22    1    3    3    0    0 -0.26622487849E+03  0.90407909823E+02  0.98206143971E+03  0.10215155150E+04  0.00000000000E+00 0. -1.
</event>
<event>
 7    1  0.4822463E-005  0.1466367E+03  0.7818608E-02  0.1211440E+00
          2   -1    0    0  502    0  0.00000000000E+00  0.00000000000E+00  0.27144607494E+04  0.27144607494E+04  0.00000000000E+00 0. -1.
          1   -1    0    0  501    0 -0.00000000000E+00 -0.00000000000E+00 -0.19673483448E+03  0.19673483448E+03  0.00000000000E+00 0. -1.
         25    2    1    2    0    0  0.23168143867E+03  0.10540711360E+03  0.10001675832E+03  0.30069290857E+03  0.12500369875E+03 0.  0.
          2    1    1    2  501    0 -0.86868710252E+02 -0.10512887967E+03 -0.44947795323E+02  0.14359163787E+03  0.00000000000E+00 0. -1.
          1    1    1    2  502    0 -0.14481272842E+03 -0.27823392934E+00  0.24626569519E+04  0.24669110374E+04  0.00000000000E+00 0. -1.
         22    1    3    3    0    0  0.18034101971E+02  0.52278382359E+02 -0.72891855866E+01  0.55779837957E+02  0.00000000000E+00 0. -1.
         22    1    3    3    0    0  0.21364733670E+03  0.53128731243E+02  0.10730594390E+03  0.24491307061E+03  0.00000000000E+00 0. -1.
</event>
<event>
 7    1  0.4822463E-005  0.6956843E+03  0.7818608E-02  0.1181283E+00
          2   -1    0    0  502    0  0.00000000000E+00  0.00000000000E+00  0.16361739049E+04  0.16361739049E+04  0.00000000000E+00 0. -1.
          1   -1    0    0  501    0 -0.00000000000E+00 -0.00000000000E+00 -0.96951377361E+03  0.96951377361E+03  0.00000000000E+00 0. -1.
         25    2    1    2    0    0 -0.49997561393E+03  0.45786810244E+03  0.72102735442E+03  0.99755897775E+03  0.12499861805E+03 0.  0.
          2    1    1    2  501    0 -0.34808373853E+02  0.19641216650E+02 -0.66511228630E+03  0.66631205427E+03  0.00000000000E+00 0. -1.
          1    1    1    2  502    0  0.53478398778E+03 -0.47750931909E+03  0.61074506312E+03  0.94181664645E+03  0.00000000000E+00 0. -1.
         22    1    3    3    0    0 -0.38954287746E+03  0.30497075742E+03  0.46012455935E+03  0.67562225125E+03  0.00000000000E+00 0. -1.
         22    1    3    3    0    0 -0.11043273647E+03  0.15289734502E+03  0.26090279507E+03  0.32193672650E+03  0.00000000000E+00 0. -1.
</event>
<event>
 7    1  0.4822463E-005  0.6011565E+02  0.7818608E-02  0.1527823E+00
          2   -1    0    0  502    0  0.00000000000E+00  0.00000000000E+00  0.16296691577E+04  0.16296691577E+04  0.00000000000E+00 0. -1.
          1   -1    0    0  501    0 -0.00000000000E+00 -0.00000000000E+00 -0.22312800689E+03  0.22312800689E+03  0.00000000000E+00 0. -1.
         25    2    1    2    0    0  0.45322478612E+02  0.82157343999E+01  0.73913227863E+02  0.15234892163E+03  0.12500161323E+03 0.  0.
          2    1    1    2  501    0  0.14160470516E+02 -0.18548544359E+02 -0.18256630188E+03  0.18405168297E+03  0.00000000000E+00 0. -1.
          1    1    1    2  502    0 -0.59482949128E+02  0.10332809959E+02  0.15151942248E+04  0.15163965600E+04  0.00000000000E+00 0. -1.
         22    1    3    3    0    0 -0.17155382449E+02  0.38488237753E+02  0.71364406538E+02  0.82876595688E+02  0.00000000000E+00 0.  1.
         22    1    3    3    0    0  0.62477861061E+02 -0.30272503353E+02  0.25488213243E+01  0.69472325945E+02  0.00000000000E+00 0.  1.
</event>
<event>
 7    1  0.4822463E-005  0.1666721E+04  0.7818608E-02  0.1156410E+00
          2   -1    0    0  502    0  0.00000000000E+00  0.00000000000E+00  0.21109163098E+04  0.21109163098E+04  0.00000000000E+00 0. -1.
          1   -1    0    0  501    0 -0.00000000000E+00 -0.00000000000E+00 -0.14740232994E+04  0.14740232994E+04  0.00000000000E+00 0. -1.
         25    2    1    2    0    0  0.75070953803E+02  0.16695018475E+04  0.83589382432E+03  0.18727556585E+04  0.12499281654E+03 0.  0.
          2    1    1    2  501    0  0.17840929124E+02 -0.13186494731E+02 -0.39899738516E+02  0.45652727508E+02  0.00000000000E+00 0. -1.
          1    1    1    2  502    0 -0.92911882927E+02 -0.16563153528E+04 -0.15910107541E+03  0.16665312232E+04  0.00000000000E+00 0. -1.
         22    1    3    3    0    0  0.24485150776E+02  0.57652472714E+03  0.35575606566E+03  0.67789576032E+03  0.00000000000E+00 0. -1.
         22    1    3    3    0    0  0.50585803027E+02  0.10929771203E+04  0.48013775866E+03  0.11948598982E+04  0.00000000000E+00 0. -1.
</event>
<event>
 7    1  0.4822463E-005  0.2908632E+03  0.7818608E-02  0.1315204E+00
          2   -1    0    0  502    0  0.00000000000E+00  0.00000000000E+00  0.27172625173E+03  0.27172625173E+03  0.00000000000E+00 0. -1.
          1   -1    0    0  501    0 -0.00000000000E+00 -0.00000000000E+00 -0.56361129393E+03  0.56361129393E+03  0.00000000000E+00 0. -1.
         25    2    1    2    0    0  0.61933397581E+02 -0.30247720308E+03 -0.23310509423E+03  0.40656033414E+03  0.12500046490E+03 0.  0.
          2    1    1    2  501    0 -0.10915823847E+02  0.22369643735E+02 -0.13238214088E+03  0.13470184630E+03  0.00000000000E+00 0. -1.
          1    1    1    2  502    0 -0.51017573734E+02  0.28010755934E+03  0.73602192912E+02  0.29407536522E+03  0.00000000000E+00 0. -1.
         22    1    3    3    0    0 -0.10019391269E+02 -0.84427106244E+01 -0.52405121868E+02  0.54018185476E+02  0.00000000000E+00 0. -1.
         22    1    3    3    0    0  0.71952788851E+02 -0.29403449245E+03 -0.18069997236E+03  0.35254214866E+03  0.00000000000E+00 0. -1.
</event>
<event>
 7    1  0.4822463E-005  0.3299483E+03  0.7818608E-02  0.1081710E+00
          2   -1    0    0  502    0  0.00000000000E+00  0.00000000000E+00  0.23905266171E+04  0.23905266171E+04  0.00000000000E+00 0. -1.
          1   -1    0    0  501    0 -0.00000000000E+00 -0.00000000000E+00 -0.19464211200E+04  0.19464211200E+04  0.00000000000E+00 0. -1.
         25    2    1    2    0    0 -0.15462711490E+03 -0.36468520999E+03 -0.22295505971E+03  0.47142174548E+03  0.12499862566E+03 0.  0.
          2    1    1    2  501    0 -0.15321782457E+03  0.24145681321E+03 -0.15741520659E+04  0.15999161919E+04  0.00000000000E+00 0. -1.
          1    1    1    2  502    0  0.30784493947E+03  0.12322839677E+03  0.22412126227E+04  0.22656097997E+04  0.00000000000E+00 0. -1.
         22    1    3    3    0    0 -0.56017234597E+02 -0.22007028545E+03 -0.66421480275E+02  0.23660235450E+03  0.00000000000E+00 0.  1.
         22    1    3    3    0    0 -0.98609880307E+02 -0.14461492453E+03 -0.15653357944E+03  0.23481939099E+03  0.00000000000E+00 0.  1.
</event>
<event>
 7    1  0.4822463E-005  0.2301987E+03  0.7818608E-02  0.1176973E+00
          2   -1    0    0  502    0  0.00000000000E+00  0.00000000000E+00  0.27753287858E+04  0.27753287858E+04  0.00000000000E+00 0. -1.
          1   -1    0    0  501    0 -0.00000000000E+00 -0.00000000000E+00 -0.12000116367E+04  0.12000116367E+04  0.00000000000E+00 0. -1.
         25    2    1    2    0    0 -0.74425340158E+02 -0.12025000827E+03  0.16328618107E+04  0.16437339950E+04  0.12499823069E+03 0.  0.
          2    1    1    2  501    0  0.12008710308E+02  0.23061169561E+03 -0.11798123880E+04  0.12021993321E+04  0.00000000000E+00 0. -1.
          1    1    1    2  502    0  0.62416629850E+02 -0.11036168734E+03  0.11222677263E+04  0.11294070954E+04  0.00000000000E+00 0. -1.
         22    1    3    3    0    0 -0.52344657484E+02 -0.14568570453E+03  0.13724473538E+04  0.13811502549E+04  0.00000000000E+00 0.  1.
         22    1    3    3    0    0 -0.22080682674E+02  0.25435696256E+02  0.26041445693E+03  0.26258374011E+03  0.00000000000E+00 0.  1.
</event>
<event>
 7    1  0.4822463E-005  0.8245521E+02  0.7818608E-02  0.1333396E+00
          2   -1    0    0  502    0  0.00000000000E+00  0.00000000000E+00  0.27741098087E+04  0.27741098087E+04  0.00000000000E+00 0. -1.
          1   -1    0    0  501    0 -0.00000000000E+00 -0.00000000000E+00 -0.88405739682E+03  0.88405739682E+03  0.00000000000E+00 0. -1.
         25    2    1    2    0    0 -0.15281700765E+03  0.23255691458E+02  0.16781751346E+04  0.16899083492E+04  0.12499832564E+03 0.  0.
          2    1    1    2  501    0  0.82359416108E+02  0.15984879009E+01 -0.87497378573E+03  0.87884284960E+03  0.00000000000E+00 0. -1.
          1    1    1    2  502    0  0.70457591539E+02 -0.24854179359E+02  0.10868510631E+04  0.10894160067E+04  0.00000000000E+00 0. -1.
         22    1    3    3    0    0 -0.17220936473E+03  0.91163659684E+01  0.13722902243E+04  0.13830833790E+04  0.00000000000E+00 0.  1.
         22    1    3    3    0    0  0.19392357086E+02  0.14139325490E+02  0.30588491027E+03  0.30682497025E+03  0.00000000000E+00 0.  1.
</event>
<event>
 7    1  0.4822463E-005  0.3322295E+03  0.7818608E-02  0.1105860E+00
          2   -1    0    0  502    0  0.00000000000E+00  0.00000000000E+00  0.16384500459E+03  0.16384500459E+03  0.00000000000E+00 0. -1.
          1   -1    0    0  501    0 -0.00000000000E+00 -0.00000000000E+00 -0.16893802139E+04  0.16893802139E+04  0.00000000000E+00 0. -1.
         25    2    1    2    0    0  0.35315262998E+03  0.10378817847E+03 -0.93914207516E+03  0.10164154441E+04  0.12499500599E+03 0.  0.
          2    1    1    2  501    0 -0.32806167887E+02 -0.20423074881E+03 -0.40608134576E+03  0.45572854067E+03  0.00000000000E+00 0. -1.
          1    1    1    2  502    0 -0.32034646209E+03  0.10044257033E+03 -0.18031178843E+03  0.38108123380E+03  0.00000000000E+00 0. -1.
         22    1    3    3    0    0  0.33172268297E+03  0.65627871106E+02 -0.75707473957E+03  0.82916169543E+03  0.00000000000E+00 0.  1.
         22    1    3    3    0    0  0.21429947008E+02  0.38160307367E+02 -0.18206733559E+03  0.18725374863E+03  0.00000000000E+00 0.  1.
</event>
<event>
 7    1  0.4822463E-005  0.2378919E+03  0.7818608E-02  0.1243381E+00
          2   -1    0    0  502    0  0.00000000000E+00  0.00000000000E+00  0.52053318940E+03  0.52053318940E+03  0.00000000000E+00 0. -1.
          1   -1    0    0  501    0 -0.00000000000E+00 -0.00000000000E+00 -0.30616459901E+04  0.30616459901E+04  0.00000000000E+00 0. -1.
         25    2    1    2    0    0  0.45008243388E+02  0.28555265256E+03 -0.75458231499E+03  0.81767060812E+03  0.12499877575E+03 0.  0.
          2    1    1    2  501    0  0.17299134166E+02 -0.57826369922E+02 -0.22465922286E+04  0.22474028991E+04  0.00000000000E+00 0. -1.
          1    1    1    2  502    0 -0.62307377554E+02 -0.22772628264E+03  0.46006174287E+03  0.51710567233E+03  0.00000000000E+00 0. -1.
         22    1    3    3    0    0  0.73249095576E+02  0.84940115022E+02 -0.25530757450E+03  0.27885876486E+03  0.00000000000E+00 0. -1.
         22    1    3    3    0    0 -0.28240852188E+02  0.20061253754E+03 -0.49927474049E+03  0.53881184327E+03  0.00000000000E+00 0. -1.
</event>
<event>
 7    1  0.4822463E-005  0.2933842E+03  0.7818608E-02  0.1136152E+00
          2   -1    0    0  502    0  0.00000000000E+00  0.00000000000E+00  0.30070274406E+04  0.30070274406E+04  0.00000000000E+00 0. -1.
          1   -1    0    0  501    0 -0.00000000000E+00 -0.00000000000E+00 -0.13989754334E+04  0.13989754334E+04  0.00000000000E+00 0. -1.
         25    2    1    2    0    0  0.16712694328E+02  0.37069082829E+03  0.14923557065E+04  0.15428684915E+04  0.12500649144E+03 0.  0.
          2    1    1    2  501    0  0.93972880167E+02 -0.13008574274E+03 -0.13571807120E+04  0.13666355358E+04  0.00000000000E+00 0. -1.
          1    1    1    2  502    0 -0.11068557450E+03 -0.24060508555E+03  0.14728770127E+04  0.14964988467E+04  0.00000000000E+00 0. -1.
         22    1    3    3    0    0 -0.35943410194E+01  0.98405141078E+02  0.21242763039E+03  0.23414096017E+03  0.00000000000E+00 0.  1.
         22    1    3    3    0    0  0.20307035348E+02  0.27228568721E+03  0.12799280761E+04  0.13087275313E+04  0.00000000000E+00 0.  1.
</event>
<event>
 7    1  0.4822463E-005  0.3057316E+03  0.7818608E-02  0.1109557E+00
          2   -1    0    0  502    0  0.00000000000E+00  0.00000000000E+00  0.37680039667E+04  0.37680039667E+04  0.00000000000E+00 0. -1.
          1   -1    0    0  501    0 -0.00000000000E+00 -0.00000000000E+00 -0.10927789631E+03  0.10927789631E+03  0.00000000000E+00 0. -1.
         25    2    1    2    0    0 -0.11424015406E+03 -0.34183405934E+03  0.30176024359E+04  0.30416198057E+04  0.12500097669E+03 0.  0.
          2    1    1    2  501    0  0.17836750963E+03  0.11895365255E+03  0.80585100734E+02  0.22903907616E+03  0.00000000000E+00 0. -1.
          1    1    1    2  502    0 -0.64127355577E+02  0.22288040679E+03  0.56053853379E+03  0.60662298121E+03  0.00000000000E+00 0. -1.
         22    1    3    3    0    0 -0.95884580216E+02 -0.25301428358E+03  0.26132700261E+04  0.26272400556E+04  0.00000000000E+00 0.  1.
         22    1    3    3    0    0 -0.18355573842E+02 -0.88819775761E+02  0.40433240983E+03  0.41437975010E+03  0.00000000000E+00 0.  1.
</event>
<event>
 7    1  0.4822463E-005  0.5251585E+03  0.7818608E-02  0.1265923E+00
          2   -1    0    0  502    0  0.00000000000E+00  0.00000000000E+00  0.27417424277E+04  0.27417424277E+04  0.00000000000E+00 0. -1.
          1   -1    0    0  501    0 -0.00000000000E+00 -0.00000000000E+00 -0.18624066879E+03  0.18624066879E+03  0.00000000000E+00 0. -1.
         25    2    1    2    0    0 -0.54113418689E+03  0.15186132448E+02  0.22150861105E+04  0.22837006679E+04  0.12500174588E+03 0.  0.
          2    1    1    2  501    0  0.52115727574E+03 -0.24076511635E+02  0.33939370887E+03  0.62239270086E+03  0.00000000000E+00 0. -1.
          1    1    1    2  502    0  0.19976911152E+02  0.88903791872E+01  0.10219394970E+01  0.21889727765E+02  0.00000000000E+00 0. -1.
         22    1    3    3    0    0 -0.50533239265E+03  0.34492082331E+02  0.21299565931E+04  0.21893527855E+04  0.00000000000E+00 0.  1.
         22    1    3    3    0    0 -0.35801794234E+02 -0.19305949883E+02  0.85129517460E+02  0.94347882405E+02  0.00000000000E+00 0.  1.
</event>
<event>
 7    1  0.4822463E-005  0.1514137E+03  0.7818608E-02  0.1223293E+00
          2   -1    0    0  502    0  0.00000000000E+00  0.00000000000E+00  0.10492640808E+04  0.10492640808E+04  0.00000000000E+00 0. -1.
          1   -1    0    0  501    0 -0.00000000000E+00 -0.00000000000E+00 -0.29029469081E+03  0.29029469081E+03  0.00000000000E+00 0. -1.
         25    2    1    2    0    0  0.21092052344E+03  0.14229375312E+03  0.29995433817E+03  0.41271400358E+03  0.12500105753E+03 0.  0.
          2    1    1    2  501    0 -0.10066700770E+03 -0.10448714884E+03 -0.20584782115E+03  0.25184268142E+03  0.00000000000E+00 0. -1.
          1    1    1    2  502    0 -0.11025351573E+03 -0.37806604276E+02  0.66486287299E+03  0.67500208662E+03  0.00000000000E+00 0. -1.
         22    1    3    3    0    0  0.36077533262E+02  0.72623179948E+02  0.36477238500E+02  0.88917397626E+02  0.00000000000E+00 0. -1.
         22    1    3    3    0    0  0.17484299018E+03  0.69670573172E+02  0.26347709967E+03  0.32379660596E+03  0.00000000000E+00 0. -1.
</event>
<event>
 7    1  0.4822463E-005  0.3603001E+03  0.7818608E-02  0.1174932E+00
          2   -1    0    0  502    0  0.00000000000E+00  0.00000000000E+00  0.18855161374E+03  0.18855161374E+03  0.00000000000E+00 0. -1.
          1   -1    0    0  501    0 -0.00000000000E+00 -0.00000000000E+00 -0.14393504824E+04  0.14393504824E+04  0.00000000000E+00 0. -1.
         25    2    1    2    0    0 -0.32101059883E+03 -0.22912061130E+03 -0.95740226559E+03  0.10429710154E+04  0.12500152666E+03 0.  0.
          2    1    1    2  501    0  0.24491282518E+03  0.19623374302E+03 -0.36072500620E+03  0.47813439945E+03  0.00000000000E+00 0. -1.
          1    1    1    2  502    0  0.76097773648E+02  0.32886868286E+02  0.67328403169E+02  0.10679668128E+03  0.00000000000E+00 0. -1.
         22    1    3    3    0    0 -0.42485873450E+02 -0.45249114508E+02 -0.63491991687E+02  0.88790567150E+02  0.00000000000E+00 0.  1.
         22    1    3    3    0    0 -0.27852472538E+03 -0.18387149680E+03 -0.89391027390E+03  0.95418044822E+03  0.00000000000E+00 0.  1.
</event>
<event>
 7    1  0.4822463E-005  0.1797132E+04  0.7818608E-02  0.1107232E+00
          2   -1    0    0  502    0  0.00000000000E+00  0.00000000000E+00  0.29934513480E+04  0.29934513480E+04  0.00000000000E+00 0. -1.
          1   -1    0    0  501    0 -0.00000000000E+00 -0.00000000000E+00 -0.15556864202E+04  0.15556864202E+04  0.00000000000E+00 0. -1.
         25    2    1    2    0    0 -0.16963472899E+04  0.57728627181E+03  0.81500673206E+03  0.19724905314E+04  0.12501742045E+03 0.  0.
          2    1    1    2  501    0  0.17158666361E+04 -0.54518137645E+03 -0.14661732942E+03  0.18063548067E+04  0.00000000000E+00 0. -1.
          1    1    1    2  502    0 -0.19519346193E+02 -0.32104895360E+02  0.76937552516E+03  0.77029243012E+03  0.00000000000E+00 0. -1.
         22    1    3    3    0    0 -0.83316739568E+03  0.25213837752E+03  0.45610239141E+03  0.98273651713E+03  0.00000000000E+00 0. -1.
         22    1    3    3    0    0 -0.86317989427E+03  0.32514789429E+03  0.35890434064E+03  0.98975401427E+03  0.00000000000E+00 0. -1.
</event>
<event>
 7    1  0.4822463E-005  0.8799399E+03  0.7818608E-02  0.1100698E+00
          2   -1    0    0  502    0  0.00000000000E+00  0.00000000000E+00  0.30916427209E+04  0.30916427209E+04  0.00000000000E+00 0. -1.
          1   -1    0    0  501    0 -0.00000000000E+00 -0.00000000000E+00 -0.10191446769E+04  0.10191446769E+04  0.00000000000E+00 0. -1.
         25    2    1    2    0    0  0.49057245412E+03  0.78282117619E+03  0.13593242459E+04  0.16482893223E+04  0.12499983120E+03 0.  0.
          2    1    1    2  501    0 -0.17437514463E+02 -0.81630917323E+02 -0.75955604983E+03  0.76412895928E+03  0.00000000000E+00 0. -1.
          1    1    1    2  502    0 -0.47313493965E+03 -0.70119025886E+03  0.14727298479E+04  0.16983691163E+04  0.00000000000E+00 0. -1.
         22    1    3    3    0    0  0.53739832933E+02  0.68389170761E+02  0.73754072842E+02  0.11403820229E+03  0.00000000000E+00 0. -1.
         22    1    3    3    0    0  0.43683262119E+03  0.71443200543E+03  0.12855701731E+04  0.15342511200E+04  0.00000000000E+00 0. -1.
</event>
<event>
 7    1  0.4822463E-005  0.7719220E+03  0.7818608E-02  0.1148902E+00
          2   -1    0    0  502    0  0.00000000000E+00  0.00000000000E+00  0.21662417451E+04  0.21662417451E+04  0.00000000000E+00 0. -1.
          1   -1    0    0  501    0 -0.00000000000E+00 -0.00000000000E+00 -0.10338419930E+04  0.10338419930E+04  0.00000000000E+00 0. -1.
         25    2    1    2    0    0  0.73006218573E+03 -0.30940663444E+03 -0.11201448818E+03  0.81049051218E+03  0.12499745716E+03 0.  0.
          2    1    1    2  501    0 -0.71097122938E+03  0.26067713011E+03 -0.32159292738E+03  0.82271177584E+03  0.00000000000E+00 0. -1.
          1    1    1    2  502    0 -0.19090956351E+02  0.48729504334E+02  0.15660071677E+04  0.15668814500E+04  0.00000000000E+00 0. -1.
         22    1    3    3    0    0  0.42538773861E+03 -0.23125146812E+03 -0.28331418916E+02  0.48500993697E+03  0.00000000000E+00 0. -1.
         22    1    3    3    0    0  0.30467444712E+03 -0.78155166320E+02 -0.83683069268E+02  0.32548057520E+03  0.00000000000E+00 0. -1.
</event>
<event>
 7    1  0.4822463E-005  0.3206952E+03  0.7818608E-02  0.1215468E+00
          2   -1    0    0  502    0  0.00000000000E+00  0.00000000000E+00  0.12249408493E+04  0.12249408493E+04  0.00000000000E+00 0. -1.
          1   -1    0    0  501    0 -0.00000000000E+00 -0.00000000000E+00 -0.16143531892E+03  0.16143531892E+03  0.00000000000E+00 0. -1.
         25    2    1    2    0    0  0.30275384613E+03  0.46030337612E+01  0.61498900242E+03  0.69679101374E+03  0.12500065782E+03 0.  0.
          2    1    1    2  501    0  0.40802240188E+02 -0.43645241215E+02 -0.53376160913E+02  0.80117067089E+02  0.00000000000E+00 0. -1.
          1    1    1    2  502    0 -0.34355608632E+03  0.39042207454E+02  0.50189268887E+03  0.60946808739E+03  0.00000000000E+00 0. -1.
         22    1    3    3    0    0 -0.11163046565E+01  0.22378447338E+02  0.55660238147E+02  0.60000859593E+02  0.00000000000E+00 0. -1.
         22    1    3    3    0    0  0.30387015079E+03 -0.17775413577E+02  0.55932876427E+03  0.63679015414E+03  0.00000000000E+00 0. -1.
</event>
<event>
 7    1  0.4822463E-005  0.2299503E+03  0.7818608E-02  0.1167356E+00
          2   -1    0    0  502    0  0.00000000000E+00  0.00000000000E+00  0.44667073886E+03  0.44667073886E+03  0.00000000000E+00 0. -1.
          1   -1    0    0  501    0 -0.00000000000E+00 -0.00000000000E+00 -0.25887147976E+04  0.25887147976E+04  0.00000000000E+00 0. -1.
         25    2    1    2    0    0  0.27966434739E+03 -0.31467423043E+02 -0.74658293698E+03  0.80759702555E+03  0.12499811189E+03 0.  0.
          2    1    1    2  501    0 -0.69561574195E+02  0.12336496300E+03 -0.17770009714E+04  0.17826357393E+04  0.00000000000E+00 0. -1.
          1    1    1    2  502    0 -0.21010277319E+03 -0.91897539960E+02  0.38153984967E+03  0.44515277157E+03  0.00000000000E+00 0. -1.
         22    1    3    3    0    0  0.10561656211E+03 -0.21179328908E+02 -0.14114040860E+03  0.17755009745E+03  0.00000000000E+00 0. -1.
         22    1    3    3    0    0  0.17404778528E+03 -0.10288094135E+02 -0.60544252838E+03  0.63004692810E+03  0.00000000000E+00 0. -1.
</event>
<event>
 7    1  0.4822463E-005  0.8255615E+03  0.7818608E-02  0.1118658E+00
          2   -1    0    0  502    0  0.00000000000E+00  0.00000000000E+00  0.19694231954E+04  0.19694231954E+04  0.00000000000E+00 0. -1.
          1   -1    0    0  501    0 -0.00000000000E+00 -0.00000000000E+00 -0.20422804142E+04  0.20422804142E+04  0.00000000000E+00 0. -1.
         25    2    1    2    0    0 -0.50828140774E+03 -0.66966242699E+03  0.27564214331E+03  0.89353311779E+03  0.12500034338E+03 0.  0.
          2    1    1    2  501    0 -0.39352195724E+02  0.58819270005E+02 -0.16109895653E+04  0.16125432340E+04  0.00000000000E+00 0. -1.
          1    1    1    2  502    0  0.54763360346E+03  0.61084315699E+03  0.12624902033E+04  0.15056272578E+04  0.00000000000E+00 0. -1.
         22    1    3    3    0    0 -0.19811652290E+03 -0.35640976943E+03  0.15766136059E+03  0.43719010169E+03  0.00000000000E+00 0.  1.
         22    1    3    3    0    0 -0.31016488484E+03 -0.31325265756E+03  0.11798078272E+03  0.45634301610E+03  0.00000000000E+00 0.  1.
</event>
<event>
 7    1  0.4822463E-005  0.3816068E+03  0.7818608E-02  0.1112599E+00
          2   -1    0    0  502    0  0.00000000000E+00  0.00000000000E+00  0.23491236168E+04  0.23491236168E+04  0.00000000000E+00 0. -1.
          1   -1    0    0  501    0 -0.00000000000E+00 -0.00000000000E+00 -0.55447205005E+03  0.55447205005E+03  0.00000000000E+00 0. -1.
         25    2    1    2    0    0  0.20059530871E+03  0.38095411283E+03 -0.35445533891E+03  0.57151058526E+03  0.12498499042E+03 0.  0.
          2    1    1    2  501    0 -0.74929947189E+02 -0.27363843365E+03  0.14032598994E+03  0.31651836093E+03  0.00000000000E+00 0. -1.
          1    1    1    2  502    0 -0.12566536152E+03 -0.10731567918E+03  0.20087809157E+04  0.20155667207E+04  0.00000000000E+00 0. -1.
         22    1    3    3    0    0  0.12843999072E+03  0.17455951091E+03 -0.10830462439E+03  0.24227617656E+03  0.00000000000E+00 0. -1.
         22    1    3    3    0    0  0.72155317984E+02  0.20639460192E+03 -0.24615071451E+03  0.32923440870E+03  0.00000000000E+00 0. -1.
</event>
<event>
 7    1  0.4822463E-005  0.1182808E+03  0.7818608E-02  0.1297175E+00
          2   -1    0    0  502    0  0.00000000000E+00  0.00000000000E+00  0.81162354381E+02  0.81162354381E+02  0.00000000000E+00 0. -1.
          1   -1    0    0  501    0 -0.00000000000E+00 -0.00000000000E+00 -0.93242392755E+03  0.93242392755E+03  0.00000000000E+00 0. -1.
         25    2    1    2    0    0 -0.26933496063E+01  0.17351164266E+03 -0.20808580307E+03  0.29839261151E+03  0.12499961956E+03 0.  0.
          2    1    1    2  501    0  0.60962624981E+01 -0.71901937759E+02 -0.60068682211E+03  0.60500554652E+03  0.00000000000E+00 0. -1.
          1    1    1    2  502    0 -0.34029128917E+01 -0.10160970491E+03 -0.42488947995E+02  0.11018812390E+03  0.00000000000E+00 0. -1.
         22    1    3    3    0    0  0.24259016363E+02  0.18263574830E+03 -0.16873430752E+03  0.24983110888E+03  0.00000000000E+00 0. -1.
         22    1    3    3    0    0 -0.26952365969E+02 -0.91241056369E+01 -0.39351495548E+02  0.48561502622E+02  0.00000000000E+00 0. -1.
</event>
<event>
 7    1  0.4822463E-005  0.3488911E+03  0.7818608E-02  0.1155026E+00
          2   -1    0    0  502    0  0.00000000000E+00  0.00000000000E+00  0.13194541327E+04  0.13194541327E+04  0.00000000000E+00 0. -1.
          1   -1    0    0  501    0 -0.00000000000E+00 -0.00000000000E+00 -0.31409539145E+04  0.31409539145E+04  0.00000000000E+00 0. -1.
         25    2    1    2    0    0  0.27079699887E+03  0.10049661776E+03 -0.50637397828E+03  0.59621298822E+03  0.12499894662E+03 0.  0.
          2    1    1    2  501    0  0.80054831714E+02 -0.72069987248E+02 -0.25642041302E+04  0.25664656009E+04  0.00000000000E+00 0. -1.
          1    1    1    2  502    0 -0.35085183059E+03 -0.28426630515E+02  0.12490783267E+04  0.12977294582E+04  0.00000000000E+00 0. -1.
         22    1    3    3    0    0  0.15903297943E+03  0.33268630601E+02 -0.38570210833E+03  0.41852647072E+03  0.00000000000E+00 0. -1.
         22    1    3    3    0    0  0.11176401944E+03  0.67227987162E+02 -0.12067186996E+03  0.17768651749E+03  0.00000000000E+00 0. -1.
</event>
<event>
 7    1  0.4822463E-005  0.1751528E+03  0.7818608E-02  0.1337526E+00
          2   -1    0    0  502    0  0.00000000000E+00  0.00000000000E+00  0.10638240524E+03  0.10638240524E+03  0.00000000000E+00 0. -1.
          1   -1    0    0  501    0 -0.00000000000E+00 -0.00000000000E+00 -0.49142676379E+03  0.49142676379E+03  0.00000000000E+00 0. -1.
         25    2    1    2    0    0 -0.87261554941E+02  0.16631318231E+03 -0.10739512251E+03  0.24986689590E+03  0.12500039897E+03 0.  0.
          2    1    1    2  501    0  0.30438718548E+02 -0.14984915173E+02 -0.10976282485E+03  0.11488664408E+03  0.00000000000E+00 0. -1.
          1    1    1    2  502    0  0.56822836393E+02 -0.15132826714E+03 -0.16788641119E+03  0.23305562905E+03  0.00000000000E+00 0. -1.
         22    1    3    3    0    0 -0.21836630824E+02  0.89640057072E+02  0.12643316287E+02  0.93123744149E+02  0.00000000000E+00 0. -1.
         22    1    3    3    0    0 -0.65424924117E+02  0.76673125242E+02 -0.12003843880E+03  0.15674315175E+03  0.00000000000E+00 0. -1.
</event>
<event>
 7    1  0.4822463E-005  0.5623147E+03  0.7818608E-02  0.1130768E+00
          2   -1    0    0  502    0  0.00000000000E+00  0.00000000000E+00  0.34802154611E+04  0.34802154611E+04  0.00000000000E+00 0. -1.
          1   -1    0    0  501    0 -0.00000000000E+00 -0.00000000000E+00 -0.65835164922E+03  0.65835164922E+03  0.00000000000E+00 0. -1.
         25    2    1    2    0    0  0.90185380577E+02 -0.55731339366E+03  0.13693359578E+04  0.14864178883E+04  0.12500220756E+03 0.  0.
          2    1    1    2  501    0 -0.89190049440E+02 -0.63390092351E+01 -0.55748043870E+03  0.56460560349E+03  0.00000000000E+00 0. -1.
          1    1    1    2  502    0 -0.99533113725E+00  0.56365240289E+03  0.20100082928E+04  0.20875436185E+04  0.00000000000E+00 0. -1.
         22    1    3    3    0    0 -0.13679701681E+02 -0.92771905329E+02  0.14370139070E+03  0.17159210455E+03  0.00000000000E+00 0. -1.
         22    1    3    3    0    0  0.10386508226E+03 -0.46454148833E+03  0.12256345671E+04  0.13148257838E+04  0.00000000000E+00 0. -1.
</event>
<event>
 7    1  0.4822463E-005  0.1713866E+03  0.7818608E-02  0.1282616E+00
          2   -1    0    0  502    0  0.00000000000E+00  0.00000000000E+00  0.27734888865E+03  0.27734888865E+03  0.00000000000E+00 0. -1.
          1   -1    0    0  501    0 -0.00000000000E+00 -0.00000000000E+00 -0.22047859211E+03  0.22047859211E+03  0.00000000000E+00 0. -1.
         25    2    1    2    0    0 -0.77767002726E+02  0.17396338088E+03 -0.93219018443E+02  0.24622441786E+03  0.12500285578E+03 0.  0.
          2    1    1    2  501    0  0.33924253399E+02 -0.13741857228E+03  0.85305190495E+02  0.16526250180E+03  0.00000000000E+00 0. -1.
          1    1    1    2  502    0  0.43842749327E+02 -0.36544808594E+02  0.64784124493E+02  0.86340561094E+02  0.00000000000E+00 0. -1.
         22    1    3    3    0    0  0.23584395823E+02  0.36577326453E+02 -0.56973078337E+02  0.71694185203E+02  0.00000000000E+00 0. -1.
         22    1    3    3    0    0 -0.10135139855E+03  0.13738605443E+03 -0.36245940106E+02  0.17453023266E+03  0.00000000000E+00 0. -1.
</event>
<event>
 7    1  0.4822463E-005  0.1478856E+03  0.7818608E-02  0.1282408E+00
          2   -1    0    0  502    0  0.00000000000E+00  0.00000000000E+00  0.11773366947E+03  0.11773366947E+03  0.00000000000E+00 0. -1.
          1   -1    0    0  501    0 -0.00000000000E+00 -0.00000000000E+00 -0.13275741823E+04  0.13275741823E+04  0.00000000000E+00 0. -1.
         25    2    1    2    0    0 -0.15191877794E+03 -0.74137378298E+02 -0.68035104308E+03  0.71209426284E+03  0.12500012563E+03 0.  0.
          2    1    1    2  501    0  0.49468495613E+01  0.66092319792E+02 -0.57526314981E+03  0.57906852581E+03  0.00000000000E+00 0. -1.
          1    1    1    2  502    0  0.14697192838E+03  0.80450585059E+01  0.45773680045E+02  0.15414506312E+03  0.00000000000E+00 0. -1.
         22    1    3    3    0    0 -0.62558908332E+02  0.69068960904E+01 -0.91782015714E+02  0.11128908587E+03  0.00000000000E+00 0.  1.
         22    1    3    3    0    0 -0.89359869611E+02 -0.81044274389E+02 -0.58856902736E+03  0.60080517697E+03  0.00000000000E+00 0.  1.
</event>
<event>
 7    1  0.4822463E-005  0.1094671E+03  0.7818608E-02  0.1324796E+00
          2   -1    0    0  502    0  0.00000000000E+00  0.00000000000E+00  0.11490435721E+04  0.11490435721E+04  0.00000000000E+00 0. -1.
          1   -1    0    0  501    0 -0.00000000000E+00 -0.00000000000E+00 -0.28374227298E+02  0.28374227298E+02  0.00000000000E+00 0. -1.
         25    2    1    2    0    0  0.13309840854E+03 -0.48163556445E+02  0.50758438163E+03  0.54157328000E+03  0.12499919445E+03 0.  0.
          2    1    1    2  501    0 -0.31766069668E+02  0.51731391119E+02  0.15059466742E+03  0.16236986748E+03  0.00000000000E+00 0. -1.
          1    1    1    2  502    0 -0.10133233887E+03 -0.35678346739E+01  0.46249029577E+03  0.47347465194E+03  0.00000000000E+00 0. -1.
         22    1    3    3    0    0  0.13357821566E+02  0.30667238873E+02  0.38156778770E+02  0.50742986738E+02  0.00000000000E+00 0. -1.
         22    1    3    3    0    0  0.11974058697E+03 -0.78830795318E+02  0.46942760286E+03  0.49083029326E+03  0.00000000000E+00 0. -1.
</event>
<event>
 7    1  0.4822463E-005  0.5917566E+03  0.7818608E-02  0.1095098E+00
          2   -1    0    0  502    0  0.00000000000E+00  0.00000000000E+00  0.23522829667E+04  0.23522829667E+04  0.00000000000E+00 0. -1.
          1   -1    0    0  501    0 -0.00000000000E+00 -0.00000000000E+00 -0.69867694336E+03  0.69867694336E+03  0.00000000000E+00 0. -1.
         25    2    1    2    0    0 -0.47262248341E+03 -0.53610423643E+03 -0.26207423798E+03  0.77141799225E+03  0.12499219342E+03 0.  0.
          2    1    1    2  501    0  0.77677800034E+02  0.10859418328E+03 -0.10931927804E+03  0.17256083511E+03  0.00000000000E+00 0. -1.
          1    1    1    2  502    0  0.39494468338E+03  0.42751005314E+03  0.20249995394E+04  0.21069810827E+04  0.00000000000E+00 0. -1.
         22    1    3    3    0    0 -0.45030606107E+03 -0.48809132085E+03 -0.27185741469E+03  0.71757587756E+03  0.00000000000E+00 0. -1.
         22    1    3    3    0    0 -0.22316422341E+02 -0.48012915578E+02  0.97831767130E+01  0.53842114697E+02  0.00000000000E+00 0. -1.
</event>
<event>
 7    1  0.4822463E-005  0.6882650E+03  0.7818608E-02  0.1198252E+00
          2   -1    0    0  502    0  0.00000000000E+00  0.00000000000E+00  0.12964662442E+04  0.12964662442E+04  0.00000000000E+00 0. -1.
          1   -1    0    0  501    0 -0.00000000000E+00 -0.00000000000E+00 -0.16635030355E+04  0.16635030355E+04  0.00000000000E+00 0. -1.
         25    2    1    2    0    0  0.21123398548E+02 -0.68526654753E+03  0.96303875386E+03  0.11887405407E+04  0.12499596986E+03 0.  0.
          2    1    1    2  501    0 -0.29019862020E+02 -0.16715997101E+02 -0.99106855825E+03  0.99163423907E+03  0.00000000000E+00 0. -1.
          1    1    1    2  502    0  0.78964634718E+01  0.70198254463E+03 -0.33900698700E+03  0.77959449995E+03  0.00000000000E+00 0. -1.
         22    1    3    3    0    0 -0.18897382068E+02 -0.51706189389E+03  0.78817162763E+03  0.94282799479E+03  0.00000000000E+00 0. -1.
         22    1    3    3    0    0  0.40020780616E+02 -0.16820465365E+03  0.17486712623E+03  0.24591254589E+03  0.00000000000E+00 0. -1.
</event>
<event>
 7    1  0.4822463E-005  0.1316617E+04  0.7818608E-02  0.1057596E+00
          2   -1    0    0  502    0  0.00000000000E+00  0.00000000000E+00  0.28330405199E+04  0.28330405199E+04  0.00000000000E+00 0. -1.
          1   -1    0    0  501    0 -0.00000000000E+00 -0.00000000000E+00 -0.18409099183E+04  0.18409099183E+04  0.00000000000E+00 0. -1.
         25    2    1    2    0    0  0.10060489674E+04  0.87315798135E+03 -0.77988445374E+02  0.13402411632E+04  0.12499917085E+03 0.  0.
          2    1    1    2  501    0 -0.92267755955E+03 -0.92803174742E+03 -0.75168424507E+03  0.15091739487E+04  0.00000000000E+00 0. -1.
          1    1    1    2  502    0 -0.83371407853E+02  0.54873766067E+02  0.18218032921E+04  0.18245353263E+04  0.00000000000E+00 0. -1.
         22    1    3    3    0    0  0.56042866507E+03  0.41151390671E+03 -0.14030412514E+02  0.69542852726E+03  0.00000000000E+00 0. -1.
         22    1    3    3    0    0  0.44562030233E+03  0.46164407465E+03 -0.63958032860E+02  0.64481263594E+03  0.00000000000E+00 0. -1.
</event>
<event>
 7    1  0.4822463E-005  0.3749897E+03  0.7818608E-02  0.1173914E+00
          2   -1    0    0  502    0  0.00000000000E+00  0.00000000000E+00  0.12138237884E+04  0.12138237884E+04  0.00000000000E+00 0. -1.
          1   -1    0    0  501    0 -0.00000000000E+00 -0.00000000000E+00 -0.26659107919E+04  0.26659107919E+04  0.00000000000E+00 0. -1.
         25    2    1    2    0    0  0.27465898319E+03  0.34068396517E+03 -0.32772964385E+03  0.56083382892E+03  0.12499897213E+03 0.  0.
          2    1    1    2  501    0 -0.75589895656E+02 -0.27910609975E+02 -0.21895491944E+04  0.21910313803E+04  0.00000000000E+00 0. -1.
          1    1    1    2  502    0 -0.19906908753E+03 -0.31277335519E+03  0.10651918348E+04  0.11278693711E+04  0.00000000000E+00 0. -1.
         22    1    3    3    0    0  0.23723864741E+03  0.20419941171E+03 -0.23858366071E+03  0.39357558197E+03  0.00000000000E+00 0.  1.
         22    1    3    3    0    0  0.37420335782E+02  0.13648455346E+03 -0.89145983138E+02  0.16725824695E+03  0.00000000000E+00 0.  1.
</event>
<event>
 7    1  0.4822463E-005  0.2895892E+03  0.7818608E-02  0.1175963E+00
          2   -1    0    0  502    0  0.00000000000E+00  0.00000000000E+00  0.41421475615E+03  0.41421475615E+03  0.00000000000E+00 0. -1.
          1   -1    0    0  501    0 -0.00000000000E+00 -0.00000000000E+00 -0.28194267835E+04  0.28194267835E+04  0.00000000000E+00 0. -1.
         25    2    1    2    0    0 -0.23172041156E+03 -0.14409753434E+03  0.10174524916E+03  0.31691675751E+03  0.12500274769E+03 0.  0.
          2    1    1    2  501    0 -0.75543450018E+02  0.68454287381E+02 -0.25880534178E+04  0.25900604811E+04  0.00000000000E+00 0. -1.
          1    1    1    2  502    0  0.30726386158E+03  0.75643246956E+02  0.81096141301E+02  0.32666430105E+03  0.00000000000E+00 0. -1.
         22    1    3    3    0    0  0.11873830541E+02 -0.27429983907E+02  0.70892994009E+01  0.30718887266E+02  0.00000000000E+00 0.  1.
         22    1    3    3    0    0 -0.24359424210E+03 -0.11666755043E+03  0.94655949756E+02  0.28619787025E+03  0.00000000000E+00 0.  1.
</event>
<event>
 7    1  0.4822463E-005  0.2261774E+03  0.7818608E-02  0.1205142E+00
          2   -1    0    0  502    0  0.00000000000E+00  0.00000000000E+00  0.19065542892E+04  0.19065542892E+04  0.00000000000E+00 0. -1.
          1   -1    0    0  501    0 -0.00000000000E+00 -0.00000000000E+00 -0.13612115621E+04  0.13612115621E+04  0.00000000000E+00 0. -1.
         25    2    1    2    0    0  0.51018864661E+02 -0.26363857549E+03  0.60779537497E+03  0.67612734278E+03  0.12499897113E+03 0.  0.
          2    1    1    2  501    0 -0.81381144673E+02  0.48200567084E+02 -0.13159778243E+04  0.13193725098E+04  0.00000000000E+00 0. -1.
          1    1    1    2  502    0  0.30362280012E+02  0.21543800840E+03  0.12535251765E+04  0.12722659987E+04  0.00000000000E+00 0. -1.
         22    1    3    3    0    0  0.37830535875E+02 -0.11041172309E+03  0.40578675199E+03  0.42223783124E+03  0.00000000000E+00 0. -1.
         22    1    3    3    0    0  0.13188328786E+02 -0.15322685239E+03  0.20200862297E+03  0.25388951153E+03  0.00000000000E+00 0. -1.
</event>
<event>
 7    1  0.4822463E-005  0.3601218E+03  0.7818608E-02  0.1069700E+00
          2   -1    0    0  502    0  0.00000000000E+00  0.00000000000E+00  0.47527303935E+03  0.47527303935E+03  0.00000000000E+00 0. -1.
          1   -1    0    0  501    0 -0.00000000000E+00 -0.00000000000E+00 -0.11350692724E+04  0.11350692724E+04  0.00000000000E+00 0. -1.
         25    2    1    2    0    0 -0.46417848715E+03 -0.23025878052E+03 -0.24368851449E+02  0.53357254794E+03  0.12500019624E+03 0.  0.
          2    1    1    2  501    0  0.30626407199E+03 -0.36373470384E+02 -0.69576989680E+03  0.76106271780E+03  0.00000000000E+00 0. -1.
          1    1    1    2  502    0  0.15791441516E+03  0.26663225090E+03  0.60342515225E+02  0.31570704598E+03  0.00000000000E+00 0. -1.
         22    1    3    3    0    0 -0.32852610764E+03 -0.13594227481E+03  0.36696391652E+02  0.35743017590E+03  0.00000000000E+00 0.  1.
         22    1    3    3    0    0 -0.13565237951E+03 -0.94316505705E+02 -0.61065243101E+02  0.17614237204E+03  0.00000000000E+00 0.  1.
</event>
<event>
 7    1  0.4822463E-005  0.2432566E+03  0.7818608E-02  0.1263613E+00
          2   -1    0    0  502    0  0.00000000000E+00  0.00000000000E+00  0.68382180645E+03  0.68382180645E+03  0.00000000000E+00 0. -1.
          1   -1    0    0  501    0 -0.00000000000E+00 -0.00000000000E+00 -0.16699671587E+03  0.16699671587E+03  0.00000000000E+00 0. -1.
         25    2    1    2    0    0  0.95656629648E+02  0.25591861762E+03  0.26761840466E+03  0.40235182085E+03  0.12499139006E+03 0.  0.
          2    1    1    2  501    0 -0.60035135969E+02 -0.22332781898E+03  0.41159412936E+02  0.23489067575E+03  0.00000000000E+00 0. -1.
          1    1    1    2  502    0 -0.35621493678E+02 -0.32590798636E+02  0.20804727298E+03  0.21357602572E+03  0.00000000000E+00 0. -1.
         22    1    3    3    0    0  0.60278946701E+02  0.12892308569E+03  0.22032680618E+03  0.26229490075E+03  0.00000000000E+00 0. -1.
         22    1    3    3    0    0  0.35377682947E+02  0.12699553193E+03  0.47291598481E+02  0.14005692010E+03  0.00000000000E+00 0. -1.
</event>
<event>
 7    1  0.4822463E-005  0.1519356E+03  0.7818608E-02  0.1235736E+00
          2   -1    0    0  502    0  0.00000000000E+00  0.00000000000E+00  0.70374712446E+03  0.70374712446E+03  0.00000000000E+00 0. -1.
          1   -1    0    0  501    0 -0.00000000000E+00 -0.00000000000E+00 -0.53204209007E+03  0.53204209007E+03  0.00000000000E+00 0. -1.
         25    2    1    2    0    0  0.81179243707E+02 -0.50344683615E+01  0.46641859609E+03  0.48967983951E+03  0.12499849185E+03 0.  0.
          2    1    1    2  501    0 -0.11642188907E+03  0.10090264450E+03 -0.49654930596E+03  0.51990058008E+03  0.00000000000E+00 0. -1.
          1    1    1    2  502    0  0.35242645367E+02 -0.95868176134E+02  0.20183574426E+03  0.22620879494E+03  0.00000000000E+00 0. -1.
         22    1    3    3    0    0  0.11138183577E+03  0.15284252662E+02  0.36529819619E+03  0.38220713476E+03  0.00000000000E+00 0.  1.
         22    1    3    3    0    0 -0.30202592064E+02 -0.20318721023E+02  0.10112039990E+03  0.10747270475E+03  0.00000000000E+00 0.  1.
</event>
<event>
 7    1  0.4822463E-005  0.4349925E+03  0.7818608E-02  0.1182496E+00
          2   -1    0    0  502    0  0.00000000000E+00  0.00000000000E+00  0.92459774109E+03  0.92459774109E+03  0.00000000000E+00 0. -1.
          1   -1    0    0  501    0 -0.00000000000E+00 -0.00000000000E+00 -0.54245784240E+03  0.54245784240E+03  0.00000000000E+00 0. -1.
         25    2    1    2    0    0  0.32449413097E+03  0.26458921052E+03 -0.25235897581E+03  0.50459269834E+03  0.12499938874E+03 0.  0.
          2    1    1    2  501    0 -0.37794964969E+03 -0.29803655540E+03  0.19640228898E+03  0.51985150300E+03  0.00000000000E+00 0. -1.
          1    1    1    2  502    0  0.53455518713E+02  0.33447344879E+02  0.43809658552E+03  0.44261138215E+03  0.00000000000E+00 0. -1.
         22    1    3    3    0    0  0.30827558013E+03  0.20998299925E+03 -0.18493371951E+03  0.41632580257E+03  0.00000000000E+00 0. -1.
         22    1    3    3    0    0  0.16218550847E+02  0.54606211266E+02 -0.67425256303E+02  0.88266895765E+02  0.00000000000E+00 0. -1.
</event>
<event>
 7    1  0.4822463E-005  0.4333354E+03  0.7818608E-02  0.1230030E+00
          2   -1    0    0  502    0  0.00000000000E+00  0.00000000000E+00  0.19587024483E+04  0.19587024483E+04  0.00000000000E+00 0. -1.
          1   -1    0    0  501    0 -0.00000000000E+00 -0.00000000000E+00 -0.64269916826E+03  0.64269916826E+03  0.00000000000E+00 0. -1.
         25    2    1    2    0    0 -0.23810463182E+03  0.37761491440E+03 -0.33834612468E+03  0.57392464542E+03  0.12499823703E+03 0.  0.
          2    1    1    2  501    0  0.21924244007E+03 -0.34465585612E+03  0.37516307462E+02  0.41019797660E+03  0.00000000000E+00 0. -1.
          1    1    1    2  502    0  0.18862191745E+02 -0.32959058282E+02  0.16168330973E+04  0.16172789946E+04  0.00000000000E+00 0. -1.
         22    1    3    3    0    0 -0.56675742739E+02  0.57608739855E+02 -0.11100095929E+02  0.81572782546E+02  0.00000000000E+00 0.  1.
         22    1    3    3    0    0 -0.18142888908E+03  0.32000617454E+03 -0.32724602875E+03  0.49235186287E+03  0.00000000000E+00 0.  1.
</event>
<event>
 7    1  0.4822463E-005  0.3306558E+03  0.7818608E-02  0.1122597E+00
          2   -1    0    0  502    0  0.00000000000E+00  0.00000000000E+00  0.13700323173E+04  0.13700323173E+04  0.00000000000E+00 0. -1.
          1   -1    0    0  501    0 -0.00000000000E+00 -0.00000000000E+00 -0.25815754418E+03  0.25815754418E+03  0.00000000000E+00 0. -1.
         25    2    1    2    0    0  0.30504929552E+03 -0.13869565850E+03  0.31526902812E+03  0.47677171738E+03  0.12500060806E+03 0.  0.
          2    1    1    2  501    0 -0.34056022262E+03 -0.25723924150E+02  0.44079616776E+01  0.34155880260E+03  0.00000000000E+00 0. -1.
          1    1    1    2  502    0  0.35510927101E+02  0.16441958265E+03  0.79219778330E+03  0.80985934147E+03  0.00000000000E+00 0. -1.
         22    1    3    3    0    0  0.14780276468E+03 -0.89624057173E+01  0.17540268528E+03  0.22954756363E+03  0.00000000000E+00 0.  1.
         22    1    3    3    0    0  0.15724653084E+03 -0.12973325278E+03  0.13986634284E+03  0.24722415375E+03  0.00000000000E+00 0.  1.
</event>
<event>
 7    1  0.4822463E-005  0.3763514E+03  0.7818608E-02  0.1244035E+00
          2   -1    0    0  502    0  0.00000000000E+00  0.00000000000E+00  0.11923949357E+04  0.11923949357E+04  0.00000000000E+00 0. -1.
          1   -1    0    0  501    0 -0.00000000000E+00 -0.00000000000E+00 -0.13241722973E+04  0.13241722973E+04  0.00000000000E+00 0. -1.
         25    2    1    2    0    0  0.16302861563E+03  0.35276255177E+03 -0.17276473194E+03  0.44327352035E+03  0.12499605514E+03 0.  0.
          2    1    1    2  501    0 -0.12513504468E+03 -0.35198125925E+03 -0.98145736171E+03  0.10501467227E+04  0.00000000000E+00 0. -1.
          1    1    1    2  502    0 -0.37893570948E+02 -0.78129252004E+00  0.10224447320E+04  0.10231469900E+04  0.00000000000E+00 0. -1.
         22    1    3    3    0    0  0.12132187232E+03  0.25126075753E+03 -0.58958820381E+02  0.28517907967E+03  0.00000000000E+00 0. -1.
         22    1    3    3    0    0  0.41706743303E+02  0.10150179424E+03 -0.11380591156E+03  0.15809444068E+03  0.00000000000E+00 0. -1.
</event>
<event>
 7    1  0.4822463E-005  0.3541283E+03  0.7818608E-02  0.1205733E+00
          2   -1    0    0  502    0  0.00000000000E+00  0.00000000000E+00  0.32541832399E+03  0.32541832399E+03  0.00000000000E+00 0. -1.
          1   -1    0    0  501    0 -0.00000000000E+00 -0.00000000000E+00 -0.81080250925E+03  0.81080250925E+03  0.00000000000E+00 0. -1.
         25    2    1    2    0    0 -0.23201795040E+03 -0.29999308176E+03 -0.40481848415E+03  0.56862033116E+03  0.12499158965E+03 0.  0.
          2    1    1    2  501    0  0.17633310306E+03  0.27757784383E+03 -0.23349341376E+03  0.40331376977E+03  0.00000000000E+00 0. -1.
          1    1    1    2  502    0  0.55684847340E+02  0.22415237934E+02  0.15292771266E+03  0.16428673231E+03  0.00000000000E+00 0. -1.
         22    1    3    3    0    0 -0.16752601678E+03 -0.12705514084E+03 -0.25768471397E+03  0.33257989555E+03  0.00000000000E+00 0.  1.
         22    1    3    3    0    0 -0.64491933614E+02 -0.17293794092E+03 -0.14713377018E+03  0.23604043560E+03  0.00000000000E+00 0.  1.
</event>
<event>
 7    1  0.4822463E-005  0.2542200E+03  0.7818608E-02  0.1321530E+00
          2   -1    0    0  502    0  0.00000000000E+00  0.00000000000E+00  0.16754890969E+04  0.16754890969E+04  0.00000000000E+00 0. -1.
          1   -1    0    0  501    0 -0.00000000000E+00 -0.00000000000E+00 -0.35205580731E+03  0.35205580731E+03  0.00000000000E+00 0. -1.
         25    2    1    2    0    0 -0.17084652397E+03 -0.15237693074E+03  0.15241645465E+04  0.15463219804E+04  0.12500735430E+03 0.  0.
          2    1    1    2  501    0  0.19488471279E+03  0.16447323434E+03 -0.29105931018E+03  0.38697159862E+03  0.00000000000E+00 0. -1.
          1    1    1    2  502    0 -0.24038188823E+02 -0.12096303599E+02  0.90328053283E+02  0.94251325150E+02  0.00000000000E+00 0. -1.
         22    1    3    3    0    0 -0.16860677964E+03 -0.16931131491E+03  0.14760478662E+04  0.14952631443E+04  0.00000000000E+00 0.  1.
         22    1    3    3    0    0 -0.22397443224E+01  0.16934384164E+02  0.48116680271E+02  0.51058836081E+02  0.00000000000E+00 0.  1.
</event>
<event>
 7    1  0.4822463E-005  0.3153806E+03  0.7818608E-02  0.1097003E+00
          2   -1    0    0  502    0  0.00000000000E+00  0.00000000000E+00  0.59627692930E+03  0.59627692930E+03  0.00000000000E+00 0. -1.
          1   -1    0    0  501    0 -0.00000000000E+00 -0.00000000000E+00 -0.23525855992E+04  0.23525855992E+04  0.00000000000E+00 0. -1.
         25    2    1    2    0    0  0.44223211040E+03 -0.87893076172E+02 -0.12546522073E+03  0.48441973090E+03  0.12500608692E+03 0.  0.
          2    1    1    2  501    0 -0.21776835494E+03 -0.11084839270E+03 -0.19852533910E+04  0.20002353484E+04  0.00000000000E+00 0. -1.
          1    1    1    2  502    0 -0.22446375546E+03  0.19874146887E+03  0.35440994186E+03  0.46420744915E+03  0.00000000000E+00 0. -1.
         22    1    3    3    0    0  0.37505466430E+03 -0.11952195982E+03 -0.10572055717E+03  0.40758843985E+03  0.00000000000E+00 0.  1.
         22    1    3    3    0    0  0.67177446093E+02  0.31628883647E+02 -0.19744663560E+02  0.76831291044E+02  0.00000000000E+00 0.  1.
</event>
<event>
 7    1  0.4822463E-005  0.6809196E+03  0.7818608E-02  0.1128303E+00
          2   -1    0    0  502    0  0.00000000000E+00  0.00000000000E+00  0.37955773458E+03  0.37955773458E+03  0.00000000000E+00 0. -1.
          1   -1    0    0  501    0 -0.00000000000E+00 -0.00000000000E+00 -0.33599703062E+04  0.33599703062E+04  0.00000000000E+00 0. -1.
         25    2    1    2    0    0 -0.23521213827E+03  0.68787765452E+03 -0.98460161532E+03  0.12302706060E+04  0.12500002214E+03 0.  0.
          2    1    1    2  501    0  0.58758882548E+02 -0.48376629293E+02 -0.18218372816E+04  0.18234264408E+04  0.00000000000E+00 0. -1.
          1    1    1    2  502    0  0.17645325572E+03 -0.63950102523E+03 -0.17397367469E+03  0.68583099391E+03  0.00000000000E+00 0. -1.
         22    1    3    3    0    0 -0.10669180637E+03  0.32141108486E+03 -0.56349357528E+03  0.65742926342E+03  0.00000000000E+00 0. -1.
         22    1    3    3    0    0 -0.12852033190E+03  0.36646656966E+03 -0.42110804003E+03  0.57284134258E+03  0.00000000000E+00 0. -1.
</event>
<event>
 7    1  0.4822463E-005  0.8806555E+02  0.7818608E-02  0.1475546E+00
          2   -1    0    0  502    0  0.00000000000E+00  0.00000000000E+00  0.48152911884E+03  0.48152911884E+03  0.00000000000E+00 0. -1.
          1   -1    0    0  501    0 -0.00000000000E+00 -0.00000000000E+00 -0.56242105721E+02  0.56242105721E+02  0.00000000000E+00 0. -1.
         25    2    1    2    0    0 -0.91629585751E+02 -0.28908196186E+02  0.80256254721E+02  0.17691170107E+03  0.12500007505E+03 0.  0.
          2    1    1    2  501    0  0.68960123796E+02  0.31326327764E+02  0.19655284873E+03  0.21064154346E+03  0.00000000000E+00 0. -1.
          1    1    1    2  502    0  0.22669461955E+02 -0.24181315781E+01  0.14847790967E+03  0.15021798003E+03  0.00000000000E+00 0. -1.
         22    1    3    3    0    0 -0.17278204517E+02 -0.92424244221E+01 -0.33964669247E+02  0.39211701284E+02  0.00000000000E+00 0. -1.
         22    1    3    3    0    0 -0.74351381233E+02 -0.19665771763E+02  0.11422092397E+03  0.13769999979E+03  0.00000000000E+00 0. -1.
</event>
<event>
 7    1  0.4822463E-005  0.2130004E+03  0.7818608E-02  0.1181079E+00
          2   -1    0    0  502    0  0.00000000000E+00  0.00000000000E+00  0.15892377327E+03  0.15892377327E+03  0.00000000000E+00 0. -1.
          1   -1    0    0  501    0 -0.00000000000E+00 -0.00000000000E+00 -0.17407517749E+04  0.17407517749E+04  0.00000000000E+00 0. -1.
         25    2    1    2    0    0 -0.17190591796E+03  0.15091295787E+03 -0.13419533930E+04  0.13670371032E+04  0.12500066858E+03 0.  0.
          2    1    1    2  501    0  0.20131093352E+03 -0.23423257740E+02 -0.32031850320E+03  0.37904971237E+03  0.00000000000E+00 0. -1.
          1    1    1    2  502    0 -0.29405015554E+02 -0.12748970013E+03  0.80443894616E+02  0.15358873253E+03  0.00000000000E+00 0. -1.
         22    1    3    3    0    0 -0.56354958205E+02  0.82077958808E+02 -0.29207060852E+03  0.30857399922E+03  0.00000000000E+00 0. -1.
         22    1    3    3    0    0 -0.11555095976E+03  0.68834999063E+02 -0.10498827845E+04  0.10584631040E+04  0.00000000000E+00 0. -1.
</event>
<event>
 7    1  0.4822463E-005  0.4021509E+03  0.7818608E-02  0.1206747E+00
          2   -1    0    0  502    0  0.00000000000E+00  0.00000000000E+00  0.32116714797E+04  0.32116714797E+04  0.00000000000E+00 0. -1.
          1   -1    0    0  501    0 -0.00000000000E+00 -0.00000000000E+00 -0.23720934027E+03  0.23720934027E+03  0.00000000000E+00 0. -1.
         25    2    1    2    0    0  0.35299278701E+03 -0.18909362605E+03  0.76791412777E+03  0.87502984126E+03  0.12499923346E+03 0.  0.
          2    1    1    2  501    0 -0.37722010770E+03  0.14275918076E+03  0.38489945471E+02  0.40516252202E+03  0.00000000000E+00 0. -1.
          1    1    1    2  502    0  0.24227320684E+02  0.46334445287E+02  0.21680580662E+04  0.21686884567E+04  0.00000000000E+00 0. -1.
         22    1    3    3    0    0  0.87441882115E+02 -0.76245339787E+02  0.12614577574E+03  0.17138317106E+03  0.00000000000E+00 0.  1.
         22    1    3    3    0    0  0.26555090490E+03 -0.11284828626E+03  0.64176835203E+03  0.70364667019E+03  0.00000000000E+00 0.  1.
</event>
<event>
 7    1  0.4822463E-005  0.1111626E+03  0.7818608E-02  0.1300740E+00
          2   -1    0    0  502    0  0.00000000000E+00  0.00000000000E+00  0.18439854297E+04  0.18439854297E+04  0.00000000000E+00 0. -1.
          1   -1    0    0  501    0 -0.00000000000E+00 -0.00000000000E+00 -0.17844653668E+03  0.17844653668E+03  0.00000000000E+00 0. -1.
         25    2    1    2    0    0 -0.14937040317E+03  0.98402471263E+02  0.34546756573E+03  0.40861284107E+03  0.12498820435E+03 0.  0.
          2    1    1    2  501    0  0.68884256395E+02 -0.27832606696E+02 -0.13538569185E+03  0.15443115078E+03  0.00000000000E+00 0. -1.
          1    1    1    2  502    0  0.80486146770E+02 -0.70569864567E+02  0.14554570191E+04  0.14593879745E+04  0.00000000000E+00 0. -1.
         22    1    3    3    0    0 -0.16226962383E+03  0.11267009266E+03  0.29951102549E+03  0.35879358270E+03  0.00000000000E+00 0.  1.
         22    1    3    3    0    0  0.12899220661E+02 -0.14267621398E+02  0.45956540242E+02  0.49819258375E+02  0.00000000000E+00 0.  1.
</event>
<event>
 7    1  0.4822463E-005  0.5618379E+02  0.7818608E-02  0.1478679E+00
          2   -1    0    0  502    0  0.00000000000E+00  0.00000000000E+00  0.14553242001E+04  0.14553242001E+04  0.00000000000E+00 0. -1.
          1   -1    0    0  501    0 -0.00000000000E+00 -0.00000000000E+00 -0.20591599887E+02  0.20591599887E+02  0.00000000000E+00 0. -1.
         25    2    1    2    0    0  0.85247510225E+02 -0.90513027168E+01  0.13154307108E+04  0.13241344962E+04  0.12500058058E+03 0.  0.
          2    1    1    2  501    0 -0.53707048416E+02 -0.60045643678E+01  0.94721116036E+02  0.10905315982E+03  0.00000000000E+00 0. -1.
          1    1    1    2  502    0 -0.31540461809E+02  0.15055867085E+02  0.24580773408E+02  0.42728143958E+02  0.00000000000E+00 0. -1.
         22    1    3    3    0    0 -0.31757301551E+02 -0.57140273487E+01  0.38954402969E+03  0.39087814902E+03  0.00000000000E+00 0. -1.
         22    1    3    3    0    0  0.11700481178E+03 -0.33372753681E+01  0.92588668111E+03  0.93325634723E+03  0.00000000000E+00 0. -1.
</event>
<event>
 7    1  0.4822463E-005  0.2983781E+03  0.7818608E-02  0.1299211E+00
          2   -1    0    0  502    0  0.00000000000E+00  0.00000000000E+00  0.45689268689E+04  0.45689268689E+04  0.00000000000E+00 0. -1.
          1   -1    0    0  501    0 -0.00000000000E+00 -0.00000000000E+00 -0.11161319671E+04  0.11161319671E+04  0.00000000000E+00 0. -1.
         25    2    1    2    0    0  0.21472792558E+03  0.21453035656E+03  0.22618747076E+04  0.22855707182E+04  0.12499983700E+03 0.  0.
          2    1    1    2  501    0  0.11548887368E+02 -0.25585922277E+02 -0.10946377582E+04  0.10949976428E+04  0.00000000000E+00 0. -1.
          1    1    1    2  502    0 -0.22627681295E+03 -0.18894443428E+03  0.22855579524E+04  0.23044904749E+04  0.00000000000E+00 0. -1.
         22    1    3    3    0    0  0.77383162377E+01  0.48140689750E+01  0.43417811673E+03  0.43427375449E+03  0.00000000000E+00 0. -1.
         22    1    3    3    0    0  0.20698960934E+03  0.20971628758E+03  0.18276965909E+04  0.18512969637E+04  0.00000000000E+00 0. -1.
</event>
<event>
 7    1  0.4822463E-005  0.1000080E+04  0.7818608E-02  0.1037760E+00
          2   -1    0    0  502    0  0.00000000000E+00  0.00000000000E+00  0.14524365821E+04  0.14524365821E+04  0.00000000000E+00 0. -1.
          1   -1    0    0  501    0 -0.00000000000E+00 -0.00000000000E+00 -0.14198957343E+04  0.14198957343E+04  0.00000000000E+00 0. -1.
         25    2    1    2    0    0  0.16530092612E+03  0.10936465897E+04  0.48454663772E+02  0.11141634056E+04  0.12499992242E+03 0.  0.
          2    1    1    2  501    0  0.45743228026E+02 -0.16850821119E+03 -0.61277002559E+03  0.63716133311E+03  0.00000000000E+00 0. -1.
          1    1    1    2  502    0 -0.21104415415E+03 -0.92513837846E+03  0.59685620960E+03  0.11210075777E+04  0.00000000000E+00 0. -1.
         22    1    3    3    0    0  0.93842084771E+02  0.89316929347E+03  0.11578333805E+02  0.89816022039E+03  0.00000000000E+00 0.  1.
         22    1    3    3    0    0  0.71458841349E+02  0.20047729618E+03  0.36876329967E+02  0.21600318517E+03  0.00000000000E+00 0.  1.
</event>
<event>
 7    1  0.4822463E-005  0.5084662E+03  0.7818608E-02  0.1227659E+00
          2   -1    0    0  502    0  0.00000000000E+00  0.00000000000E+00  0.23112235162E+03  0.23112235162E+03  0.00000000000E+00 0. -1.
          1   -1    0    0  501    0 -0.00000000000E+00 -0.00000000000E+00 -0.14222838721E+04  0.14222838721E+04  0.00000000000E+00 0. -1.
         25    2    1    2    0    0 -0.43489277654E+03 -0.25885713938E+03 -0.31801770130E+03  0.61065387553E+03  0.12499660658E+03 0.  0.
          2    1    1    2  501    0  0.42059960301E+03  0.28878647215E+03 -0.69850467110E+03  0.86499157690E+03  0.00000000000E+00 0. -1.
          1    1    1    2  502    0  0.14293173526E+02 -0.29929332765E+02 -0.17463914811E+03  0.17776077132E+03  0.00000000000E+00 0. -1.
         22    1    3    3    0    0 -0.43100733425E+03 -0.23949239333E+03 -0.27804511744E+03  0.56606803122E+03  0.00000000000E+00 0. -1.
         22    1    3    3    0    0 -0.38854422885E+01 -0.19364746047E+02 -0.39972583864E+02  0.44585844301E+02  0.00000000000E+00 0. -1.
</event>
<event>
 7    1  0.4822463E-005  0.6854018E+03  0.7818608E-02  0.1101000E+00
          2   -1    0    0  502    0  0.00000000000E+00  0.00000000000E+00  0.26673656027E+04  0.26673656027E+04  0.00000000000E+00 0. -1.
          1   -1    0    0  501    0 -0.00000000000E+00 -0.00000000000E+00 -0.43709570483E+03  0.43709570483E+03  0.00000000000E+00 0. -1.
         25    2    1    2    0    0 -0.62092926810E+03  0.32181528795E+03  0.67546633710E+03  0.98030488322E+03  0.12499862383E+03 0.  0.
          2    1    1    2  501    0  0.64535586575E+03 -0.21790073161E+03  0.12763927377E+03  0.69300556023E+03  0.00000000000E+00 0. -1.
          1    1    1    2  502    0 -0.24426597652E+02 -0.10391455634E+03  0.14271642870E+04  0.14311508641E+04  0.00000000000E+00 0. -1.
         22    1    3    3    0    0 -0.55032541239E+03  0.23504591790E+03  0.56118645032E+03  0.82038702761E+03  0.00000000000E+00 0. -1.
         22    1    3    3    0    0 -0.70603855706E+02  0.86769370046E+02  0.11427988678E+03  0.15991785560E+03  0.00000000000E+00 0. -1.
</event>
<event>
 7    1  0.4822463E-005  0.1527006E+03  0.7818608E-02  0.1291991E+00
          2   -1    0    0  502    0  0.00000000000E+00  0.00000000000E+00  0.17458590406E+04  0.17458590406E+04  0.00000000000E+00 0. -1.
          1   -1    0    0  501    0 -0.00000000000E+00 -0.00000000000E+00 -0.61335701123E+03  0.61335701123E+03  0.00000000000E+00 0. -1.
         25    2    1    2    0    0 -0.19917231846E+03 -0.24105057067E+02 -0.68280623077E+02  0.24604455817E+03  0.12500005959E+03 0.  0.
          2    1    1    2  501    0  0.14188126553E+03  0.36676668094E+02 -0.44388932163E+03  0.46745395640E+03  0.00000000000E+00 0. -1.
          1    1    1    2  502    0  0.57291052936E+02 -0.12571611027E+02  0.16446719741E+04  0.16457175373E+04  0.00000000000E+00 0. -1.
         22    1    3    3    0    0  0.85472927383E+01  0.74160196961E+01  0.16063367956E+02  0.19649054720E+02  0.00000000000E+00 0. -1.
         22    1    3    3    0    0 -0.20771961120E+03 -0.31521076763E+02 -0.84343991033E+02  0.22639550345E+03  0.00000000000E+00 0. -1.
</event>
<event>
 7    1  0.4822463E-005  0.2116720E+03  0.7818608E-02  0.1156159E+00
          2   -1    0    0  502    0  0.00000000000E+00  0.00000000000E+00  0.16053823077E+04  0.16053823077E+04  0.00000000000E+00 0. -1.
          1   -1    0    0  501    0 -0.00000000000E+00 -0.00000000000E+00 -0.13144212240E+04  0.13144212240E+04  0.00000000000E+00 0. -1.
         25    2    1    2    0    0 -0.35582433907E+03  0.10264622586E+02  0.28037577006E+03  0.47005515215E+03  0.12499980351E+03 0.  0.
          2    1    1    2  501    0  0.19804194529E+03  0.65894135971E+02 -0.12043215322E+04  0.12222737018E+04  0.00000000000E+00 0. -1.
          1    1    1    2  502    0  0.15778239378E+03 -0.76158758557E+02  0.12149068458E+04  0.12274746777E+04  0.00000000000E+00 0. -1.
         22    1    3    3    0    0 -0.15473269934E+03  0.22145803652E+02  0.19838680180E+03  0.25256675947E+03  0.00000000000E+00 0. -1.
         22    1    3    3    0    0 -0.20109163973E+03 -0.11881181065E+02  0.81988968266E+02  0.21748839268E+03  0.00000000000E+00 0. -1.
</event>
<event>
 7    1  0.4822463E-005  0.7983688E+02  0.7818608E-02  0.1377860E+00
          2   -1    0    0  502    0  0.00000000000E+00  0.00000000000E+00  0.58109120172E+03  0.58109120172E+03  0.00000000000E+00 0. -1.
          1   -1    0    0  501    0 -0.00000000000E+00 -0.00000000000E+00 -0.70324806430E+03  0.70324806430E+03  0.00000000000E+00 0. -1.
         25    2    1    2    0    0 -0.27727410381E+02  0.28055827784E+02  0.12896231918E+02  0.13171068539E+03  0.12500181235E+03 0.  0.
          2    1    1    2  501    0  0.79619333800E+02 -0.17429596709E+02 -0.63987016642E+03  0.64504019954E+03  0.00000000000E+00 0. -1.
          1    1    1    2  502    0 -0.51891923419E+02 -0.10626231075E+02  0.50481707193E+03  0.50758838108E+03  0.00000000000E+00 0. -1.
         22    1    3    3    0    0  0.16470726358E+02  0.55436509892E+02  0.42603477172E+02  0.71829991806E+02  0.00000000000E+00 0.  1.
         22    1    3    3    0    0 -0.44198136739E+02 -0.27380682108E+02 -0.29707245254E+02  0.59880693587E+02  0.00000000000E+00 0.  1.
</event>
<event>
 7    1  0.4822463E-005  0.1103794E+03  0.7818608E-02  0.1287590E+00
          2   -1    0    0  502    0  0.00000000000E+00  0.00000000000E+00  0.54567312807E+03  0.54567312807E+03  0.00000000000E+00 0. -1.
          1   -1    0    0  501    0 -0.00000000000E+00 -0.00000000000E+00 -0.18181756762E+04  0.18181756762E+04  0.00000000000E+00 0. -1.
         25    2    1    2    0    0  0.42658833320E+02 -0.10539917725E+03  0.46969477586E+03  0.49916649446E+03  0.12500097638E+03 0.  0.
          2    1    1    2  501    0 -0.84061258489E+02 -0.91623137187E+01 -0.17408085244E+04  0.17428610277E+04  0.00000000000E+00 0. -1.
          1    1    1    2  502    0  0.41402425169E+02  0.11456149097E+03 -0.13887996271E+01  0.12182128216E+03  0.00000000000E+00 0. -1.
         22    1    3    3    0    0 -0.99180094659E+01 -0.39396431163E+02  0.35205620901E+03  0.35439246606E+03  0.00000000000E+00 0.  1.
         22    1    3    3    0    0  0.52576842786E+02 -0.66002746084E+02  0.11763856686E+03  0.14477402840E+03  0.00000000000E+00 0.  1.
</event>
<event>
 7    1  0.4822463E-005  0.2579036E+03  0.7818608E-02  0.1203228E+00
          2   -1    0    0  502    0  0.00000000000E+00  0.00000000000E+00  0.98910747861E+03  0.98910747861E+03  0.00000000000E+00 0. -1.
          1   -1    0    0  501    0 -0.00000000000E+00 -0.00000000000E+00 -0.28762455725E+03  0.28762455725E+03  0.00000000000E+00 0. -1.
         25    2    1    2    0    0 -0.11609996325E+03  0.21111028127E+03  0.99603939661E+02  0.28910756174E+03  0.12496193473E+03 0.  0.
          2    1    1    2  501    0  0.69061706032E+02  0.48998923797E+02 -0.16009225183E+03  0.18110754503E+03  0.00000000000E+00 0. -1.
          1    1    1    2  502    0  0.47038257222E+02 -0.26010920507E+03  0.76197123352E+03  0.80651692910E+03  0.00000000000E+00 0. -1.
         22    1    3    3    0    0  0.17380248750E+02  0.54658700497E+01 -0.97435077299E+01  0.20661188855E+02  0.00000000000E+00 0. -1.
         22    1    3    3    0    0 -0.13348021200E+03  0.20564441122E+03  0.10934744739E+03  0.26844637288E+03  0.00000000000E+00 0. -1.
</event>
<event>
 7    1  0.4822463E-005  0.3061684E+03  0.7818608E-02  0.1216195E+00
          2   -1    0    0  502    0  0.00000000000E+00  0.00000000000E+00  0.20941453872E+04  0.20941453872E+04  0.00000000000E+00 0. -1.
          1   -1    0    0  501    0 -0.00000000000E+00 -0.00000000000E+00 -0.16944671765E+03  0.16944671765E+03  0.00000000000E+00 0. -1.
         25    2    1    2    0    0 -0.93554484353E+02  0.27788150006E+03  0.17574442825E+03  0.36398050470E+03  0.12500053650E+03 0.  0.
          2    1    1    2  501    0  0.15504631987E+03 -0.28657235690E+03  0.28075788764E+03  0.43010239306E+03  0.00000000000E+00 0. -1.
          1    1    1    2  502    0 -0.61491835518E+02  0.86908568328E+01  0.14681963537E+04  0.14695092071E+04  0.00000000000E+00 0. -1.
         22    1    3    3    0    0 -0.49208938426E+02  0.18907456986E+03  0.46170065598E+02  0.20075454552E+03  0.00000000000E+00 0. -1.
         22    1    3    3    0    0 -0.44345545927E+02  0.88806930201E+02  0.12957436265E+03  0.16322595918E+03  0.00000000000E+00 0. -1.
</event>
<event>
 7    1  0.4822463E-005  0.1556020E+03  0.7818608E-02  0.1210709E+00
          2   -1    0    0  502    0  0.00000000000E+00  0.00000000000E+00  0.27711356836E+04  0.27711356836E+04  0.00000000000E+00 0. -1.
          1   -1    0    0  501    0 -0.00000000000E+00 -0.00000000000E+00 -0.15096402684E+04  0.15096402684E+04  0.00000000000E+00 0. -1.
         25    2    1    2    0    0 -0.12886825639E+03  0.62176884656E+02  0.67930267886E+03  0.70537205564E+03  0.12499845950E+03 0.  0.
          2    1    1    2  501    0  0.81610663512E+02  0.10057752160E+03 -0.14903378578E+04  0.14959555704E+04  0.00000000000E+00 0. -1.
          1    1    1    2  502    0  0.47257592874E+02 -0.16275440625E+03  0.20725305941E+04  0.20794483259E+04  0.00000000000E+00 0. -1.
         22    1    3    3    0    0 -0.33036572500E+02 -0.63574852520E+01  0.41058876193E+03  0.41196476083E+03  0.00000000000E+00 0. -1.
         22    1    3    3    0    0 -0.95831683886E+02  0.68534369908E+02  0.26871391693E+03  0.29340729481E+03  0.00000000000E+00 0. -1.
</event>
<event>
 7    1  0.4822463E-005  0.1283663E+04  0.7818608E-02  0.1137415E+00
          2   -1    0    0  502    0  0.00000000000E+00  0.00000000000E+00  0.15584112633E+04  0.15584112633E+04  0.00000000000E+00 0. -1.
          1   -1    0    0  501    0 -0.00000000000E+00 -0.00000000000E+00 -0.12151304870E+04  0.12151304870E+04  0.00000000000E+00 0. -1.
         25    2    1    2    0    0  0.21007040399E+03  0.12663995128E+04 -0.13516090966E+03  0.12968381941E+04  0.12499411786E+03 0.  0.
          2    1    1    2  501    0 -0.17438770314E+03 -0.12720034306E+04  0.33236030443E+03  0.13262228962E+04  0.00000000000E+00 0. -1.
          1    1    1    2  502    0 -0.35682700850E+02  0.56039177372E+01  0.14608138150E+03  0.15048066007E+03  0.00000000000E+00 0. -1.
         22    1    3    3    0    0  0.12392386152E+03  0.10234604687E+04 -0.12928359598E+03  0.10390104439E+04  0.00000000000E+00 0.  1.
         22    1    3    3    0    0  0.86146542472E+02  0.24293904417E+03 -0.58773136710E+01  0.25782775020E+03  0.00000000000E+00 0.  1.
</event>
<event>
 7    1  0.4822463E-005  0.4840386E+03  0.7818608E-02  0.1250147E+00
          2   -1    0    0  502    0  0.00000000000E+00  0.00000000000E+00  0.18835631382E+04  0.18835631382E+04  0.00000000000E+00 0. -1.
          1   -1    0    0  501    0 -0.00000000000E+00 -0.00000000000E+00 -0.12594848247E+04  0.12594848247E+04  0.00000000000E+00 0. -1.
         25    2    1    2    0    0  0.49206931955E+03 -0.13508055824E+03  0.16229325830E+04  0.17058472570E+04  0.12500289053E+03 0.  0.
          2    1    1    2  501    0 -0.46438128759E+03  0.13383884658E+03 -0.11689227486E+04  0.12648886154E+04  0.00000000000E+00 0. -1.
          1    1    1    2  502    0 -0.27688031959E+02  0.12417116689E+01  0.17006847903E+03  0.17231209047E+03  0.00000000000E+00 0. -1.
         22    1    3    3    0    0  0.41929772749E+03 -0.15313884866E+03  0.14550281875E+04  0.15219622590E+04  0.00000000000E+00 0. -1.
         22    1    3    3    0    0  0.72771592058E+02  0.18058290412E+02  0.16790439549E+03  0.18388499800E+03  0.00000000000E+00 0. -1.
</event>
<event>
 7    1  0.4822463E-005  0.5901645E+03  0.7818608E-02  0.1203328E+00
          2   -1    0    0  502    0  0.00000000000E+00  0.00000000000E+00  0.26782814645E+04  0.26782814645E+04  0.00000000000E+00 0. -1.
          1   -1    0    0  501    0 -0.00000000000E+00 -0.00000000000E+00 -0.80143551430E+03  0.80143551430E+03  0.00000000000E+00 0. -1.
         25    2    1    2    0    0  0.56544786792E+03  0.41718230456E+02  0.74378006793E+03  0.94356013257E+03  0.12500092901E+03 0.  0.
          2    1    1    2  501    0 -0.59342836088E+03 -0.17562685586E+02 -0.57570651399E+03  0.82698467802E+03  0.00000000000E+00 0. -1.
          1    1    1    2  502    0  0.27980492967E+02 -0.24155544870E+02  0.17087723963E+04  0.17091721682E+04  0.00000000000E+00 0. -1.
         22    1    3    3    0    0  0.38350252574E+03  0.76598350811E+02  0.55612379493E+03  0.67986408192E+03  0.00000000000E+00 0. -1.
         22    1    3    3    0    0  0.18194534217E+03 -0.34880120355E+02  0.18765627300E+03  0.26369605065E+03  0.00000000000E+00 0. -1.
</event>
<event>
 7    1  0.4822463E-005  0.3259398E+03  0.7818608E-02  0.1324085E+00
          2   -1    0    0  502    0  0.00000000000E+00  0.00000000000E+00  0.80484701819E+03  0.80484701819E+03  0.00000000000E+00 0. -1.
          1   -1    0    0  501    0 -0.00000000000E+00 -0.00000000000E+00 -0.15959925061E+03  0.15959925061E+03  0.00000000000E+00 0. -1.
         25    2    1    2    0    0  0.11601337406E+03 -0.31214293810E+03  0.22494500292E+03  0.42085316221E+03  0.12499925216E+03 0.  0.
          2    1    1    2  501    0  0.12032317017E+02  0.16618526126E+02  0.12805566135E+02  0.24185420969E+02  0.00000000000E+00 0. -1.
          1    1    1    2  502    0 -0.12804569108E+03  0.29552441197E+03  0.40749719853E+03  0.51940768562E+03  0.00000000000E+00 0. -1.
         22    1    3    3    0    0 -0.10602149807E+02 -0.16050522324E+02  0.51739911468E+02  0.55200029766E+02  0.00000000000E+00 0. -1.
         22    1    3    3    0    0  0.12661552387E+03 -0.29609241577E+03  0.17320509145E+03  0.36565313244E+03  0.00000000000E+00 0. -1.
</event>
<event>
 7    1  0.4822463E-005  0.8168103E+03  0.7818608E-02  0.1156923E+00
          2   -1    0    0  502    0  0.00000000000E+00  0.00000000000E+00  0.11566574476E+04  0.11566574476E+04  0.00000000000E+00 0. -1.
          1   -1    0    0  501    0 -0.00000000000E+00 -0.00000000000E+00 -0.12315061232E+04  0.12315061232E+04  0.00000000000E+00 0. -1.
         25    2    1    2    0    0 -0.82841532277E+03 -0.15353775565E+03 -0.19136911905E+03  0.87298022881E+03  0.12500620289E+03 0.  0.
          2    1    1    2  501    0  0.30119851656E+02  0.33430885383E+02 -0.49836971583E+03  0.50039704557E+03  0.00000000000E+00 0. -1.
          1    1    1    2  502    0  0.79829547111E+03  0.12010687027E+03  0.61489015921E+03  0.10147862964E+04  0.00000000000E+00 0. -1.
         22    1    3    3    0    0 -0.42429853645E+02  0.12616903532E+02  0.86390587213E+01  0.45101131590E+02  0.00000000000E+00 0.  1.
         22    1    3    3    0    0 -0.78598546912E+03 -0.16615465918E+03 -0.20000817777E+03  0.82787909722E+03  0.00000000000E+00 0.  1.
</event>
<event>
 7    1  0.4822463E-005  0.1202293E+04  0.7818608E-02  0.1101473E+00
          2   -1    0    0  502    0  0.00000000000E+00  0.00000000000E+00  0.20280163244E+04  0.20280163244E+04  0.00000000000E+00 0. -1.
          1   -1    0    0  501    0 -0.00000000000E+00 -0.00000000000E+00 -0.11295902502E+04  0.11295902502E+04  0.00000000000E+00 0. -1.
         25    2    1    2    0    0  0.10428952597E+04 -0.63766098587E+03  0.35016751217E+03  0.12776874968E+04  0.12500398877E+03 0.  0.
          2    1    1    2  501    0 -0.54805484703E+02 -0.25583529669E+02 -0.37117244309E+03  0.37606800004E+03  0.00000000000E+00 0. -1.
          1    1    1    2  502    0 -0.98808977501E+03  0.66324451553E+03  0.91943100511E+03  0.15038510777E+04  0.00000000000E+00 0. -1.
         22    1    3    3    0    0  0.50923206688E+03 -0.37307601615E+03  0.14518326471E+03  0.64775087195E+03  0.00000000000E+00 0. -1.
         22    1    3    3    0    0  0.53366319284E+03 -0.26458496972E+03  0.20498424746E+03  0.62993662483E+03  0.00000000000E+00 0. -1.
</event>
<event>
 7    1  0.4822463E-005  0.2955986E+03  0.7818608E-02  0.1279258E+00
          2   -1    0    0  502    0  0.00000000000E+00  0.00000000000E+00  0.13111489960E+04  0.13111489960E+04  0.00000000000E+00 0. -1.
          1   -1    0    0  501    0 -0.00000000000E+00 -0.00000000000E+00 -0.19325148899E+04  0.19325148899E+04  0.00000000000E+00 0. -1.
         25    2    1    2    0    0 -0.11972197794E+03  0.29851342717E+03 -0.41334267285E+03  0.53844219935E+03  0.12499687453E+03 0.  0.
          2    1    1    2  501    0  0.11833652192E+03 -0.26437581867E+03 -0.14419842421E+04  0.14707877687E+04  0.00000000000E+00 0. -1.
          1    1    1    2  502    0  0.13854560286E+01 -0.34137608501E+02  0.12339610211E+04  0.12344339178E+04  0.00000000000E+00 0. -1.
         22    1    3    3    0    0 -0.75787575709E+02  0.28769238289E+03 -0.33554241905E+03  0.44844105386E+03  0.00000000000E+00 0.  1.
         22    1    3    3    0    0 -0.43934402235E+02  0.10821044283E+02 -0.77800253800E+02  0.90001145496E+02  0.00000000000E+00 0.  1.
</event>
<event>
 7    1  0.4822463E-005  0.2578798E+03  0.7818608E-02  0.1194764E+00
          2   -1    0    0  502    0  0.00000000000E+00  0.00000000000E+00  0.42639016591E+04  0.42639016591E+04  0.00000000000E+00 0. -1.
          1   -1    0    0  501    0 -0.00000000000E+00 -0.00000000000E+00 -0.18109268875E+03  0.18109268875E+03  0.00000000000E+00 0. -1.
         25    2    1    2    0    0  0.11031469065E+03 -0.18613129445E+03  0.34823519879E+02  0.25229352624E+03  0.12500062440E+03 0.  0.
          2    1    1    2  501    0  0.90443423779E+02  0.21019974261E+02 -0.36633743641E+02  0.99819253633E+02  0.00000000000E+00 0. -1.
          1    1    1    2  502    0 -0.20075811442E+03  0.16511132019E+03  0.40846191941E+04  0.40928815680E+04  0.00000000000E+00 0. -1.
         22    1    3    3    0    0  0.49187791915E+02 -0.15683397327E+03  0.66703638791E+02  0.17738576457E+03  0.00000000000E+00 0. -1.
         22    1    3    3    0    0  0.61126898731E+02 -0.29297321184E+02 -0.31880118912E+02  0.74907761673E+02  0.00000000000E+00 0. -1.
</event>
<event>
 7    1  0.4822463E-005  0.2922613E+03  0.7818608E-02  0.1196092E+00
          2   -1    0    0  502    0  0.00000000000E+00  0.00000000000E+00  0.13435105656E+04  0.13435105656E+04  0.00000000000E+00 0. -1.
          1   -1    0    0  501    0 -0.00000000000E+00 -0.00000000000E+00 -0.27164368682E+03  0.27164368682E+03  0.00000000000E+00 0. -1.
         25    2    1    2    0    0  0.70213794146E+02 -0.30881277323E+03 -0.98667064873E+02  0.35447893481E+03  0.12499927892E+03 0.  0.
          2    1    1    2  501    0 -0.78738409941E+02  0.17903993076E+02  0.34248730766E+02  0.87711263400E+02  0.00000000000E+00 0. -1.
          1    1    1    2  502    0  0.85246157951E+01  0.29090878016E+03  0.11362852129E+04  0.11729640542E+04  0.00000000000E+00 0. -1.
         22    1    3    3    0    0  0.94569342644E+02 -0.23716772901E+03 -0.39375830755E+02  0.25834540503E+03  0.00000000000E+00 0. -1.
         22    1    3    3    0    0 -0.24355548498E+02 -0.71645044220E+02 -0.59291234118E+02  0.96133529776E+02  0.00000000000E+00 0. -1.
</event>
<event>
 7    1  0.4822463E-005  0.2773192E+03  0.7818608E-02  0.1131867E+00
          2   -1    0    0  502    0  0.00000000000E+00  0.00000000000E+00  0.20735466394E+04  0.20735466394E+04  0.00000000000E+00 0. -1.
          1   -1    0    0  501    0 -0.00000000000E+00 -0.00000000000E+00 -0.67355604072E+03  0.67355604072E+03  0.00000000000E+00 0. -1.
         25    2    1    2    0    0  0.78457858144E+02  0.39266784133E+03 -0.18317907480E+03  0.45773690879E+03  0.12499934042E+03 0.  0.
          2    1    1    2  501    0  0.17734798845E+02 -0.24185436168E+03 -0.30673352933E+03  0.39101600142E+03  0.00000000000E+00 0. -1.
          1    1    1    2  502    0 -0.96192656989E+02 -0.15081347964E+03  0.18899032029E+04  0.18983497699E+04  0.00000000000E+00 0. -1.
         22    1    3    3    0    0  0.13099024433E+02  0.87841405482E+02 -0.10267341874E+03  0.13575539722E+03  0.00000000000E+00 0.  1.
         22    1    3    3    0    0  0.65358833711E+02  0.30482643584E+03 -0.80505656054E+02  0.32198151157E+03  0.00000000000E+00 0.  1.
</event>
<event>
 7    1  0.4822463E-005  0.1571486E+03  0.7818608E-02  0.1276007E+00
          2   -1    0    0  502    0  0.00000000000E+00  0.00000000000E+00  0.47167565257E+03  0.47167565257E+03  0.00000000000E+00 0. -1.
          1   -1    0    0  501    0 -0.00000000000E+00 -0.00000000000E+00 -0.23900824550E+03  0.23900824550E+03  0.00000000000E+00 0. -1.
         25    2    1    2    0    0 -0.13094364891E+03 -0.12615248275E+03 -0.11899364745E+03  0.25068968984E+03  0.12500057746E+03 0.  0.
          2    1    1    2  501    0  0.66451734415E+02  0.11080499465E+03  0.31427614888E+02  0.13297095481E+03  0.00000000000E+00 0. -1.
          1    1    1    2  502    0  0.64491914491E+02  0.15347488099E+02  0.32023343963E+03  0.32702325343E+03  0.00000000000E+00 0. -1.
         22    1    3    3    0    0 -0.11446240732E+03 -0.14526334979E+03 -0.12684512771E+03  0.22426049564E+03  0.00000000000E+00 0. -1.
         22    1    3    3    0    0 -0.16481241584E+02  0.19110867046E+02  0.78514802616E+01  0.26429194193E+02  0.00000000000E+00 0. -1.
</event>
<event>
 7    1  0.4822463E-005  0.2801991E+03  0.7818608E-02  0.1197515E+00
          2   -1    0    0  502    0  0.00000000000E+00  0.00000000000E+00  0.12729996228E+04  0.12729996228E+04  0.00000000000E+00 0. -1.
          1   -1    0    0  501    0 -0.00000000000E+00 -0.00000000000E+00 -0.48792453086E+03  0.48792453086E+03  0.00000000000E+00 0. -1.
         25    2    1    2    0    0 -0.31754908142E+03  0.15807799370E+03 -0.26288121146E+03  0.45886553451E+03  0.12499990490E+03 0.  0.
          2    1    1    2  501    0  0.81949325900E+02 -0.12686702366E+02 -0.94970336964E+02  0.12607937712E+03  0.00000000000E+00 0. -1.
          1    1    1    2  502    0  0.23559975552E+03 -0.14539129134E+03  0.11429266403E+04  0.11759792420E+04  0.00000000000E+00 0. -1.
         22    1    3    3    0    0 -0.10107743201E+03  0.11742873294E+03 -0.93000008852E+02  0.18070737735E+03  0.00000000000E+00 0.  1.
         22    1    3    3    0    0 -0.21647164941E+03  0.40649260762E+02 -0.16988120261E+03  0.27815815717E+03  0.00000000000E+00 0.  1.
</event>
<event>
 7    1  0.4822463E-005  0.3585941E+03  0.7818608E-02  0.1294713E+00
          2   -1    0    0  502    0  0.00000000000E+00  0.00000000000E+00  0.10328650987E+04  0.10328650987E+04  0.00000000000E+00 0. -1.
          1   -1    0    0  501    0 -0.00000000000E+00 -0.00000000000E+00 -0.10598549631E+04  0.10598549631E+04  0.00000000000E+00 0. -1.
         25    2    1    2    0    0  0.35332640369E+03  0.14229418161E+02 -0.40512840526E+02  0.37723802175E+03  0.12500084367E+03 0.  0.
          2    1    1    2  501    0 -0.35974311460E+03  0.92615202319E+01 -0.81274747636E+03  0.88885282505E+03  0.00000000000E+00 0. -1.
          1    1    1    2  502    0  0.64167109019E+01 -0.23490938393E+02  0.82627045252E+03  0.82662921499E+03  0.00000000000E+00 0. -1.
         22    1    3    3    0    0  0.16898256008E+03  0.25539370380E+02  0.40382927472E+02  0.17560793228E+03  0.00000000000E+00 0.  1.
         22    1    3    3    0    0  0.18434384362E+03 -0.11309952219E+02 -0.80895767998E+02  0.20163008947E+03  0.00000000000E+00 0.  1.
</event>
<event>
 7    1  0.4822463E-005  0.1621732E+03  0.7818608E-02  0.1283299E+00
          2   -1    0    0  502    0  0.00000000000E+00  0.00000000000E+00  0.19219774146E+04  0.19219774146E+04  0.00000000000E+00 0. -1.
          1   -1    0    0  501    0 -0.00000000000E+00 -0.00000000000E+00 -0.12865764448E+03  0.12865764448E+03  0.00000000000E+00 0. -1.
         25    2    1    2    0    0 -0.73022628912E+02 -0.15170918444E+03  0.75923183486E+03  0.78765843260E+03  0.12499938564E+03 0.  0.
          2    1    1    2  501    0 -0.45006348052E+02  0.39573721264E+02 -0.10036761228E+03  0.11689870990E+03  0.00000000000E+00 0. -1.
          1    1    1    2  502    0  0.11802897696E+03  0.11213546318E+03  0.11344555475E+04  0.11460779166E+04  0.00000000000E+00 0. -1.
         22    1    3    3    0    0 -0.41551505146E+02 -0.16784493708E+03  0.66145166755E+03  0.68367884199E+03  0.00000000000E+00 0. -1.
         22    1    3    3    0    0 -0.31471123765E+02  0.16135752643E+02  0.97780167314E+02  0.10397959061E+03  0.00000000000E+00 0. -1.
</event>
<event>
 7    1  0.4822463E-005  0.4847537E+03  0.7818608E-02  0.1122328E+00
          2   -1    0    0  502    0  0.00000000000E+00  0.00000000000E+00  0.72699791936E+03  0.72699791936E+03  0.00000000000E+00 0. -1.
          1   -1    0    0  501    0 -0.00000000000E+00 -0.00000000000E+00 -0.54984858454E+03  0.54984858454E+03  0.00000000000E+00 0. -1.
         25    2    1    2    0    0  0.58758815965E+02  0.51233516703E+03  0.42843449368E+03  0.68199775814E+03  0.12499961958E+03 0.  0.
          2    1    1    2  501    0 -0.61429218247E+02 -0.97364150942E+02 -0.10207532462E+03  0.15385934693E+03  0.00000000000E+00 0. -1.
          1    1    1    2  502    0  0.26704022824E+01 -0.41497101609E+03 -0.14920983424E+03  0.44098939883E+03  0.00000000000E+00 0. -1.
         22    1    3    3    0    0  0.88466373533E+02  0.45561826515E+03  0.35338698029E+03  0.58334951840E+03  0.00000000000E+00 0. -1.
         22    1    3    3    0    0 -0.29707557568E+02  0.56716901885E+02  0.75047513395E+02  0.98648239735E+02  0.00000000000E+00 0. -1.
</event>
<event>
 7    1  0.4822463E-005  0.3452769E+03  0.7818608E-02  0.1117500E+00
          2   -1    0    0  502    0  0.00000000000E+00  0.00000000000E+00  0.12799822388E+04  0.12799822388E+04  0.00000000000E+00 0. -1.
          1   -1    0    0  501    0 -0.00000000000E+00 -0.00000000000E+00 -0.57168219933E+03  0.57168219933E+03  0.00000000000E+00 0. -1.
         25    2    1    2    0    0  0.20847824676E+03  0.33567841345E+03  0.55838908939E+03  0.69538939494E+03  0.12499943527E+03 0.  0.
          2    1    1    2  501    0  0.67358669976E+02 -0.15792227542E+03 -0.44493947411E+03  0.47691484682E+03  0.00000000000E+00 0. -1.
          1    1    1    2  502    0 -0.27583691674E+03 -0.17775613803E+03  0.59485042424E+03  0.67936019641E+03  0.00000000000E+00 0. -1.
         22    1    3    3    0    0  0.12897895270E+03  0.22353536932E+03  0.45606938570E+03  0.52402568272E+03  0.00000000000E+00 0. -1.
         22    1    3    3    0    0  0.79499294065E+02  0.11214304413E+03  0.10231970369E+03  0.17136371222E+03  0.00000000000E+00 0. -1.
</event>
<event>
 7    1  0.4822463E-005  0.2871757E+03  0.7818608E-02  0.1255545E+00
          2   -1    0    0  502    0  0.00000000000E+00  0.00000000000E+00  0.83873900985E+03  0.83873900985E+03  0.00000000000E+00 0. -1.
          1   -1    0    0  501    0 -0.00000000000E+00 -0.00000000000E+00 -0.24331445583E+03  0.24331445583E+03  0.00000000000E+00 0. -1.
         25    2    1    2    0    0  0.58191013909E+02  0.31294901193E+03  0.21030256024E+03  0.40146628058E+03  0.12499891771E+03 0.  0.
          2    1    1    2  501    0 -0.47552927893E+02 -0.26997197552E+03 -0.18304597660E+02  0.27473843345E+03  0.00000000000E+00 0. -1.
          1    1    1    2  502    0 -0.10638086016E+02 -0.42977036412E+02  0.40342659144E+03  0.40584875165E+03  0.00000000000E+00 0. -1.
         22    1    3    3    0    0  0.34600474016E+02  0.81534036757E+01  0.14268486506E+02  0.38304836520E+02  0.00000000000E+00 0.  1.
         22    1    3    3    0    0  0.23590539893E+02  0.30479560826E+03  0.19603407374E+03  0.36316144406E+03  0.00000000000E+00 0.  1.
</event>
<event>
 7    1  0.4822463E-005  0.3515669E+03  0.7818608E-02  0.1068926E+00
          2   -1    0    0  502    0  0.00000000000E+00  0.00000000000E+00  0.72951553734E+03  0.72951553734E+03  0.00000000000E+00 0. -1.
          1   -1    0    0  501    0 -0.00000000000E+00 -0.00000000000E+00 -0.61056358935E+03  0.61056358935E+03  0.00000000000E+00 0. -1.
         25    2    1    2    0    0 -0.31533538449E+02 -0.38053351671E+03  0.71279187905E+02  0.40804892737E+03  0.12499233222E+03 0.  0.
          2    1    1    2  501    0  0.30811107738E+03  0.22097701018E+03 -0.28241404049E+03  0.47278003902E+03  0.00000000000E+00 0. -1.
          1    1    1    2  502    0 -0.27657753893E+03  0.15955650652E+03  0.33008680058E+03  0.45925016029E+03  0.00000000000E+00 0. -1.
         22    1    3    3    0    0  0.23485012176E+02 -0.16962043585E+03 -0.18658494943E+02  0.17225207543E+03  0.00000000000E+00 0. -1.
         22    1    3    3    0    0 -0.55018550625E+02 -0.21091308085E+03  0.89937682848E+02  0.23579685194E+03  0.00000000000E+00 0. -1.
</event>
<event>
 7    1  0.4822463E-005  0.3115798E+03  0.7818608E-02  0.1081123E+00
          2   -1    0    0  502    0  0.00000000000E+00  0.00000000000E+00  0.63813110194E+03  0.63813110194E+03  0.00000000000E+00 0. -1.
          1   -1    0    0  501    0 -0.00000000000E+00 -0.00000000000E+00 -0.51450934366E+03  0.51450934366E+03  0.00000000000E+00 0. -1.
         25    2    1    2    0    0 -0.34377731111E+03  0.11272471888E+03  0.20922219591E+03  0.43622051634E+03  0.12499883893E+03 0.  0.
          2    1    1    2  501    0  0.23175221682E+03  0.19862406165E+03 -0.20159507685E+03  0.36578844006E+03  0.00000000000E+00 0. -1.
          1    1    1    2  502    0  0.11202509429E+03 -0.31134878053E+03  0.11599463923E+03  0.35063148920E+03  0.00000000000E+00 0. -1.
         22    1    3    3    0    0 -0.10973673773E+03 -0.22908409255E+02  0.67215004244E+02  0.13070885057E+03  0.00000000000E+00 0.  1.
         22    1    3    3    0    0 -0.23404057338E+03  0.13563312814E+03  0.14200719167E+03  0.30551166577E+03  0.00000000000E+00 0.  1.
</event>
<event>
 7    1  0.4822463E-005  0.2085850E+03  0.7818608E-02  0.1256368E+00
          2   -1    0    0  502    0  0.00000000000E+00  0.00000000000E+00  0.15118373505E+04  0.15118373505E+04  0.00000000000E+00 0. -1.
          1   -1    0    0  501    0 -0.00000000000E+00 -0.00000000000E+00 -0.21958980332E+04  0.21958980332E+04  0.00000000000E+00 0. -1.
         25    2    1    2    0    0  0.54514978907E+01  0.20928652922E+03 -0.62435489049E+01  0.24390111138E+03  0.12497279740E+03 0.  0.
          2    1    1    2  501    0  0.54529844034E+02 -0.20168081510E+03 -0.20648959965E+04  0.20754382986E+04  0.00000000000E+00 0. -1.
          1    1    1    2  502    0 -0.59981341925E+02 -0.76057141181E+01  0.13870788627E+04  0.13883959737E+04  0.00000000000E+00 0. -1.
         22    1    3    3    0    0  0.59754785335E+02  0.15126241563E+03 -0.17742760715E+02  0.16360243981E+03  0.00000000000E+00 0.  1.
         22    1    3    3    0    0 -0.54303287444E+02  0.58024113588E+02  0.11499211810E+02  0.80298671578E+02  0.00000000000E+00 0.  1.
</event>
<event>
 7    1  0.4822463E-005  0.5596077E+02  0.7818608E-02  0.1424205E+00
          2   -1    0    0  502    0  0.00000000000E+00  0.00000000000E+00  0.29323425664E+04  0.29323425664E+04  0.00000000000E+00 0. -1.
          1   -1    0    0  501    0 -0.00000000000E+00 -0.00000000000E+00 -0.86948657295E+01  0.86948657295E+01  0.00000000000E+00 0. -1.
         25    2    1    2    0    0 -0.29555919056E+02 -0.62988308557E+02  0.20844644829E+04  0.20893678177E+04  0.12499847231E+03 0.  0.
          2    1    1    2  501    0 -0.21697256277E+02  0.52178374421E+02  0.14669238140E+03  0.15720053577E+03  0.00000000000E+00 0. -1.
          1    1    1    2  502    0  0.51253175334E+02  0.10809934136E+02  0.69249083640E+03  0.69446907862E+03  0.00000000000E+00 0. -1.
         22    1    3    3    0    0  0.29785149195E+02 -0.47639658405E+02  0.16074348916E+04  0.16084164955E+04  0.00000000000E+00 0. -1.
         22    1    3    3    0    0 -0.59341068251E+02 -0.15348650152E+02  0.47702959123E+03  0.48095132223E+03  0.00000000000E+00 0. -1.
</event>
<event>
 7    1  0.4822463E-005  0.4768028E+03  0.7818608E-02  0.1057048E+00
          2   -1    0    0  502    0  0.00000000000E+00  0.00000000000E+00  0.13453436049E+04  0.13453436049E+04  0.00000000000E+00 0. -1.
          1   -1    0    0  501    0 -0.00000000000E+00 -0.00000000000E+00 -0.69481127255E+03  0.69481127255E+03  0.00000000000E+00 0. -1.
         25    2    1    2    0    0 -0.49590746757E+03 -0.26272008439E+03  0.85801504048E+03  0.10328417000E+04  0.12500443328E+03 0.  0.
          2    1    1    2  501    0  0.96357061300E+02  0.26048967875E+03 -0.45805890526E+03  0.53568415758E+03  0.00000000000E+00 0. -1.
          1    1    1    2  502    0  0.39955040627E+03  0.22304056415E+01  0.25057619712E+03  0.47162901991E+03  0.00000000000E+00 0. -1.
         22    1    3    3    0    0 -0.39273184495E+03 -0.14944355105E+03  0.66101645480E+03  0.78327161988E+03  0.00000000000E+00 0. -1.
         22    1    3    3    0    0 -0.10317562262E+03 -0.11327653335E+03  0.19699858567E+03  0.24957008007E+03  0.00000000000E+00 0. -1.
</event>
<event>
 7    1  0.4822463E-005  0.9330941E+02  0.7818608E-02  0.1305142E+00
          2   -1    0    0  502    0  0.00000000000E+00  0.00000000000E+00  0.33524008859E+03  0.33524008859E+03  0.00000000000E+00 0. -1.
          1   -1    0    0  501    0 -0.00000000000E+00 -0.00000000000E+00 -0.54451861240E+03  0.54451861240E+03  0.00000000000E+00 0. -1.
         25    2    1    2    0    0  0.42040783600E+02  0.81405135582E+02  0.25896582395E+03  0.30181678561E+03  0.12504339455E+03 0.  0.
          2    1    1    2  501    0  0.42937882265E+02 -0.83563756836E+02 -0.48266305781E+03  0.49172165965E+03  0.00000000000E+00 0. -1.
          1    1    1    2  502    0 -0.84978665865E+02  0.21586212537E+01  0.14418710048E+02  0.86220255725E+02  0.00000000000E+00 0. -1.
         22    1    3    3    0    0  0.73188363227E+02  0.44604867399E+02  0.82797149451E+02  0.11917004097E+03  0.00000000000E+00 0.  1.
         22    1    3    3    0    0 -0.31147579628E+02  0.36800268183E+02  0.17616867450E+03  0.18264674464E+03  0.00000000000E+00 0.  1.
</event>
<event>
 7    1  0.1127744E-004  0.1374863E+04  0.7818608E-02  0.1122288E+00
          2   -1    0    0  502    0  0.00000000000E+00  0.00000000000E+00  0.11627312004E+04  0.11627312004E+04  0.00000000000E+00 0. -1.
          1   -1    0    0  501    0 -0.00000000000E+00 -0.00000000000E+00 -0.26771269018E+04  0.26771269018E+04  0.00000000000E+00 0. -1.
         25    2    1    2    0    0  0.44769798990E+03  0.12869562043E+04  0.20831003969E+03  0.13840907663E+04  0.12499765904E+03 0.  0.
          2    1    1    2  501    0  0.84239679674E+01  0.39727139316E+02 -0.74424414227E+03  0.74535129445E+03  0.00000000000E+00 0. -1.
          1    1    1    2  502    0 -0.45612195787E+03 -0.13266833436E+04 -0.97846159875E+03  0.17104160415E+04  0.00000000000E+00 0. -1.
         22    1    3    3    0    0  0.13366367297E+03  0.56655202004E+03  0.73296106553E+02  0.58670221418E+03  0.00000000000E+00 0.  1.
         22    1    3    3    0    0  0.31403431694E+03  0.72040418424E+03  0.13501393314E+03  0.79738855211E+03  0.00000000000E+00 0.  1.
</event>
<event>
 7    1  0.4822463E-005  0.2623635E+03  0.7818608E-02  0.1208690E+00
          2   -1    0    0  502    0  0.00000000000E+00  0.00000000000E+00  0.12902703611E+04  0.12902703611E+04  0.00000000000E+00 0. -1.
          1   -1    0    0  501    0 -0.00000000000E+00 -0.00000000000E+00 -0.42033940376E+03  0.42033940376E+03  0.00000000000E+00 0. -1.
         25    2    1    2    0    0  0.11794679581E+03 -0.26534653877E+03 -0.98266056993E+02  0.33106153332E+03  0.12500115445E+03 0.  0.
          2    1    1    2  501    0 -0.78152282310E+02  0.72976139130E+01 -0.18299461628E+03  0.19911821611E+03  0.00000000000E+00 0. -1.
          1    1    1    2  502    0 -0.39794513501E+02  0.25804892485E+03  0.11511916306E+04  0.11804300154E+04  0.00000000000E+00 0. -1.
         22    1    3    3    0    0  0.73794904550E+02 -0.41117927321E+02 -0.62819842401E+01  0.84710301680E+02  0.00000000000E+00 0.  1.
         22    1    3    3    0    0  0.44151891261E+02 -0.22422861145E+03 -0.91984072753E+02  0.24635123164E+03  0.00000000000E+00 0.  1.
</event>
<event>
 7    1  0.4822463E-005  0.4851451E+03  0.7818608E-02  0.1076754E+00
          2   -1    0    0  502    0  0.00000000000E+00  0.00000000000E+00  0.20703249623E+04  0.20703249623E+04  0.00000000000E+00 0. -1.
          1   -1    0    0  501    0 -0.00000000000E+00 -0.00000000000E+00 -0.96090538223E+03  0.96090538223E+03  0.00000000000E+00 0. -1.
         25    2    1    2    0    0  0.21794789020E+03  0.58703732702E+03  0.25888967389E+03  0.68903035543E+03  0.12499944518E+03 0.  0.
          2    1    1    2  501    0  0.44630897792E+02 -0.20308585157E+03 -0.69643622219E+03  0.72681441353E+03  0.00000000000E+00 0. -1.
          1    1    1    2  502    0 -0.26257878799E+03 -0.38395147546E+03  0.15469661284E+04  0.16153855756E+04  0.00000000000E+00 0. -1.
         22    1    3    3    0    0  0.81425838533E+02  0.38977628281E+03  0.14887692329E+03  0.42511181601E+03  0.00000000000E+00 0. -1.
         22    1    3    3    0    0  0.13652205167E+03  0.19726104422E+03  0.11001275059E+03  0.26391853942E+03  0.00000000000E+00 0. -1.
</event>
<event>
 7    1  0.4822463E-005  0.2586455E+03  0.7818608E-02  0.1158342E+00
          2   -1    0    0  502    0  0.00000000000E+00  0.00000000000E+00  0.40015202409E+03  0.40015202409E+03  0.00000000000E+00 0. -1.
          1   -1    0    0  501    0 -0.00000000000E+00 -0.00000000000E+00 -0.30982583745E+04  0.30982583745E+04  0.00000000000E+00 0. -1.
         25    2    1    2    0    0 -0.26057337684E+03 -0.24000739535E+03 -0.10687707566E+04  0.11328712850E+04  0.12499753476E+03 0.  0.
          2    1    1    2  501    0  0.12558975921E+03  0.20375368342E+03 -0.19766854821E+04  0.19911237647E+04  0.00000000000E+00 0. -1.
          1    1    1    2  502    0  0.13498361764E+03  0.36253711936E+02  0.34734988825E+03  0.37441534895E+03  0.00000000000E+00 0. -1.
         22    1    3    3    0    0 -0.24830404290E+03 -0.19231222177E+03 -0.79653055244E+03  0.85621247908E+03  0.00000000000E+00 0.  1.
         22    1    3    3    0    0 -0.12269333939E+02 -0.47695173584E+02 -0.27224020413E+03  0.27665880590E+03  0.00000000000E+00 0.  1.
</event>
<event>
 7    1  0.4822463E-005  0.1246057E+03  0.7818608E-02  0.1237093E+00
          2   -1    0    0  502    0  0.00000000000E+00  0.00000000000E+00  0.51260478771E+03  0.51260478771E+03  0.00000000000E+00 0. -1.
          1   -1    0    0  501    0 -0.00000000000E+00 -0.00000000000E+00 -0.77634999856E+03  0.77634999856E+03  0.00000000000E+00 0. -1.
         25    2    1    2    0    0 -0.73092623435E+02  0.46925230654E+02 -0.97661500024E+02  0.18085184067E+03  0.12500044325E+03 0.  0.
          2    1    1    2  501    0  0.91372619484E+02  0.82085172807E+02 -0.62195924786E+03  0.63397179526E+03  0.00000000000E+00 0. -1.
          1    1    1    2  502    0 -0.18279996049E+02 -0.12901040346E+03  0.45587553704E+03  0.47413115034E+03  0.00000000000E+00 0. -1.
         22    1    3    3    0    0  0.19255325618E+02  0.45053689815E+02 -0.68051994889E+02  0.83855092505E+02  0.00000000000E+00 0. -1.
         22    1    3    3    0    0 -0.92347949053E+02  0.18715408394E+01 -0.29609505136E+02  0.96996748161E+02  0.00000000000E+00 0. -1.
</event>
<event>
 7    1  0.4822463E-005  0.4771062E+03  0.7818608E-02  0.1046276E+00
          2   -1    0    0  502    0  0.00000000000E+00  0.00000000000E+00  0.11303642700E+04  0.11303642700E+04  0.00000000000E+00 0. -1.
          1   -1    0    0  501    0 -0.00000000000E+00 -0.00000000000E+00 -0.77493549887E+03  0.77493549887E+03  0.00000000000E+00 0. -1.
         25    2    1    2    0    0  0.26543065698E+03  0.39249545447E+03  0.29911229719E+03  0.57410455081E+03  0.12498701322E+03 0.  0.
          2    1    1    2  501    0  0.23239729181E+03 -0.22505460456E+03 -0.48109034169E+03  0.57974649041E+03  0.00000000000E+00 0. -1.
          1    1    1    2  502    0 -0.49782794880E+03 -0.16744084991E+03  0.53740681566E+03  0.75144872768E+03  0.00000000000E+00 0. -1.
         22    1    3    3    0    0  0.92873684231E+02  0.11185066103E+03  0.29384691668E+02  0.14832245852E+03  0.00000000000E+00 0. -1.
         22    1    3    3    0    0  0.17255697275E+03  0.28064479344E+03  0.26972760552E+03  0.42578209229E+03  0.00000000000E+00 0. -1.
</event>
<event>
 7    1  0.4822463E-005  0.8221553E+03  0.7818608E-02  0.1148612E+00
          2   -1    0    0  502    0  0.00000000000E+00  0.00000000000E+00  0.84759354161E+03  0.84759354161E+03  0.00000000000E+00 0. -1.
          1   -1    0    0  501    0 -0.00000000000E+00 -0.00000000000E+00 -0.13305773825E+04  0.13305773825E+04  0.00000000000E+00 0. -1.
         25    2    1    2    0    0 -0.49722986107E+03  0.66580695884E+03 -0.93576204435E+02  0.84552830166E+03  0.12500064677E+03 0.  0.
          2    1    1    2  501    0  0.45086589256E+03 -0.68258772804E+03 -0.66402763962E+03  0.10536312285E+04  0.00000000000E+00 0. -1.
          1    1    1    2  502    0  0.46363968511E+02  0.16780769195E+02  0.27462000317E+03  0.27901139391E+03  0.00000000000E+00 0. -1.
         22    1    3    3    0    0 -0.40724377665E+03  0.56220076659E+03 -0.12342888620E+03  0.70508998399E+03  0.00000000000E+00 0.  1.
         22    1    3    3    0    0 -0.89986084418E+02  0.10360619225E+03  0.29852681765E+02  0.14043831767E+03  0.00000000000E+00 0.  1.
</event>
<event>
 7    1  0.4822463E-005  0.1952741E+03  0.7818608E-02  0.1226080E+00
          2   -1    0    0  502    0  0.00000000000E+00  0.00000000000E+00  0.88815973210E+03  0.88815973210E+03  0.00000000000E+00 0. -1.
          1   -1    0    0  501    0 -0.00000000000E+00 -0.00000000000E+00 -0.24177002501E+03  0.24177002501E+03  0.00000000000E+00 0. -1.
         25    2    1    2    0    0 -0.77761473852E+02  0.24376284361E+03  0.36510608858E+03  0.46302715688E+03  0.12499808536E+03 0.  0.
          2    1    1    2  501    0  0.10193499557E+03 -0.15936661043E+03 -0.14077559584E+03  0.23580972886E+03  0.00000000000E+00 0. -1.
          1    1    1    2  502    0 -0.24173521714E+02 -0.84396233181E+02  0.42205921435E+03  0.43109287137E+03  0.00000000000E+00 0. -1.
         22    1    3    3    0    0 -0.12625865739E+02  0.47850133575E+02  0.17679047242E+03  0.18358627102E+03  0.00000000000E+00 0. -1.
         22    1    3    3    0    0 -0.65135608113E+02  0.19591271004E+03  0.18831561617E+03  0.27944088586E+03  0.00000000000E+00 0. -1.
</event>
<event>
 7    1  0.4822463E-005  0.1489431E+04  0.7818608E-02  0.1115794E+00
          2   -1    0    0  502    0  0.00000000000E+00  0.00000000000E+00  0.19613531321E+04  0.19613531321E+04  0.00000000000E+00 0. -1.
          1   -1    0    0  501    0 -0.00000000000E+00 -0.00000000000E+00 -0.14271363423E+04  0.14271363423E+04  0.00000000000E+00 0. -1.
         25    2    1    2    0    0  0.47543660398E+03 -0.14042643617E+04  0.83416589644E+03  0.17057128270E+04  0.12500057427E+03 0.  0.
          2    1    1    2  501    0  0.40026093944E+02 -0.71709106790E+01 -0.16972642110E+03  0.17452956247E+03  0.00000000000E+00 0. -1.
          1    1    1    2  502    0 -0.51546269793E+03  0.14114352724E+04 -0.13022268560E+03  0.15082470849E+04  0.00000000000E+00 0. -1.
         22    1    3    3    0    0  0.45543033164E+03 -0.12174596652E+04  0.72233381957E+03  0.14870746350E+04  0.00000000000E+00 0.  1.
         22    1    3    3    0    0  0.20006272347E+02 -0.18680469656E+03  0.11183207687E+03  0.21863819201E+03  0.00000000000E+00 0.  1.
</event>
<event>
 7    1  0.4822463E-005  0.2855179E+03  0.7818608E-02  0.1274218E+00
          2   -1    0    0  502    0  0.00000000000E+00  0.00000000000E+00  0.59987455759E+03  0.59987455759E+03  0.00000000000E+00 0. -1.
          1   -1    0    0  501    0 -0.00000000000E+00 -0.00000000000E+00 -0.99434355491E+03  0.99434355491E+03  0.00000000000E+00 0. -1.
         25    2    1    2    0    0  0.10461657871E+03  0.26767299200E+03 -0.70112124380E+03  0.76797750232E+03  0.12499994548E+03 0.  0.
          2    1    1    2  501    0 -0.13607324361E+03 -0.24796802807E+03 -0.18189300099E+03  0.33628727954E+03  0.00000000000E+00 0. -1.
          1    1    1    2  502    0  0.31456664905E+02 -0.19704963930E+02  0.48854524747E+03  0.48995333063E+03  0.00000000000E+00 0. -1.
         22    1    3    3    0    0 -0.10554103848E+02  0.13791051474E+03 -0.27309199509E+03  0.30612078820E+03  0.00000000000E+00 0. -1.
         22    1    3    3    0    0  0.11517068255E+03  0.12976247725E+03 -0.42802924871E+03  0.46185671412E+03  0.00000000000E+00 0. -1.
</event>
<event>
 7    1  0.4822463E-005  0.4544648E+03  0.7818608E-02  0.1051650E+00
          2   -1    0    0  502    0  0.00000000000E+00  0.00000000000E+00  0.13942846630E+04  0.13942846630E+04  0.00000000000E+00 0. -1.
          1   -1    0    0  501    0 -0.00000000000E+00 -0.00000000000E+00 -0.84263309168E+03  0.84263309168E+03  0.00000000000E+00 0. -1.
         25    2    1    2    0    0  0.33101566594E+03 -0.57659227500E+03  0.67669515271E+03  0.95685611450E+03  0.12500908558E+03 0.  0.
          2    1    1    2  501    0 -0.35262692095E+03  0.26282006195E+03 -0.57943613667E+03  0.72743822200E+03  0.00000000000E+00 0. -1.
          1    1    1    2  502    0  0.21611255009E+02  0.31377221304E+03  0.45439255529E+03  0.55262341818E+03  0.00000000000E+00 0. -1.
         22    1    3    3    0    0  0.11433224727E+03 -0.95950065939E+02  0.15215421951E+03  0.21314123119E+03  0.00000000000E+00 0.  1.
         22    1    3    3    0    0  0.21668341866E+03 -0.48064220906E+03  0.52454093320E+03  0.74371488331E+03  0.00000000000E+00 0.  1.
</event>
<event>
 7    1  0.4822463E-005  0.4492138E+03  0.7818608E-02  0.1162216E+00
          2   -1    0    0  502    0  0.00000000000E+00  0.00000000000E+00  0.23532087839E+04  0.23532087839E+04  0.00000000000E+00 0. -1.
          1   -1    0    0  501    0 -0.00000000000E+00 -0.00000000000E+00 -0.69719059656E+03  0.69719059656E+03  0.00000000000E+00 0. -1.
         25    2    1    2    0    0 -0.34237883251E+03  0.29655655228E+03  0.76544513453E+03  0.89816537631E+03  0.12500294222E+03 0.  0.
          2    1    1    2  501    0  0.38472145007E+03 -0.23233013031E+03 -0.54962505472E+03  0.70998280569E+03  0.00000000000E+00 0. -1.
          1    1    1    2  502    0 -0.42342617565E+02 -0.64226421977E+02  0.14401981075E+04  0.14422511984E+04  0.00000000000E+00 0. -1.
         22    1    3    3    0    0 -0.31169512339E+03  0.30486604007E+03  0.73209627274E+03  0.85209277951E+03  0.00000000000E+00 0.  1.
         22    1    3    3    0    0 -0.30683709119E+02 -0.83094877894E+01  0.33348861796E+02  0.46072596798E+02  0.00000000000E+00 0.  1.
</event>
<event>
 7    1  0.4822463E-005  0.2796660E+03  0.7818608E-02  0.1161113E+00
          2   -1    0    0  502    0  0.00000000000E+00  0.00000000000E+00  0.11422109271E+04  0.11422109271E+04  0.00000000000E+00 0. -1.
          1   -1    0    0  501    0 -0.00000000000E+00 -0.00000000000E+00 -0.16029613430E+03  0.16029613430E+03  0.00000000000E+00 0. -1.
         25    2    1    2    0    0 -0.27115359105E+03  0.15358732300E+03  0.79369820993E+02  0.34501676606E+03  0.12499465848E+03 0.  0.
          2    1    1    2  501    0  0.14953262383E+03 -0.12404021281E+03  0.56710033207E+03  0.59945705986E+03  0.00000000000E+00 0. -1.
          1    1    1    2  502    0  0.12162096722E+03 -0.29547110188E+02  0.33544463976E+03  0.35803323552E+03  0.00000000000E+00 0. -1.
         22    1    3    3    0    0 -0.43444798126E+01  0.28388525566E+02 -0.18855975947E+02  0.34355941518E+02  0.00000000000E+00 0.  1.
         22    1    3    3    0    0 -0.26680911124E+03  0.12519879743E+03  0.98225796940E+02  0.31066082454E+03  0.00000000000E+00 0.  1.
</event>
<event>
 7    1  0.1583094E-004  0.6859739E+02  0.7818608E-02  0.1480590E+00
          2   -1    0    0  502    0  0.00000000000E+00  0.00000000000E+00  0.31964944672E+04  0.31964944672E+04  0.00000000000E+00 0. -1.
          1   -1    0    0  501    0 -0.00000000000E+00 -0.00000000000E+00 -0.12270199690E+04  0.12270199690E+04  0.00000000000E+00 0. -1.
         25    2    1    2    0    0  0.34064977860E+02 -0.24603886629E+02 -0.41970060557E+03  0.43993085908E+03  0.12499915400E+03 0.  0.
          2    1    1    2  501    0  0.27766130094E+02 -0.51572952216E+01 -0.79658453288E+03  0.79708498524E+03  0.00000000000E+00 0. -1.
          1    1    1    2  502    0 -0.61831107954E+02  0.29761181851E+02  0.31857596366E+04  0.31864985919E+04  0.00000000000E+00 0. -1.
         22    1    3    3    0    0  0.18014787691E+02 -0.70525513162E+02 -0.32954804003E+03  0.33749117214E+03  0.00000000000E+00 0. -1.
         22    1    3    3    0    0  0.16050190169E+02  0.45921626532E+02 -0.90152565541E+02  0.10243968695E+03  0.00000000000E+00 0. -1.
</event>
<event>
 7    1  0.4822463E-005  0.2564256E+03  0.7818608E-02  0.1261641E+00
          2   -1    0    0  502    0  0.00000000000E+00  0.00000000000E+00  0.63365386097E+03  0.63365386097E+03  0.00000000000E+00 0. -1.
          1   -1    0    0  501    0 -0.00000000000E+00 -0.00000000000E+00 -0.85177522093E+03  0.85177522093E+03  0.00000000000E+00 0. -1.
         25    2    1    2    0    0  0.10481091050E+03  0.24098831263E+03 -0.56486226837E+02  0.29644023504E+03  0.12500170136E+03 0.  0.
          2    1    1    2  501    0  0.37262971798E+02 -0.28138770192E+02 -0.64253902029E+03  0.64423342978E+03  0.00000000000E+00 0. -1.
          1    1    1    2  502    0 -0.14207388230E+03 -0.21284954244E+03  0.48090388717E+03  0.54475541708E+03  0.00000000000E+00 0. -1.
         22    1    3    3    0    0  0.82501476941E+02  0.90700321648E+02 -0.74456771241E+02  0.14344634129E+03  0.00000000000E+00 0. -1.
         22    1    3    3    0    0  0.22309433561E+02  0.15028799098E+03  0.17970544404E+02  0.15299389375E+03  0.00000000000E+00 0. -1.
</event>
<event>
 7    1  0.4822463E-005  0.5312045E+03  0.7818608E-02  0.1110246E+00
          2   -1    0    0  502    0  0.00000000000E+00  0.00000000000E+00  0.67571522842E+03  0.67571522842E+03  0.00000000000E+00 0. -1.
          1   -1    0    0  501    0 -0.00000000000E+00 -0.00000000000E+00 -0.14436721602E+04  0.14436721602E+04  0.00000000000E+00 0. -1.
         25    2    1    2    0    0  0.57303735396E+03 -0.16809277528E+03 -0.67764226023E+03  0.91183928415E+03  0.12499942855E+03 0.  0.
          2    1    1    2  501    0 -0.10484014124E+03 -0.63005510867E+02 -0.51823226208E+03  0.53247143310E+03  0.00000000000E+00 0. -1.
          1    1    1    2  502    0 -0.46819721271E+03  0.23109828615E+03  0.42791759057E+03  0.67507667133E+03  0.00000000000E+00 0. -1.
         22    1    3    3    0    0  0.30961401343E+03 -0.15242337264E+03 -0.41139606150E+03  0.53697340833E+03  0.00000000000E+00 0.  1.
         22    1    3    3    0    0  0.26342334052E+03 -0.15669402639E+02 -0.26624619874E+03  0.37486587582E+03  0.00000000000E+00 0.  1.
</event>
<event>
 7    1  0.4822463E-005  0.8078052E+03  0.7818608E-02  0.1193073E+00
          2   -1    0    0  502    0  0.00000000000E+00  0.00000000000E+00  0.17422515524E+04  0.17422515524E+04  0.00000000000E+00 0. -1.
          1   -1    0    0  501    0 -0.00000000000E+00 -0.00000000000E+00 -0.76371825627E+03  0.76371825627E+03  0.00000000000E+00 0. -1.
         25    2    1    2    0    0  0.51502314588E+03  0.59785078783E+03  0.29354398656E+03  0.85115651618E+03  0.12499975076E+03 0.  0.
          2    1    1    2  501    0 -0.53711116890E+03 -0.61844199506E+03 -0.13851985470E+03  0.83075066004E+03  0.00000000000E+00 0. -1.
          1    1    1    2  502    0  0.22088023024E+02  0.20591207225E+02  0.82350916422E+03  0.82406263241E+03  0.00000000000E+00 0. -1.
         22    1    3    3    0    0  0.29677796406E+03  0.35668053293E+03  0.23697582165E+03  0.52101410976E+03  0.00000000000E+00 0.  1.
         22    1    3    3    0    0  0.21824518182E+03  0.24117025491E+03  0.56568164912E+02  0.33014240642E+03  0.00000000000E+00 0.  1.
</event>
<event>
 7    1  0.4822463E-005  0.9485882E+03  0.7818608E-02  0.1176466E+00
          2   -1    0    0  502    0  0.00000000000E+00  0.00000000000E+00  0.16970583221E+04  0.16970583221E+04  0.00000000000E+00 0. -1.
          1   -1    0    0  501    0 -0.00000000000E+00 -0.00000000000E+00 -0.71970615039E+03  0.71970615039E+03  0.00000000000E+00 0. -1.
         25    2    1    2    0    0  0.70497354019E+03  0.62190196344E+03  0.90213748199E+03  0.13089036310E+04  0.12500773767E+03 0.  0.
          2    1    1    2  501    0  0.30816716810E+02  0.28216332206E+01 -0.11928221997E+03  0.12323100118E+03  0.00000000000E+00 0. -1.
          1    1    1    2  502    0 -0.73579025700E+03 -0.62472359666E+03  0.19449690973E+03  0.98462984030E+03  0.00000000000E+00 0. -1.
         22    1    3    3    0    0  0.48994953413E+03  0.38961030449E+03  0.52877860073E+03  0.81942268943E+03  0.00000000000E+00 0.  1.
         22    1    3    3    0    0  0.21502400605E+03  0.23229165894E+03  0.37335888126E+03  0.48948094162E+03  0.00000000000E+00 0.  1.
</event>
<event>
 7    1  0.4822463E-005  0.1067890E+04  0.7818608E-02  0.1140552E+00
          2   -1    0    0  502    0  0.00000000000E+00  0.00000000000E+00  0.76715114792E+03  0.76715114792E+03  0.00000000000E+00 0. -1.
          1   -1    0    0  501    0 -0.00000000000E+00 -0.00000000000E+00 -0.21970139560E+04  0.21970139560E+04  0.00000000000E+00 0. -1.
         25    2    1    2    0    0  0.58719112464E+03  0.87531932424E+03 -0.60874457266E+03  0.12235901877E+04  0.12500262597E+03 0.  0.
          2    1    1    2  501    0  0.41803035804E+02 -0.23424226048E+00 -0.64767289721E+03  0.64902059324E+03  0.00000000000E+00 0. -1.
          1    1    1    2  502    0 -0.62899416045E+03 -0.87508508198E+03 -0.17344533820E+03  0.10915543229E+04  0.00000000000E+00 0. -1.
         22    1    3    3    0    0  0.22593016438E+03  0.23974883037E+03 -0.21285330873E+03  0.39221227910E+03  0.00000000000E+00 0. -1.
         22    1    3    3    0    0  0.36126096027E+03  0.63557049387E+03 -0.39589126393E+03  0.83137790862E+03  0.00000000000E+00 0. -1.
</event>
<event>
 7    1  0.4822463E-005  0.1953487E+03  0.7818608E-02  0.1280432E+00
          2   -1    0    0  502    0  0.00000000000E+00  0.00000000000E+00  0.23968218187E+03  0.23968218187E+03  0.00000000000E+00 0. -1.
          1   -1    0    0  501    0 -0.00000000000E+00 -0.00000000000E+00 -0.63182081330E+03  0.63182081330E+03  0.00000000000E+00 0. -1.
         25    2    1    2    0    0 -0.46091106869E+02 -0.21824236384E+03 -0.17393669634E+03  0.30924903567E+03  0.12500748867E+03 0.  0.
          2    1    1    2  501    0 -0.27487425117E+02  0.43106338460E+02 -0.33524928702E+03  0.33912504980E+03  0.00000000000E+00 0. -1.
          1    1    1    2  502    0  0.73578531985E+02  0.17513602538E+03  0.11704735193E+03  0.22312890971E+03  0.00000000000E+00 0. -1.
         22    1    3    3    0    0 -0.63689142864E+02 -0.20681910928E+03 -0.11161793794E+03  0.24349335710E+03  0.00000000000E+00 0.  1.
         22    1    3    3    0    0  0.17598035996E+02 -0.11423254556E+02 -0.62318758400E+02  0.65755678569E+02  0.00000000000E+00 0.  1.
</event>
<event>
 7    1  0.4822463E-005  0.1150682E+03  0.7818608E-02  0.1317779E+00
          2   -1    0    0  502    0  0.00000000000E+00  0.00000000000E+00  0.76697134388E+03  0.76697134388E+03  0.00000000000E+00 0. -1.
          1   -1    0    0  501    0 -0.00000000000E+00 -0.00000000000E+00 -0.40862119447E+03  0.40862119447E+03  0.00000000000E+00 0. -1.
         25    2    1    2    0    0 -0.10241027407E+03 -0.85284823170E+02 -0.62507619575E+02  0.19308726129E+03  0.12495648310E+03 0.  0.
          2    1    1    2  501    0 -0.98533349967E+01  0.60684820860E+02 -0.27267225164E+03  0.27951724904E+03  0.00000000000E+00 0. -1.
          1    1    1    2  502    0  0.11226360907E+03  0.24600002310E+02  0.69353002063E+03  0.70298802803E+03  0.00000000000E+00 0. -1.
         22    1    3    3    0    0  0.42716418448E+01  0.14546959516E+02 -0.43109278281E+02  0.45697602007E+02  0.00000000000E+00 0.  1.
         22    1    3    3    0    0 -0.10668191592E+03 -0.99831782686E+02 -0.19398341293E+02  0.14738965928E+03  0.00000000000E+00 0.  1.
</event>
<event>
 7    1  0.4822463E-005  0.7400151E+03  0.7818608E-02  0.1172062E+00
          2   -1    0    0  502    0  0.00000000000E+00  0.00000000000E+00  0.10853357315E+04  0.10853357315E+04  0.00000000000E+00 0. -1.
          1   -1    0    0  501    0 -0.00000000000E+00 -0.00000000000E+00 -0.17178674655E+04  0.17178674655E+04  0.00000000000E+00 0. -1.
         25    2    1    2    0    0  0.43359777197E+03 -0.60186583039E+03  0.75826563548E+03  0.10681019901E+04  0.12500232670E+03 0.  0.
          2    1    1    2  501    0  0.26296549559E+02  0.32364755934E+02 -0.78173185889E+03  0.78284333372E+03  0.00000000000E+00 0. -1.
          1    1    1    2  502    0 -0.45989432153E+03  0.56950107446E+03 -0.60906551064E+03  0.95225787319E+03  0.00000000000E+00 0. -1.
         22    1    3    3    0    0  0.57556145440E+02 -0.17063261800E+03  0.18339622120E+03  0.25702601844E+03  0.00000000000E+00 0. -1.
         22    1    3    3    0    0  0.37604162653E+03 -0.43123321239E+03  0.57486941428E+03  0.81107597168E+03  0.00000000000E+00 0. -1.
</event>
<event>
 7    1  0.4822463E-005  0.2068886E+03  0.7818608E-02  0.1161139E+00
          2   -1    0    0  502    0  0.00000000000E+00  0.00000000000E+00  0.94485323150E+03  0.94485323150E+03  0.00000000000E+00 0. -1.
          1   -1    0    0  501    0 -0.00000000000E+00 -0.00000000000E+00 -0.62220433598E+03  0.62220433598E+03  0.00000000000E+00 0. -1.
         25    2    1    2    0    0 -0.22524065301E+03 -0.21538501086E+03 -0.39528440869E+03  0.51865102661E+03  0.12500027589E+03 0.  0.
          2    1    1    2  501    0  0.25874826621E+02  0.16714267442E+03 -0.10581316036E+03  0.19950590260E+03  0.00000000000E+00 0. -1.
          1    1    1    2  502    0  0.19936582639E+03  0.48242336440E+02  0.82374646458E+03  0.84890063828E+03  0.00000000000E+00 0. -1.
         22    1    3    3    0    0 -0.13518422323E+03 -0.81505616506E+02 -0.11521584855E+03  0.19542935166E+03  0.00000000000E+00 0.  1.
         22    1    3    3    0    0 -0.90056429789E+02 -0.13387939435E+03 -0.28006856014E+03  0.32322167495E+03  0.00000000000E+00 0.  1.
</event>
<event>
 7    1  0.4822464E-005  0.4860757E+03  0.7818608E-02  0.1194322E+00
          2   -1    0    0  502    0  0.00000000000E+00  0.00000000000E+00  0.18220704582E+04  0.18220704582E+04  0.00000000000E+00 0. -1.
          1   -1    0    0  501    0 -0.00000000000E+00 -0.00000000000E+00 -0.17150301543E+04  0.17150301543E+04  0.00000000000E+00 0. -1.
         25    2    1    2    0    0 -0.45156198749E+03 -0.14846850639E+03 -0.35829235630E+03  0.60823472118E+03  0.12499975010E+03 0.  0.
          2    1    1    2  501    0 -0.23962751751E+02  0.43314585198E+02 -0.11963050295E+04  0.11973287312E+04  0.00000000000E+00 0. -1.
          1    1    1    2  502    0  0.47552473924E+03  0.10515392119E+03  0.16616376898E+04  0.17315371601E+04  0.00000000000E+00 0. -1.
         22    1    3    3    0    0 -0.90533193675E+02 -0.13650728605E+02 -0.13414055478E+03  0.16240778918E+03  0.00000000000E+00 0.  1.
         22    1    3    3    0    0 -0.36102879382E+03 -0.13481777779E+03 -0.22415180152E+03  0.44582693200E+03  0.00000000000E+00 0.  1.
</event>
<event>
 7    1  0.4822463E-005  0.5706075E+02  0.7818608E-02  0.1444976E+00
          2   -1    0    0  502    0  0.00000000000E+00  0.00000000000E+00  0.67257150495E+03  0.67257150495E+03  0.00000000000E+00 0. -1.
          1   -1    0    0  501    0 -0.00000000000E+00 -0.00000000000E+00 -0.14096404340E+04  0.14096404340E+04  0.00000000000E+00 0. -1.
         25    2    1    2    0    0  0.17323848030E+02  0.27723352866E+02  0.40210346478E+03  0.42235249184E+03  0.12500292385E+03 0.  0.
          2    1    1    2  501    0 -0.56555439105E+02 -0.79520037727E+01 -0.13970749827E+04  0.13982418458E+04  0.00000000000E+00 0. -1.
          1    1    1    2  502    0  0.39231591075E+02 -0.19771349094E+02  0.25790258886E+03  0.26161760132E+03  0.00000000000E+00 0. -1.
         22    1    3    3    0    0 -0.19435776639E+02  0.53013516876E+02  0.84492127558E+02  0.10162234993E+03  0.00000000000E+00 0.  1.
         22    1    3    3    0    0  0.36759624669E+02 -0.25290164010E+02  0.31761133722E+03  0.32073014191E+03  0.00000000000E+00 0.  1.
</event>
<event>
 7    1  0.4822463E-005  0.3355329E+03  0.7818608E-02  0.1194265E+00
          2   -1    0    0  502    0  0.00000000000E+00  0.00000000000E+00  0.34375541188E+03  0.34375541188E+03  0.00000000000E+00 0. -1.
          1   -1    0    0  501    0 -0.00000000000E+00 -0.00000000000E+00 -0.63782717787E+03  0.63782717787E+03  0.00000000000E+00 0. -1.
         25    2    1    2    0    0 -0.17019083045E+03 -0.31581188265E+03 -0.31166991129E+03  0.49139464819E+03  0.12501400991E+03 0.  0.
          2    1    1    2  501    0  0.10209816040E+03  0.29317776413E+03 -0.12173627780E+03  0.33346207740E+03  0.00000000000E+00 0. -1.
          1    1    1    2  502    0  0.68092670053E+02  0.22634118525E+02  0.13933442310E+03  0.15672586416E+03  0.00000000000E+00 0. -1.
         22    1    3    3    0    0 -0.79914014476E+01 -0.14010624414E+03 -0.12688920340E+03  0.18919432360E+03  0.00000000000E+00 0.  1.
         22    1    3    3    0    0 -0.16219942900E+03 -0.17570563851E+03 -0.18478070790E+03  0.30220032459E+03  0.00000000000E+00 0.  1.
</event>
<event>
 7    1  0.4822463E-005  0.6880113E+03  0.7818608E-02  0.1113915E+00
          2   -1    0    0  502    0  0.00000000000E+00  0.00000000000E+00  0.13916514226E+04  0.13916514226E+04  0.00000000000E+00 0. -1.
          1   -1    0    0  501    0 -0.00000000000E+00 -0.00000000000E+00 -0.58395569327E+03  0.58395569327E+03  0.00000000000E+00 0. -1.
         25    2    1    2    0    0 -0.61544188849E+03 -0.36045897315E+03  0.43599407974E+03  0.84523126365E+03  0.12500264814E+03 0.  0.
          2    1    1    2  501    0  0.10075519108E+01  0.90137597674E+02 -0.21861138136E+03  0.23646720224E+03  0.00000000000E+00 0. -1.
          1    1    1    2  502    0  0.61443433658E+03  0.27032137548E+03  0.59031303092E+03  0.89390864996E+03  0.00000000000E+00 0. -1.
         22    1    3    3    0    0 -0.53899859944E+03 -0.29446077094E+03  0.41725705126E+03  0.74251604875E+03  0.00000000000E+00 0.  1.
         22    1    3    3    0    0 -0.76443289048E+02 -0.65998202209E+02  0.18737028487E+02  0.10271521490E+03  0.00000000000E+00 0.  1.
</event>
<event>
 7    1  0.4822463E-005  0.1425062E+03  0.7818608E-02  0.1411820E+00
          2   -1    0    0  502    0  0.00000000000E+00  0.00000000000E+00  0.17580492960E+04  0.17580492960E+04  0.00000000000E+00 0. -1.
          1   -1    0    0  501    0 -0.00000000000E+00 -0.00000000000E+00 -0.20597026817E+03  0.20597026817E+03  0.00000000000E+00 0. -1.
         25    2    1    2    0    0  0.14274078867E+03 -0.75507715212E+01  0.69943499453E+03  0.72475191958E+03  0.12499634580E+03 0.  0.
          2    1    1    2  501    0 -0.13937660460E+03  0.29930415393E+02 -0.16688820477E+03  0.21948426041E+03  0.00000000000E+00 0. -1.
          1    1    1    2  502    0 -0.33641840681E+01 -0.22379643872E+02  0.10195322381E+04  0.10197833842E+04  0.00000000000E+00 0. -1.
         22    1    3    3    0    0  0.78490521588E+02 -0.18329970108E+02  0.60306192591E+03  0.60842455265E+03  0.00000000000E+00 0.  1.
         22    1    3    3    0    0  0.64250267082E+02  0.10779198587E+02  0.96373068616E+02  0.11632736693E+03  0.00000000000E+00 0.  1.
</event>
<event>
 7    1  0.4822463E-005  0.3668860E+03  0.7818608E-02  0.1165335E+00
          2   -1    0    0  502    0  0.00000000000E+00  0.00000000000E+00  0.39349848709E+03  0.39349848709E+03  0.00000000000E+00 0. -1.
          1   -1    0    0  501    0 -0.00000000000E+00 -0.00000000000E+00 -0.17708284555E+04  0.17708284555E+04  0.00000000000E+00 0. -1.
         25    2    1    2    0    0  0.32420913009E+03 -0.91489132564E+02 -0.15950068601E+03  0.39312542107E+03  0.12500122576E+03 0.  0.
          2    1    1    2  501    0 -0.37418505708E+03  0.15614514224E+02 -0.14627709310E+04  0.15099526703E+04  0.00000000000E+00 0. -1.
          1    1    1    2  502    0  0.49975926988E+02  0.75874618340E+02  0.24494164865E+03  0.26124885116E+03  0.00000000000E+00 0. -1.
         22    1    3    3    0    0  0.27702078473E+01 -0.26023999591E+01  0.15874167000E+02  0.16322858665E+02  0.00000000000E+00 0. -1.
         22    1    3    3    0    0  0.32143892225E+03 -0.88886732605E+02 -0.17537485301E+03  0.37680256241E+03  0.00000000000E+00 0. -1.
</event>
<event>
 7    1  0.4822463E-005  0.2178350E+03  0.7818608E-02  0.1190913E+00
          2   -1    0    0  502    0  0.00000000000E+00  0.00000000000E+00  0.12814441242E+04  0.12814441242E+04  0.00000000000E+00 0. -1.
          1   -1    0    0  501    0 -0.00000000000E+00 -0.00000000000E+00 -0.24962005728E+03  0.24962005728E+03  0.00000000000E+00 0. -1.
         25    2    1    2    0    0 -0.18732075013E+03  0.20521155076E+03  0.52830331952E+03  0.60986102008E+03  0.12500088961E+03 0.  0.
          2    1    1    2  501    0  0.19358093409E+03 -0.90705817111E+02 -0.14777936979E+03  0.25988433088E+03  0.00000000000E+00 0. -1.
          1    1    1    2  502    0 -0.62601839637E+01 -0.11450573365E+03  0.65130011716E+03  0.66131883049E+03  0.00000000000E+00 0. -1.
         22    1    3    3    0    0 -0.57407655665E+02  0.15482825941E+03  0.29761881270E+03  0.34035920219E+03  0.00000000000E+00 0.  1.
         22    1    3    3    0    0 -0.12991309446E+03  0.50383291348E+02  0.23068450682E+03  0.26950181789E+03  0.00000000000E+00 0.  1.
</event>
<event>
 7    1  0.4822463E-005  0.6904743E+03  0.7818608E-02  0.1061671E+00
          2   -1    0    0  502    0  0.00000000000E+00  0.00000000000E+00  0.22982219160E+04  0.22982219160E+04  0.00000000000E+00 0. -1.
          1   -1    0    0  501    0 -0.00000000000E+00 -0.00000000000E+00 -0.61070321262E+03  0.61070321262E+03  0.00000000000E+00 0. -1.
         25    2    1    2    0    0 -0.13154341097E+03 -0.66219562468E+03 -0.16990364342E+02  0.68681676560E+03  0.12498753025E+03 0.  0.
          2    1    1    2  501    0 -0.36325327854E+02  0.72650204028E+03  0.26925991130E+03  0.77564530799E+03  0.00000000000E+00 0. -1.
          1    1    1    2  502    0  0.16786873882E+03 -0.64306415598E+02  0.14352491565E+04  0.14464630551E+04  0.00000000000E+00 0. -1.
         22    1    3    3    0    0 -0.13304936746E+03 -0.40556558030E+03  0.21190265852E+02  0.42735769734E+03  0.00000000000E+00 0. -1.
         22    1    3    3    0    0  0.15059564925E+01 -0.25663004437E+03 -0.38180630194E+02  0.25945906826E+03  0.00000000000E+00 0. -1.
</event>
<event>
 7    1  0.4822463E-005  0.2058255E+03  0.7818608E-02  0.1339556E+00
          2   -1    0    0  502    0  0.00000000000E+00  0.00000000000E+00  0.72839957540E+03  0.72839957540E+03  0.00000000000E+00 0. -1.
          1   -1    0    0  501    0 -0.00000000000E+00 -0.00000000000E+00 -0.45109323526E+03  0.45109323526E+03  0.00000000000E+00 0. -1.
         25    2    1    2    0    0 -0.14539797898E+03  0.15164995832E+03 -0.26559470293E+03  0.36097657354E+03  0.12500103309E+03 0.  0.
          2    1    1    2  501    0  0.15621696262E+03 -0.12542694765E+03 -0.64490204170E+02  0.21046293032E+03  0.00000000000E+00 0. -1.
          1    1    1    2  502    0 -0.10818983633E+02 -0.26223010676E+02  0.60739124723E+03  0.60805330680E+03  0.00000000000E+00 0. -1.
         22    1    3    3    0    0 -0.12588821235E+03  0.16422792131E+03 -0.26690927479E+03  0.33772653599E+03  0.00000000000E+00 0.  1.
         22    1    3    3    0    0 -0.19509766635E+02 -0.12577962984E+02  0.13145718621E+01  0.23250037552E+02  0.00000000000E+00 0.  1.
</event>
<event>
 7    1  0.8144051E-005  0.2262106E+03  0.7818608E-02  0.1309669E+00
          2   -1    0    0  502    0  0.00000000000E+00  0.00000000000E+00  0.15555782900E+04  0.15555782900E+04  0.00000000000E+00 0. -1.
          1   -1    0    0  501    0 -0.00000000000E+00 -0.00000000000E+00 -0.17012457303E+04  0.17012457303E+04  0.00000000000E+00 0. -1.
         25    2    1    2    0    0 -0.31676974384E+02  0.25758511802E+03 -0.15578989591E+04  0.15843072316E+04  0.12500685420E+03 0.  0.
          2    1    1    2  501    0  0.10892419630E+01 -0.33629440144E+02 -0.11952598680E+03  0.12417160390E+03  0.00000000000E+00 0. -1.
          1    1    1    2  502    0  0.30587732421E+02 -0.22395567787E+03  0.15317575057E+04  0.15483451848E+04  0.00000000000E+00 0. -1.
         22    1    3    3    0    0  0.21129310642E+02  0.21552158362E+03 -0.10638622265E+04  0.10856789755E+04  0.00000000000E+00 0.  1.
         22    1    3    3    0    0 -0.52806285026E+02  0.42063534398E+02 -0.49403673259E+03  0.49862825614E+03  0.00000000000E+00 0.  1.
</event>
<event>
 7    1  0.4822463E-005  0.3449994E+03  0.7818608E-02  0.1214418E+00
          2   -1    0    0  502    0  0.00000000000E+00  0.00000000000E+00  0.86019654325E+03  0.86019654325E+03  0.00000000000E+00 0. -1.
          1   -1    0    0  501    0 -0.00000000000E+00 -0.00000000000E+00 -0.28726507560E+03  0.28726507560E+03  0.00000000000E+00 0. -1.
         25    2    1    2    0    0 -0.34344085436E+03  0.18069436044E+03  0.44044176387E+03  0.60017618721E+03  0.12498174264E+03 0.  0.
          2    1    1    2  501    0  0.30123851746E+03 -0.14364240879E+03 -0.66697519113E+02  0.34033269761E+03  0.00000000000E+00 0. -1.
          1    1    1    2  502    0  0.42202336898E+02 -0.37051951645E+02  0.19918722289E+03  0.20695273403E+03  0.00000000000E+00 0. -1.
         22    1    3    3    0    0 -0.31472927804E+03  0.17263951514E+03  0.33645017493E+03  0.49199353741E+03  0.00000000000E+00 0.  1.
         22    1    3    3    0    0 -0.28711576324E+02  0.80548453037E+01  0.10399158894E+03  0.10818264980E+03  0.00000000000E+00 0.  1.
</event>
<event>
 7    1  0.4822463E-005  0.1278073E+03  0.7818608E-02  0.1234346E+00
          2   -1    0    0  502    0  0.00000000000E+00  0.00000000000E+00  0.38547452753E+03  0.38547452753E+03  0.00000000000E+00 0. -1.
          1   -1    0    0  501    0 -0.00000000000E+00 -0.00000000000E+00 -0.31239837024E+03  0.31239837024E+03  0.00000000000E+00 0. -1.
         25    2    1    2    0    0 -0.10221517841E+03  0.14652732002E+03  0.12956673250E+03  0.25364222026E+03  0.12501455723E+03 0.  0.
          2    1    1    2  501    0 -0.19181982998E+02 -0.12573936596E+03 -0.21116256827E+03  0.24651159580E+03  0.00000000000E+00 0. -1.
          1    1    1    2  502    0  0.12139716141E+03 -0.20787954061E+02  0.15467199306E+03  0.19771908171E+03  0.00000000000E+00 0. -1.
         22    1    3    3    0    0 -0.12617510472E+03  0.86255931568E+02  0.84284219421E+02  0.17453960131E+03  0.00000000000E+00 0. -1.
         22    1    3    3    0    0  0.23959926309E+02  0.60271388456E+02  0.45282513076E+02  0.79102618955E+02  0.00000000000E+00 0. -1.
</event>
<event>
 7    1  0.4822463E-005  0.6607211E+02  0.7818608E-02  0.1477657E+00
          2   -1    0    0  502    0  0.00000000000E+00  0.00000000000E+00  0.39033062393E+03  0.39033062393E+03  0.00000000000E+00 0. -1.
          1   -1    0    0  501    0 -0.00000000000E+00 -0.00000000000E+00 -0.52681312377E+03  0.52681312377E+03  0.00000000000E+00 0. -1.
         25    2    1    2    0    0  0.32634201881E+02 -0.70299999334E+02 -0.41273846118E+03  0.43816011494E+03  0.12499667176E+03 0.  0.
          2    1    1    2  501    0  0.15805324888E+02  0.25422329812E+02 -0.96184267756E+02  0.10073488230E+03  0.00000000000E+00 0. -1.
          1    1    1    2  502    0 -0.48439526769E+02  0.44877669521E+02  0.37244022909E+03  0.37824875046E+03  0.00000000000E+00 0. -1.
         22    1    3    3    0    0  0.32721609691E+01 -0.22406804888E+02 -0.36124302283E+03  0.36195205965E+03  0.00000000000E+00 0. -1.
         22    1    3    3    0    0  0.29362040912E+02 -0.47893194446E+02 -0.51495438356E+02  0.76208055297E+02  0.00000000000E+00 0. -1.
</event>
<event>
 7    1  0.4822463E-005  0.1537660E+03  0.7818608E-02  0.1302715E+00
          2   -1    0    0  502    0  0.00000000000E+00  0.00000000000E+00  0.20959448358E+03  0.20959448358E+03  0.00000000000E+00 0. -1.
          1   -1    0    0  501    0 -0.00000000000E+00 -0.00000000000E+00 -0.13788999664E+04  0.13788999664E+04  0.00000000000E+00 0. -1.
         25    2    1    2    0    0  0.12509529355E+03 -0.17562627008E+02 -0.53225978871E+03  0.56114693495E+03  0.12501248574E+03 0.  0.
          2    1    1    2  501    0  0.14851344471E+02 -0.50609580428E+02 -0.80014633554E+03  0.80188281584E+03  0.00000000000E+00 0. -1.
          1    1    1    2  502    0 -0.13994663802E+03  0.68172207437E+02  0.16310064141E+03  0.22546469921E+03  0.00000000000E+00 0. -1.
         22    1    3    3    0    0  0.54098592251E+02 -0.98921352373E+01 -0.52264753928E+02  0.75869074900E+02  0.00000000000E+00 0. -1.
         22    1    3    3    0    0  0.70996701302E+02 -0.76704917712E+01 -0.47999503478E+03  0.48527786005E+03  0.00000000000E+00 0. -1.
</event>
<event>
 7    1  0.4822463E-005  0.3632440E+03  0.7818608E-02  0.1209826E+00
          2   -1    0    0  502    0  0.00000000000E+00  0.00000000000E+00  0.20562821280E+04  0.20562821280E+04  0.00000000000E+00 0. -1.
          1   -1    0    0  501    0 -0.00000000000E+00 -0.00000000000E+00 -0.73640713458E+03  0.73640713458E+03  0.00000000000E+00 0. -1.
         25    2    1    2    0    0  0.21553587275E+03 -0.30973948529E+03  0.13317870423E+04  0.13898459585E+04  0.12498320408E+03 0.  0.
          2    1    1    2  501    0  0.14820841219E+02  0.54012275694E+02 -0.66354229921E+03  0.66590191928E+03  0.00000000000E+00 0. -1.
          1    1    1    2  502    0 -0.23035671396E+03  0.25572720959E+03  0.65163025036E+03  0.73694138477E+03  0.00000000000E+00 0. -1.
         22    1    3    3    0    0  0.15744924987E+03 -0.21538516648E+03  0.71435863392E+03  0.76255445319E+03  0.00000000000E+00 0.  1.
         22    1    3    3    0    0  0.58086622872E+02 -0.94354318804E+02  0.61742840835E+03  0.62729150534E+03  0.00000000000E+00 0.  1.
</event>
<event>
 7    1  0.4822463E-005  0.2288794E+03  0.7818608E-02  0.1283979E+00
          2   -1    0    0  502    0  0.00000000000E+00  0.00000000000E+00  0.12276911940E+04  0.12276911940E+04  0.00000000000E+00 0. -1.
          1   -1    0    0  501    0 -0.00000000000E+00 -0.00000000000E+00 -0.12962173643E+04  0.12962173643E+04  0.00000000000E+00 0. -1.
         25    2    1    2    0    0  0.17666139575E+03  0.19462650749E+03 -0.36514990175E+03  0.46695664199E+03  0.12500131431E+03 0.  0.
          2    1    1    2  501    0 -0.77449716516E+01 -0.41474701455E+02 -0.86860270882E+03  0.86962681722E+03  0.00000000000E+00 0. -1.
          1    1    1    2  502    0 -0.16891642410E+03 -0.15315180603E+03  0.11652264403E+04  0.11873250992E+04  0.00000000000E+00 0. -1.
         22    1    3    3    0    0  0.65498509675E+02  0.18232427364E+02 -0.34967840020E+02  0.76454077804E+02  0.00000000000E+00 0. -1.
         22    1    3    3    0    0  0.11116288608E+03  0.17639408012E+03 -0.33018206173E+03  0.39050256418E+03  0.00000000000E+00 0. -1.
</event>
<event>
 7    1  0.5207366E-005  0.1073263E+04  0.7818608E-02  0.1145727E+00
          2   -1    0    0  502    0  0.00000000000E+00  0.00000000000E+00  0.21986385717E+04  0.21986385717E+04  0.00000000000E+00 0. -1.
          1   -1    0    0  501    0 -0.00000000000E+00 -0.00000000000E+00 -0.25391624171E+04  0.25391624171E+04  0.00000000000E+00 0. -1.
         25    2    1    2    0    0  0.93934957562E+03  0.49724453380E+03 -0.15706274326E+04  0.19005590231E+04  0.12499726604E+03 0.  0.
          2    1    1    2  501    0 -0.97842584953E+03 -0.49616853777E+03 -0.42880823606E+03  0.11778696296E+04  0.00000000000E+00 0. -1.
          1    1    1    2  502    0  0.39076273912E+02 -0.10759960270E+01  0.16589118232E+04  0.16593723362E+04  0.00000000000E+00 0. -1.
         22    1    3    3    0    0  0.84965095863E+03  0.42782971697E+03 -0.14566583461E+04  0.17397696846E+04  0.00000000000E+00 0.  1.
         22    1    3    3    0    0  0.89698616991E+02  0.69414816827E+02 -0.11396908653E+03  0.16078933848E+03  0.00000000000E+00 0.  1.
</event>
<event>
 7    1  0.4822463E-005  0.5603088E+03  0.7818608E-02  0.1178428E+00
          2   -1    0    0  502    0  0.00000000000E+00  0.00000000000E+00  0.52312441374E+03  0.52312441374E+03  0.00000000000E+00 0. -1.
          1   -1    0    0  501    0 -0.00000000000E+00 -0.00000000000E+00 -0.12363075321E+04  0.12363075321E+04  0.00000000000E+00 0. -1.
         25    2    1    2    0    0  0.51191964605E+03  0.10798241370E+03  0.24180175097E+03  0.58975864814E+03  0.12500100241E+03 0.  0.
          2    1    1    2  501    0 -0.54886083894E+03 -0.14349487851E+03 -0.96312588338E+03  0.11177882035E+04  0.00000000000E+00 0. -1.
          1    1    1    2  502    0  0.36941192891E+02  0.35512464807E+02  0.81410140432E+01  0.51885094184E+02  0.00000000000E+00 0. -1.
         22    1    3    3    0    0  0.72673327660E+01  0.21556497047E+02 -0.16860262705E+01  0.22810948578E+02  0.00000000000E+00 0.  1.
         22    1    3    3    0    0  0.50465231328E+03  0.86425916652E+02  0.24348777724E+03  0.56694769956E+03  0.00000000000E+00 0.  1.
</event>
<event>
 7    1  0.4822463E-005  0.2640050E+03  0.7818608E-02  0.1191771E+00
          2   -1    0    0  502    0  0.00000000000E+00  0.00000000000E+00  0.26837569159E+04  0.26837569159E+04  0.00000000000E+00 0. -1.
          1   -1    0    0  501    0 -0.00000000000E+00 -0.00000000000E+00 -0.10750010693E+03  0.10750010693E+03  0.00000000000E+00 0. -1.
         25    2    1    2    0    0 -0.77414728943E+02 -0.20997212516E+03  0.17137233680E+04  0.17327880277E+04  0.12500093263E+03 0.  0.
          2    1    1    2  501    0  0.51605270444E+01  0.26967846611E+03  0.96116169420E+02  0.28634144679E+03  0.00000000000E+00 0. -1.
          1    1    1    2  502    0  0.72254201898E+02 -0.59706340953E+02  0.76641727149E+03  0.77212754832E+03  0.00000000000E+00 0. -1.
         22    1    3    3    0    0  0.26008411132E+02 -0.68930917643E+01  0.24763746867E+03  0.24909489768E+03  0.00000000000E+00 0. -1.
         22    1    3    3    0    0 -0.10342314007E+03 -0.20307903339E+03  0.14660858994E+04  0.14836931300E+04  0.00000000000E+00 0. -1.
</event>
<event>
 7    1  0.4822463E-005  0.1704179E+03  0.7818608E-02  0.1195454E+00
          2   -1    0    0  502    0  0.00000000000E+00  0.00000000000E+00  0.17841778155E+03  0.17841778155E+03  0.00000000000E+00 0. -1.
          1   -1    0    0  501    0 -0.00000000000E+00 -0.00000000000E+00 -0.71596233137E+03  0.71596233137E+03  0.00000000000E+00 0. -1.
         25    2    1    2    0    0 -0.23284485667E+02 -0.69916853617E+02 -0.39011641968E+02  0.15025862138E+03  0.12500084558E+03 0.  0.
          2    1    1    2  501    0 -0.13802505324E+03 -0.99956634763E+02 -0.47973898300E+03  0.50910876634E+03  0.00000000000E+00 0. -1.
          1    1    1    2  502    0  0.16130953890E+03  0.16987348838E+03 -0.18793924844E+02  0.23501272520E+03  0.00000000000E+00 0. -1.
         22    1    3    3    0    0 -0.35483394296E+02 -0.92156411923E+02 -0.61519651001E+02  0.11634665010E+03  0.00000000000E+00 0.  1.
         22    1    3    3    0    0  0.12198908629E+02  0.22239558306E+02  0.22508009033E+02  0.33911971279E+02  0.00000000000E+00 0.  1.
</event>
<event>
 7    1  0.4822463E-005  0.1633185E+04  0.7818608E-02  0.1045130E+00
          2   -1    0    0  502    0  0.00000000000E+00  0.00000000000E+00  0.16308420195E+04  0.16308420195E+04  0.00000000000E+00 0. -1.
          1   -1    0    0  501    0 -0.00000000000E+00 -0.00000000000E+00 -0.37476049543E+04  0.37476049543E+04  0.00000000000E+00 0. -1.
         25    2    1    2    0    0  0.15456883088E+04 -0.65833268695E+03 -0.51928695469E+03  0.17629058360E+04  0.12499508185E+03 0.  0.
          2    1    1    2  501    0 -0.92056667573E+02 -0.27508896564E+02 -0.19645145251E+04  0.19668626004E+04  0.00000000000E+00 0. -1.
          1    1    1    2  502    0 -0.14536316413E+04  0.68584158352E+03  0.36703854498E+03  0.16486785374E+04  0.00000000000E+00 0. -1.
         22    1    3    3    0    0  0.13818949067E+03 -0.31390461804E+02 -0.19407328190E+02  0.14303265645E+03  0.00000000000E+00 0. -1.
         22    1    3    3    0    0  0.14074988182E+04 -0.62694222515E+03 -0.49987962650E+03  0.16198731796E+04  0.00000000000E+00 0. -1.
</event>
<event>
 7    1  0.4822463E-005  0.4731834E+02  0.7818608E-02  0.1510985E+00
          2   -1    0    0  502    0  0.00000000000E+00  0.00000000000E+00  0.10940311776E+04  0.10940311776E+04  0.00000000000E+00 0. -1.
          1   -1    0    0  501    0 -0.00000000000E+00 -0.00000000000E+00 -0.92600866916E+02  0.92600866916E+02  0.00000000000E+00 0. -1.
         25    2    1    2    0    0  0.75382710347E+02 -0.27055446189E+02  0.24606986289E+02  0.15048211810E+03  0.12499925562E+03 0.  0.
          2    1    1    2  501    0 -0.30426423623E+02  0.13243103727E+02 -0.19651489765E+02  0.38565892973E+02  0.00000000000E+00 0. -1.
          1    1    1    2  502    0 -0.44956286724E+02  0.13812342462E+02  0.99647481419E+03  0.99758403347E+03  0.00000000000E+00 0. -1.
         22    1    3    3    0    0  0.48198814305E+02 -0.51962125112E+02  0.64734875462E+02  0.95988500601E+02  0.00000000000E+00 0.  1.
         22    1    3    3    0    0  0.27183896042E+02  0.24906678923E+02 -0.40127889172E+02  0.54493617502E+02  0.00000000000E+00 0.  1.
</event>
<event>
 7    1  0.4822463E-005  0.5610338E+03  0.7818608E-02  0.1097856E+00
          2   -1    0    0  502    0  0.00000000000E+00  0.00000000000E+00  0.36018506750E+03  0.36018506750E+03  0.00000000000E+00 0. -1.
          1   -1    0    0  501    0 -0.00000000000E+00 -0.00000000000E+00 -0.20108301734E+04  0.20108301734E+04  0.00000000000E+00 0. -1.
         25    2    1    2    0    0  0.64594424985E+03 -0.66303816484E+02 -0.12872268812E+04  0.14471412241E+04  0.12499803467E+03 0.  0.
          2    1    1    2  501    0 -0.11822431335E+03 -0.66909699813E+02 -0.35438019860E+03  0.37952499438E+03  0.00000000000E+00 0. -1.
          1    1    1    2  502    0 -0.52771993650E+03  0.13321351630E+03 -0.90380260675E+01  0.54434902243E+03  0.00000000000E+00 0. -1.
         22    1    3    3    0    0  0.61369668522E+03 -0.40160334828E+02 -0.11547678676E+04  0.13083292025E+04  0.00000000000E+00 0. -1.
         22    1    3    3    0    0  0.32247564633E+02 -0.26143481656E+02 -0.13245901358E+03  0.13881202159E+03  0.00000000000E+00 0. -1.
</event>
<event>
 7    1  0.4822463E-005  0.2716675E+03  0.7818608E-02  0.1323852E+00
          2   -1    0    0  502    0  0.00000000000E+00  0.00000000000E+00  0.16328947437E+04  0.16328947437E+04  0.00000000000E+00 0. -1.
          1   -1    0    0  501    0 -0.00000000000E+00 -0.00000000000E+00 -0.42233467564E+03  0.42233467564E+03  0.00000000000E+00 0. -1.
         25    2    1    2    0    0 -0.21191410965E+03  0.15169336462E+03 -0.12431026837E+03  0.31463696625E+03  0.12499964388E+03 0.  0.
          2    1    1    2  501    0  0.23611580900E+03 -0.15646126799E+03 -0.10382969841E+03  0.30168097374E+03  0.00000000000E+00 0. -1.
          1    1    1    2  502    0 -0.24201699353E+02  0.47679033735E+01  0.14387000349E+04  0.14389114794E+04  0.00000000000E+00 0. -1.
         22    1    3    3    0    0 -0.22248787881E+03  0.15426824236E+03 -0.13210613730E+03  0.30125002627E+03  0.00000000000E+00 0.  1.
         22    1    3    3    0    0  0.10573769159E+02 -0.25748777423E+01  0.77958689260E+01  0.13386939976E+02  0.00000000000E+00 0.  1.
</event>
<event>
 7    1  0.4822463E-005  0.6516233E+03  0.7818608E-02  0.1194793E+00
          2   -1    0    0  502    0  0.00000000000E+00  0.00000000000E+00  0.27760615742E+04  0.27760615742E+04  0.00000000000E+00 0. -1.
          1   -1    0    0  501    0 -0.00000000000E+00 -0.00000000000E+00 -0.63189198432E+03  0.63189198432E+03  0.00000000000E+00 0. -1.
         25    2    1    2    0    0  0.12976842385E+03 -0.62294375288E+03  0.56003467855E+03  0.85683292380E+03  0.12500022023E+03 0.  0.
          2    1    1    2  501    0 -0.16419846432E+03  0.63575228083E+03 -0.26029465059E+03  0.70632528157E+03  0.00000000000E+00 0. -1.
          1    1    1    2  502    0  0.34430040475E+02 -0.12808527943E+02  0.18444295620E+04  0.18447953532E+04  0.00000000000E+00 0. -1.
         22    1    3    3    0    0  0.90330060873E+02 -0.27056625889E+03  0.31983596048E+03  0.42855648632E+03  0.00000000000E+00 0. -1.
         22    1    3    3    0    0  0.39438362978E+02 -0.35237749399E+03  0.24019871806E+03  0.42827643749E+03  0.00000000000E+00 0. -1.
</event>
<event>
 7    1  0.4822463E-005  0.8067501E+03  0.7818608E-02  0.1197038E+00
          2   -1    0    0  502    0  0.00000000000E+00  0.00000000000E+00  0.99901777805E+03  0.99901777805E+03  0.00000000000E+00 0. -1.
          1   -1    0    0  501    0 -0.00000000000E+00 -0.00000000000E+00 -0.14889523087E+04  0.14889523087E+04  0.00000000000E+00 0. -1.
         25    2    1    2    0    0 -0.24768923490E+03 -0.76586699743E+03  0.96803338810E+02  0.82031084912E+03  0.12504714288E+03 0.  0.
          2    1    1    2  501    0  0.22082674498E+03  0.77666658444E+03 -0.98200029943E+03  0.12713378869E+04  0.00000000000E+00 0. -1.
          1    1    1    2  502    0  0.26862489920E+02 -0.10799587013E+02  0.39526242998E+03  0.39632135068E+03  0.00000000000E+00 0. -1.
         22    1    3    3    0    0 -0.29272904142E+02 -0.19791919940E+02 -0.69986574076E+01  0.36022273906E+02  0.00000000000E+00 0. -1.
         22    1    3    3    0    0 -0.21841633076E+03 -0.74607507749E+03  0.10380199622E+03  0.78428857522E+03  0.00000000000E+00 0. -1.
</event>
<event>
 7    1  0.4822463E-005  0.1059348E+04  0.7818608E-02  0.1112560E+00
          2   -1    0    0  502    0  0.00000000000E+00  0.00000000000E+00  0.39777622393E+04  0.39777622393E+04  0.00000000000E+00 0. -1.
          1   -1    0    0  501    0 -0.00000000000E+00 -0.00000000000E+00 -0.12619404356E+04  0.12619404356E+04  0.00000000000E+00 0. -1.
         25    2    1    2    0    0  0.83464239786E+03 -0.64539861301E+03  0.91409027401E+03  0.14015534777E+04  0.12499527969E+03 0.  0.
          2    1    1    2  501    0 -0.32470049004E+02 -0.49928473273E+02 -0.91729894884E+03  0.91923039445E+03  0.00000000000E+00 0. -1.
          1    1    1    2  502    0 -0.80217234885E+03  0.69532708628E+03  0.27190304785E+04  0.29189188028E+04  0.00000000000E+00 0. -1.
         22    1    3    3    0    0  0.18505728088E+03 -0.16392442622E+03  0.28359726618E+03  0.37622443315E+03  0.00000000000E+00 0. -1.
         22    1    3    3    0    0  0.64958511698E+03 -0.48147418678E+03  0.63049300784E+03  0.10253290446E+04  0.00000000000E+00 0. -1.
</event>
<event>
 7    1  0.4822463E-005  0.1250846E+03  0.7818608E-02  0.1288551E+00
          2   -1    0    0  502    0  0.00000000000E+00  0.00000000000E+00  0.28819650587E+03  0.28819650587E+03  0.00000000000E+00 0. -1.
          1   -1    0    0  501    0 -0.00000000000E+00 -0.00000000000E+00 -0.16445541743E+03  0.16445541743E+03  0.00000000000E+00 0. -1.
         25    2    1    2    0    0  0.12356131813E+03 -0.12757342665E+03  0.30142716214E+02  0.21926075136E+03  0.12499726085E+03 0.  0.
          2    1    1    2  501    0 -0.67858640051E+02  0.29383742011E+02 -0.16431122598E+02  0.75750782927E+02  0.00000000000E+00 0. -1.
          1    1    1    2  502    0 -0.55702678075E+02  0.98189684641E+02  0.11002949483E+03  0.15764038901E+03  0.00000000000E+00 0. -1.
         22    1    3    3    0    0 -0.15773510930E+02  0.24778997308E+01 -0.16581497595E+02  0.23019333105E+02  0.00000000000E+00 0.  1.
         22    1    3    3    0    0  0.13933482906E+03 -0.13005132638E+03  0.46724213808E+02  0.19624141825E+03  0.00000000000E+00 0.  1.
</event>
<event>
 7    1  0.4822463E-005  0.7916491E+02  0.7818608E-02  0.1424058E+00
          2   -1    0    0  502    0  0.00000000000E+00  0.00000000000E+00  0.67233735038E+03  0.67233735038E+03  0.00000000000E+00 0. -1.
          1   -1    0    0  501    0 -0.00000000000E+00 -0.00000000000E+00 -0.30954598625E+03  0.30954598625E+03  0.00000000000E+00 0. -1.
         25    2    1    2    0    0 -0.81326225372E+02  0.49060586463E+02  0.38216479443E+01  0.15703799231E+03  0.12500171982E+03 0.  0.
          2    1    1    2  501    0  0.46902239940E+02 -0.62811312206E+02 -0.22573903699E+03  0.23896274579E+03  0.00000000000E+00 0. -1.
          1    1    1    2  502    0  0.34423985432E+02  0.13750725743E+02  0.58470875317E+03  0.58588259853E+03  0.00000000000E+00 0. -1.
         22    1    3    3    0    0  0.75329690433E+00  0.70637693727E+02 -0.89780814316E+01  0.71209951394E+02  0.00000000000E+00 0.  1.
         22    1    3    3    0    0 -0.82079522277E+02 -0.21577107264E+02  0.12799729376E+02  0.85828040914E+02  0.00000000000E+00 0.  1.
</event>
<event>
 7    1  0.4822463E-005  0.1312939E+04  0.7818608E-02  0.1127064E+00
          2   -1    0    0  502    0  0.00000000000E+00  0.00000000000E+00  0.23702449918E+04  0.23702449918E+04  0.00000000000E+00 0. -1.
          1   -1    0    0  501    0 -0.00000000000E+00 -0.00000000000E+00 -0.23234551767E+04  0.23234551767E+04  0.00000000000E+00 0. -1.
         25    2    1    2    0    0  0.53939107786E+03 -0.12278640669E+04 -0.41963326958E+03  0.14107836855E+04  0.12500249851E+03 0.  0.
          2    1    1    2  501    0  0.32022075798E+01  0.39952854687E+02 -0.11804198269E+04  0.11811001027E+04  0.00000000000E+00 0. -1.
          1    1    1    2  502    0 -0.54259328544E+03  0.11879112122E+04  0.16468429116E+04  0.21018163804E+04  0.00000000000E+00 0. -1.
         22    1    3    3    0    0  0.53379678251E+03 -0.11718126321E+04 -0.42006741226E+03  0.13544520961E+04  0.00000000000E+00 0.  1.
         22    1    3    3    0    0  0.55942953498E+01 -0.56051434801E+02  0.43414268121E+00  0.56331589394E+02  0.00000000000E+00 0.  1.
</event>
<event>
 7    1  0.4822463E-005  0.8669329E+02  0.7818608E-02  0.1427122E+00
          2   -1    0    0  502    0  0.00000000000E+00  0.00000000000E+00  0.23062437958E+04  0.23062437958E+04  0.00000000000E+00 0. -1.
          1   -1    0    0  501    0 -0.00000000000E+00 -0.00000000000E+00 -0.30684834755E+03  0.30684834755E+03  0.00000000000E+00 0. -1.
         25    2    1    2    0    0 -0.79982079997E+02  0.29721990178E+02 -0.54229206561E+02  0.16076785727E+03  0.12499986906E+03 0.  0.
          2    1    1    2  501    0 -0.67297773604E+01 -0.32375810757E+02 -0.19713710367E+03  0.19989127211E+03  0.00000000000E+00 0. -1.
          1    1    1    2  502    0  0.86711857358E+02  0.26538205785E+01  0.22507617585E+04  0.22524330140E+04  0.00000000000E+00 0. -1.
         22    1    3    3    0    0 -0.10728901185E+03 -0.18177031047E+01 -0.26040841517E+02  0.11041902706E+03  0.00000000000E+00 0.  1.
         22    1    3    3    0    0  0.27306931856E+02  0.31539693283E+02 -0.28188365045E+02  0.50348830211E+02  0.00000000000E+00 0.  1.
</event>
<event>
 7    1  0.4822463E-005  0.3519018E+03  0.7818608E-02  0.1111471E+00
          2   -1    0    0  502    0  0.00000000000E+00  0.00000000000E+00  0.29852616434E+04  0.29852616434E+04  0.00000000000E+00 0. -1.
          1   -1    0    0  501    0 -0.00000000000E+00 -0.00000000000E+00 -0.19098976367E+04  0.19098976367E+04  0.00000000000E+00 0. -1.
         25    2    1    2    0    0  0.82982111285E+01 -0.47597169874E+03  0.19437122427E+04  0.20050586107E+04  0.12499932684E+03 0.  0.
          2    1    1    2  501    0 -0.11766460340E+03  0.33076569102E+03 -0.18544472164E+04  0.18873858587E+04  0.00000000000E+00 0. -1.
          1    1    1    2  502    0  0.10936639227E+03  0.14520600773E+03  0.98609898047E+03  0.10027148108E+04  0.00000000000E+00 0. -1.
         22    1    3    3    0    0 -0.35633155602E+02 -0.30655473482E+03  0.14100716570E+04  0.14434498970E+04  0.00000000000E+00 0.  1.
         22    1    3    3    0    0  0.43931366730E+02 -0.16941696392E+03  0.53364058567E+03  0.56160871372E+03  0.00000000000E+00 0.  1.
</event>
<event>
 7    1  0.4822463E-005  0.1055123E+04  0.7818608E-02  0.1087047E+00
          2   -1    0    0  502    0  0.00000000000E+00  0.00000000000E+00  0.26115875766E+04  0.26115875766E+04  0.00000000000E+00 0. -1.
          1   -1    0    0  501    0 -0.00000000000E+00 -0.00000000000E+00 -0.20735104810E+04  0.20735104810E+04  0.00000000000E+00 0. -1.
         25    2    1    2    0    0  0.91617654761E+03 -0.55017218751E+03  0.27177819667E+03  0.11097551337E+04  0.12499666500E+03 0.  0.
          2    1    1    2  501    0 -0.59130887450E+02 -0.58630999101E+02 -0.15094477962E+04  0.15117429363E+04  0.00000000000E+00 0. -1.
          1    1    1    2  502    0 -0.85704566016E+03  0.60880318661E+03  0.17757466952E+04  0.20635999877E+04  0.00000000000E+00 0. -1.
         22    1    3    3    0    0  0.66823209716E+03 -0.35975295959E+03  0.14632477315E+03  0.77289537898E+03  0.00000000000E+00 0. -1.
         22    1    3    3    0    0  0.24794445045E+03 -0.19041922792E+03  0.12545342352E+03  0.33685975471E+03  0.00000000000E+00 0. -1.
</event>
<event>
 7    1  0.4822463E-005  0.3923012E+03  0.7818608E-02  0.1302070E+00
          2   -1    0    0  502    0  0.00000000000E+00  0.00000000000E+00  0.12478461311E+04  0.12478461311E+04  0.00000000000E+00 0. -1.
          1   -1    0    0  501    0 -0.00000000000E+00 -0.00000000000E+00 -0.14863862036E+03  0.14863862036E+03  0.00000000000E+00 0. -1.
         25    2    1    2    0    0 -0.32286563993E+03  0.19870429755E+03  0.34726120138E+03  0.52909544658E+03  0.12500412113E+03 0.  0.
          2    1    1    2  501    0 -0.15471188324E+02  0.13896793795E+02  0.68284921885E+01  0.21888509578E+02  0.00000000000E+00 0. -1.
          1    1    1    2  502    0  0.33833682826E+03 -0.21260109135E+03  0.74511781721E+03  0.84550079534E+03  0.00000000000E+00 0. -1.
         22    1    3    3    0    0 -0.12565610350E+03  0.13022913662E+03  0.10470905943E+03  0.20907671200E+03  0.00000000000E+00 0. -1.
         22    1    3    3    0    0 -0.19720953643E+03  0.68475160929E+02  0.24255214195E+03  0.32001873459E+03  0.00000000000E+00 0. -1.
</event>
<event>
 7    1  0.4822463E-005  0.1192506E+03  0.7818608E-02  0.1299380E+00
          2   -1    0    0  502    0  0.00000000000E+00  0.00000000000E+00  0.14844599979E+04  0.14844599979E+04  0.00000000000E+00 0. -1.
          1   -1    0    0  501    0 -0.00000000000E+00 -0.00000000000E+00 -0.11911148811E+03  0.11911148811E+03  0.00000000000E+00 0. -1.
         25    2    1    2    0    0  0.99320523365E+02  0.60556714951E+02  0.31736642757E+03  0.36038612607E+03  0.12500011371E+03 0.  0.
          2    1    1    2  501    0 -0.12150266019E+03  0.59720842167E+01 -0.58149449916E+02  0.13483293644E+03  0.00000000000E+00 0. -1.
          1    1    1    2  502    0  0.22182136822E+02 -0.66528799167E+02  0.11061315321E+04  0.11083524235E+04  0.00000000000E+00 0. -1.
         22    1    3    3    0    0 -0.16486292395E+02  0.48723448956E+02  0.12994594060E+03  0.13975592937E+03  0.00000000000E+00 0. -1.
         22    1    3    3    0    0  0.11580681576E+03  0.11833265995E+02  0.18742048696E+03  0.22063019670E+03  0.00000000000E+00 0. -1.
</event>
<event>
 7    1  0.4822463E-005  0.3129558E+03  0.7818608E-02  0.1141490E+00
          2   -1    0    0  502    0  0.00000000000E+00  0.00000000000E+00  0.81831662406E+03  0.81831662406E+03  0.00000000000E+00 0. -1.
          1   -1    0    0  501    0 -0.00000000000E+00 -0.00000000000E+00 -0.14033395385E+04  0.14033395385E+04  0.00000000000E+00 0. -1.
         25    2    1    2    0    0  0.14726829472E+03  0.39099785648E+03 -0.12179874585E+02  0.43627709567E+03  0.12498832131E+03 0.  0.
          2    1    1    2  501    0  0.12317757059E+02 -0.14050458786E+03 -0.11381187902E+04  0.11468250289E+04  0.00000000000E+00 0. -1.
          1    1    1    2  502    0 -0.15958605178E+03 -0.25049326863E+03  0.56527575031E+03  0.63855403800E+03  0.00000000000E+00 0. -1.
         22    1    3    3    0    0  0.21972779263E+02  0.22163564617E+03 -0.30543141746E+02  0.22480668627E+03  0.00000000000E+00 0.  1.
         22    1    3    3    0    0  0.12529551545E+03  0.16936221031E+03  0.18363267162E+02  0.21147040940E+03  0.00000000000E+00 0.  1.
</event>
<event>
 7    1  0.4822463E-005  0.8179804E+03  0.7818608E-02  0.1080031E+00
          2   -1    0    0  502    0  0.00000000000E+00  0.00000000000E+00  0.86028402278E+03  0.86028402278E+03  0.00000000000E+00 0. -1.
          1   -1    0    0  501    0 -0.00000000000E+00 -0.00000000000E+00 -0.15483242760E+04  0.15483242760E+04  0.00000000000E+00 0. -1.
         25    2    1    2    0    0  0.53220515265E+01 -0.78714255505E+03  0.29769927714E+03  0.85080642505E+03  0.12499994838E+03 0.  0.
          2    1    1    2  501    0 -0.39014952116E+02 -0.11134599896E+03 -0.54284455671E+03  0.55551805617E+03  0.00000000000E+00 0. -1.
          1    1    1    2  502    0  0.33692900589E+02  0.89848855401E+03 -0.44289497362E+03  0.10022838175E+04  0.00000000000E+00 0. -1.
         22    1    3    3    0    0  0.24944955454E+02 -0.66733050191E+03  0.20661549954E+03  0.69902948023E+03  0.00000000000E+00 0.  1.
         22    1    3    3    0    0 -0.19622903928E+02 -0.11981205313E+03  0.91083777603E+02  0.15177694481E+03  0.00000000000E+00 0.  1.
</event>
<event>
 7    1  0.4822463E-005  0.2482781E+03  0.7818608E-02  0.1141454E+00
          2   -1    0    0  502    0  0.00000000000E+00  0.00000000000E+00  0.73505306122E+03  0.73505306122E+03  0.00000000000E+00 0. -1.
          1   -1    0    0  501    0 -0.00000000000E+00 -0.00000000000E+00 -0.37845584575E+03  0.37845584575E+03  0.00000000000E+00 0. -1.
         25    2    1    2    0    0  0.28941500252E+03  0.22179085037E+03  0.32304052045E+03  0.50292411976E+03  0.12500106955E+03 0.  0.
          2    1    1    2  501    0 -0.16883815285E+03 -0.55936003638E+02 -0.22101858620E+03  0.28369768030E+03  0.00000000000E+00 0. -1.
          1    1    1    2  502    0 -0.12057684968E+03 -0.16585484673E+03  0.25457528122E+03  0.32688710692E+03  0.00000000000E+00 0. -1.
         22    1    3    3    0    0  0.35388025467E+02  0.90773538707E+02  0.59589997236E+02  0.11420645974E+03  0.00000000000E+00 0.  1.
         22    1    3    3    0    0  0.25402697706E+03  0.13101731166E+03  0.26345052321E+03  0.38871766002E+03  0.00000000000E+00 0.  1.
</event>
<event>
 7    1  0.4822463E-005  0.1226482E+03  0.7818608E-02  0.1439889E+00
          2   -1    0    0  502    0  0.00000000000E+00  0.00000000000E+00  0.12974001332E+04  0.12974001332E+04  0.00000000000E+00 0. -1.
          1   -1    0    0  501    0 -0.00000000000E+00 -0.00000000000E+00 -0.11509718628E+04  0.11509718628E+04  0.00000000000E+00 0. -1.
         25    2    1    2    0    0 -0.71628179571E+02 -0.11484649779E+03  0.91381083489E+03  0.93219790406E+03  0.12498950438E+03 0.  0.
          2    1    1    2  501    0  0.77999143737E+02  0.94597182206E+02 -0.11381824176E+04  0.11447670982E+04  0.00000000000E+00 0. -1.
          1    1    1    2  502    0 -0.63709641660E+01  0.20249315587E+02  0.37079985314E+03  0.37140699381E+03  0.00000000000E+00 0. -1.
         22    1    3    3    0    0 -0.19995436808E+02 -0.12542227977E+03  0.54270519394E+03  0.55736836408E+03  0.00000000000E+00 0.  1.
         22    1    3    3    0    0 -0.51632742763E+02  0.10575781978E+02  0.37110564096E+03  0.37482953998E+03  0.00000000000E+00 0.  1.
</event>
<event>
 7    1  0.4822463E-005  0.3690137E+03  0.7818608E-02  0.1129048E+00
          2   -1    0    0  502    0  0.00000000000E+00  0.00000000000E+00  0.17221921485E+04  0.17221921485E+04  0.00000000000E+00 0. -1.
          1   -1    0    0  501    0 -0.00000000000E+00 -0.00000000000E+00 -0.18010635346E+04  0.18010635346E+04  0.00000000000E+00 0. -1.
         25    2    1    2    0    0  0.10270313975E+03 -0.26829501477E+03 -0.12106524320E+04  0.12505326681E+04  0.12498997151E+03 0.  0.
          2    1    1    2  501    0  0.13854706225E+03 -0.13072050661E+02 -0.54139180164E+03  0.55899127887E+03  0.00000000000E+00 0. -1.
          1    1    1    2  502    0 -0.24125020200E+03  0.28136706543E+03  0.16731728476E+04  0.17137317361E+04  0.00000000000E+00 0. -1.
         22    1    3    3    0    0  0.25453767788E+02 -0.42365991194E+02 -0.73427032315E+02  0.88511584434E+02  0.00000000000E+00 0.  1.
         22    1    3    3    0    0  0.77249371963E+02 -0.22592902358E+03 -0.11372253997E+04  0.11620210837E+04  0.00000000000E+00 0.  1.
</event>
<event>
 7    1  0.4822463E-005  0.2251035E+03  0.7818608E-02  0.1164996E+00
          2   -1    0    0  502    0  0.00000000000E+00  0.00000000000E+00  0.12969656065E+04  0.12969656065E+04  0.00000000000E+00 0. -1.
          1   -1    0    0  501    0 -0.00000000000E+00 -0.00000000000E+00 -0.42812873119E+03  0.42812873119E+03  0.00000000000E+00 0. -1.
         25    2    1    2    0    0  0.28434872644E+02  0.76520757782E+02 -0.27887181367E+03  0.31632006796E+03  0.12499971432E+03 0.  0.
          2    1    1    2  501    0  0.50984259764E+02  0.13964278552E+03 -0.73643718525E+02  0.16590026995E+03  0.00000000000E+00 0. -1.
          1    1    1    2  502    0 -0.79419132408E+02 -0.21616354330E+03  0.12213524075E+04  0.12428739998E+04  0.00000000000E+00 0. -1.
         22    1    3    3    0    0  0.74663091180E+02  0.54561360650E+02 -0.21793389900E+03  0.23674185011E+03  0.00000000000E+00 0. -1.
         22    1    3    3    0    0 -0.46228218536E+02  0.21959397132E+02 -0.60937914668E+02  0.79578217845E+02  0.00000000000E+00 0. -1.
</event>
<event>
 7    1  0.4822463E-005  0.4992828E+03  0.7818608E-02  0.1094220E+00
          2   -1    0    0  502    0  0.00000000000E+00  0.00000000000E+00  0.21468146896E+04  0.21468146896E+04  0.00000000000E+00 0. -1.
          1   -1    0    0  501    0 -0.00000000000E+00 -0.00000000000E+00 -0.17852660657E+04  0.17852660657E+04  0.00000000000E+00 0. -1.
         25    2    1    2    0    0 -0.61393770496E+03  0.20035153727E+03  0.34840148580E+03  0.74435810254E+03  0.12500058186E+03 0.  0.
          2    1    1    2  501    0  0.45528966489E+03 -0.17901722225E+03 -0.15453948984E+04  0.16209815658E+04  0.00000000000E+00 0. -1.
          1    1    1    2  502    0  0.15864804006E+03 -0.21334315019E+02  0.15585420366E+04  0.15667410869E+04  0.00000000000E+00 0. -1.
         22    1    3    3    0    0 -0.41864986360E+03  0.75830318197E+02  0.20888247471E+03  0.47397239760E+03  0.00000000000E+00 0. -1.
         22    1    3    3    0    0 -0.19528784136E+03  0.12452121908E+03  0.13951901109E+03  0.27038570494E+03  0.00000000000E+00 0. -1.
</event>
<event>
 7    1  0.4822463E-005  0.1466332E+03  0.7818608E-02  0.1253110E+00
          2   -1    0    0  502    0  0.00000000000E+00  0.00000000000E+00  0.56502890987E+03  0.56502890987E+03  0.00000000000E+00 0. -1.
          1   -1    0    0  501    0 -0.00000000000E+00 -0.00000000000E+00 -0.23845088429E+03  0.23845088429E+03  0.00000000000E+00 0. -1.
         25    2    1    2    0    0 -0.44128625363E+02  0.21362810281E+03  0.37475035772E+02  0.25418659284E+03  0.12498857461E+03 0.  0.
          2    1    1    2  501    0  0.17213722812E+02 -0.12897488303E+03 -0.91107500043E+02  0.15884397775E+03  0.00000000000E+00 0. -1.
          1    1    1    2  502    0  0.26914902551E+02 -0.84653219786E+02  0.38021048984E+03  0.39044922357E+03  0.00000000000E+00 0. -1.
         22    1    3    3    0    0 -0.36798241205E+02  0.21603445382E+03  0.33202128606E+01  0.21917121071E+03  0.00000000000E+00 0. -1.
         22    1    3    3    0    0 -0.73303841577E+01 -0.24063510059E+01  0.34154822911E+02  0.35015382122E+02  0.00000000000E+00 0. -1.
</event>
<event>
 7    1  0.4822463E-005  0.1543500E+03  0.7818608E-02  0.1312790E+00
          2   -1    0    0  502    0  0.00000000000E+00  0.00000000000E+00  0.31147927315E+03  0.31147927315E+03  0.00000000000E+00 0. -1.
          1   -1    0    0  501    0 -0.00000000000E+00 -0.00000000000E+00 -0.72406742049E+03  0.72406742049E+03  0.00000000000E+00 0. -1.
         25    2    1    2    0    0  0.86904774305E+02  0.11072064448E+03 -0.24549154916E+03  0.30935954304E+03  0.12500290096E+03 0.  0.
          2    1    1    2  501    0  0.42026665326E+02 -0.23060719766E+02 -0.42344526379E+03  0.42615012475E+03  0.00000000000E+00 0. -1.
          1    1    1    2  502    0 -0.12893143963E+03 -0.87659924711E+02  0.25634866561E+03  0.30003702586E+03  0.00000000000E+00 0. -1.
         22    1    3    3    0    0 -0.21287028665E+02  0.63987350627E+01 -0.91576208695E+02  0.94235255604E+02  0.00000000000E+00 0. -1.
         22    1    3    3    0    0  0.10819180297E+03  0.10432190941E+03 -0.15391534047E+03  0.21512428744E+03  0.00000000000E+00 0. -1.
</event>
<event>
 7    1  0.4822463E-005  0.7232192E+03  0.7818608E-02  0.1176863E+00
          2   -1    0    0  502    0  0.00000000000E+00  0.00000000000E+00  0.96776275615E+03  0.96776275615E+03  0.00000000000E+00 0. -1.
          1   -1    0    0  501    0 -0.00000000000E+00 -0.00000000000E+00 -0.16816523454E+04  0.16816523454E+04  0.00000000000E+00 0. -1.
         25    2    1    2    0    0  0.75218489510E+03  0.46300875675E+01 -0.27812303186E+03  0.81165279955E+03  0.12499716808E+03 0.  0.
          2    1    1    2  501    0 -0.38641518667E+02 -0.11812994625E+02 -0.95462950819E+03  0.95548428125E+03  0.00000000000E+00 0. -1.
          1    1    1    2  502    0 -0.71354337644E+03  0.71829070570E+01  0.51886295079E+03  0.88227802076E+03  0.00000000000E+00 0. -1.
         22    1    3    3    0    0  0.49281008704E+03 -0.52117276562E+02 -0.20475262140E+03  0.53619178320E+03  0.00000000000E+00 0. -1.
         22    1    3    3    0    0  0.25937480806E+03  0.56747364129E+02 -0.73370410459E+02  0.27546101634E+03  0.00000000000E+00 0. -1.
</event>
<event>
 7    1  0.4822463E-005  0.3863584E+03  0.7818608E-02  0.1179291E+00
          2   -1    0    0  502    0  0.00000000000E+00  0.00000000000E+00  0.29569679250E+04  0.29569679250E+04  0.00000000000E+00 0. -1.
          1   -1    0    0  501    0 -0.00000000000E+00 -0.00000000000E+00 -0.12124142376E+04  0.12124142376E+04  0.00000000000E+00 0. -1.
         25    2    1    2    0    0  0.22272538149E+03 -0.31412145259E+03 -0.57931982411E+03  0.70676401908E+03  0.12500015007E+03 0.  0.
          2    1    1    2  501    0 -0.28231295552E+03  0.27093041401E+03 -0.50161169687E+03  0.63617465253E+03  0.00000000000E+00 0. -1.
          1    1    1    2  502    0  0.59587574030E+02  0.43191038575E+02  0.28254852084E+04  0.28264434910E+04  0.00000000000E+00 0. -1.
         22    1    3    3    0    0  0.18506122053E+03 -0.17853125522E+03 -0.30891026901E+03  0.40192862393E+03  0.00000000000E+00 0.  1.
         22    1    3    3    0    0  0.37664160952E+02 -0.13559019737E+03 -0.27040955511E+03  0.30483539515E+03  0.00000000000E+00 0.  1.
</event>
<event>
 7    1  0.4822463E-005  0.4026257E+03  0.7818608E-02  0.1212562E+00
          2   -1    0    0  502    0  0.00000000000E+00  0.00000000000E+00  0.23536388589E+04  0.23536388589E+04  0.00000000000E+00 0. -1.
          1   -1    0    0  501    0 -0.00000000000E+00 -0.00000000000E+00 -0.44113369999E+03  0.44113369999E+03  0.00000000000E+00 0. -1.
         25    2    1    2    0    0 -0.41958243384E+03 -0.12652446424E+03  0.12878808956E+04  0.13661332011E+04  0.12499945232E+03 0.  0.
          2    1    1    2  501    0  0.39045159311E+03  0.87026260000E+02 -0.30168004078E+03  0.50103579064E+03  0.00000000000E+00 0. -1.
          1    1    1    2  502    0  0.29130840730E+02  0.39498204238E+02  0.92630430415E+03  0.92760356721E+03  0.00000000000E+00 0. -1.
         22    1    3    3    0    0 -0.90740825218E+02 -0.61223509220E+02  0.46213470785E+03  0.47492178687E+03  0.00000000000E+00 0. -1.
         22    1    3    3    0    0 -0.32884160862E+03 -0.65300955019E+02  0.82574618771E+03  0.89121141420E+03  0.00000000000E+00 0. -1.
</event>
<event>
 7    1  0.4822463E-005  0.2139517E+03  0.7818608E-02  0.1144154E+00
          2   -1    0    0  502    0  0.00000000000E+00  0.00000000000E+00  0.21151539182E+04  0.21151539182E+04  0.00000000000E+00 0. -1.
          1   -1    0    0  501    0 -0.00000000000E+00 -0.00000000000E+00 -0.11887182665E+04  0.11887182665E+04  0.00000000000E+00 0. -1.
         25    2    1    2    0    0  0.15178448971E+03 -0.28057027740E+02  0.17585987244E+04  0.17697796702E+04  0.12499951791E+03 0.  0.
          2    1    1    2  501    0 -0.60826140095E+02  0.20597265543E+03 -0.11438594396E+04  0.11638466272E+04  0.00000000000E+00 0. -1.
          1    1    1    2  502    0 -0.90958349611E+02 -0.17791562769E+03  0.31169636685E+03  0.37024588728E+03  0.00000000000E+00 0. -1.
         22    1    3    3    0    0  0.17023014520E+02 -0.53955469456E+02  0.35390414147E+03  0.35839798696E+03  0.00000000000E+00 0. -1.
         22    1    3    3    0    0  0.13476147519E+03  0.25898441715E+02  0.14046945830E+04  0.14113816833E+04  0.00000000000E+00 0. -1.
</event>
<event>
 7    1  0.4822463E-005  0.1035400E+03  0.7818608E-02  0.1294580E+00
          2   -1    0    0  502    0  0.00000000000E+00  0.00000000000E+00  0.10367579490E+04  0.10367579490E+04  0.00000000000E+00 0. -1.
          1   -1    0    0  501    0 -0.00000000000E+00 -0.00000000000E+00 -0.64888369004E+03  0.64888369004E+03  0.00000000000E+00 0. -1.
         25    2    1    2    0    0 -0.76367624359E+00  0.74042477534E+02  0.45505678385E+03  0.47768570245E+03  0.12499632840E+03 0.  0.
          2    1    1    2  501    0 -0.79281991783E+02  0.29064338952E+02 -0.62723489712E+03  0.63289334503E+03  0.00000000000E+00 0. -1.
          1    1    1    2  502    0  0.80045668026E+02 -0.10310681649E+03  0.56005237222E+03  0.57506259156E+03  0.00000000000E+00 0. -1.
         22    1    3    3    0    0  0.57141209378E+02  0.10522673268E+02  0.21469894161E+03  0.22242185142E+03  0.00000000000E+00 0.  1.
         22    1    3    3    0    0 -0.57904885621E+02  0.63519804266E+02  0.24035784225E+03  0.25526385103E+03  0.00000000000E+00 0.  1.
</event>
<event>
 7    1  0.4822463E-005  0.2810834E+03  0.7818608E-02  0.1193413E+00
          2   -1    0    0  502    0  0.00000000000E+00  0.00000000000E+00  0.28428897930E+03  0.28428897930E+03  0.00000000000E+00 0. -1.
          1   -1    0    0  501    0 -0.00000000000E+00 -0.00000000000E+00 -0.64632735572E+03  0.64632735572E+03  0.00000000000E+00 0. -1.
         25    2    1    2    0    0  0.12595887640E+03 -0.26472468482E+03  0.71311168433E+01  0.31878025665E+03  0.12500080762E+03 0.  0.
          2    1    1    2  501    0 -0.86154841768E+02 -0.72612869926E+01 -0.32140858142E+03  0.33283458243E+03  0.00000000000E+00 0. -1.
          1    1    1    2  502    0 -0.39804034631E+02  0.27198597182E+03 -0.47760911843E+02  0.27900149594E+03  0.00000000000E+00 0. -1.
         22    1    3    3    0    0  0.10895705914E+03 -0.25625444764E+03 -0.26955848094E+02  0.27975811055E+03  0.00000000000E+00 0. -1.
         22    1    3    3    0    0  0.17001817261E+02 -0.84702371887E+01  0.34086964937E+02  0.39022146108E+02  0.00000000000E+00 0. -1.
</event>
<event>
 7    1  0.4822463E-005  0.4000601E+03  0.7818608E-02  0.1205043E+00
          2   -1    0    0  502    0  0.00000000000E+00  0.00000000000E+00  0.49845159815E+03  0.49845159815E+03  0.00000000000E+00 0. -1.
          1   -1    0    0  501    0 -0.00000000000E+00 -0.00000000000E+00 -0.27879183072E+04  0.27879183072E+04  0.00000000000E+00 0. -1.
         25    2    1    2    0    0 -0.28161485740E+03  0.31573029230E+03 -0.83892934041E+03  0.94784943333E+03  0.12499425861E+03 0.  0.
          2    1    1    2  501    0  0.29084757300E+03 -0.26300130039E+03 -0.18725296473E+04  0.19131464332E+04  0.00000000000E+00 0. -1.
          1    1    1    2  502    0 -0.92327156033E+01 -0.52728991907E+02  0.42199227869E+03  0.42537403882E+03  0.00000000000E+00 0. -1.
         22    1    3    3    0    0 -0.12201120960E+03  0.14805157320E+03 -0.25052797220E+03  0.31554756923E+03  0.00000000000E+00 0. -1.
         22    1    3    3    0    0 -0.15960364780E+03  0.16767871909E+03 -0.58840136822E+03  0.63230186410E+03  0.00000000000E+00 0. -1.
</event>
<event>
 7    1  0.4822463E-005  0.1122950E+03  0.7818608E-02  0.1265295E+00
          2   -1    0    0  502    0  0.00000000000E+00  0.00000000000E+00  0.16777456183E+04  0.16777456183E+04  0.00000000000E+00 0. -1.
          1   -1    0    0  501    0 -0.00000000000E+00 -0.00000000000E+00 -0.27109047904E+02  0.27109047904E+02  0.00000000000E+00 0. -1.
         25    2    1    2    0    0 -0.67739112737E+02  0.12550541832E+03  0.86162524174E+03  0.88225005749E+03  0.12500763706E+03 0.  0.
          2    1    1    2  501    0 -0.32672637794E+02 -0.10307978164E+03  0.57582121885E+03  0.58588652376E+03  0.00000000000E+00 0. -1.
          1    1    1    2  502    0  0.10041175053E+03 -0.22425636689E+02  0.21319010984E+03  0.23671808499E+03  0.00000000000E+00 0. -1.
         22    1    3    3    0    0 -0.48179098164E+02  0.90545211006E+02  0.26308928704E+03  0.28237498772E+03  0.00000000000E+00 0.  1.
         22    1    3    3    0    0 -0.19560014573E+02  0.34960207318E+02  0.59853595470E+03  0.59987506978E+03  0.00000000000E+00 0.  1.
</event>
<event>
 7    1  0.4822463E-005  0.2237476E+03  0.7818608E-02  0.1160016E+00
          2   -1    0    0  502    0  0.00000000000E+00  0.00000000000E+00  0.11985073350E+04  0.11985073350E+04  0.00000000000E+00 0. -1.
          1   -1    0    0  501    0 -0.00000000000E+00 -0.00000000000E+00 -0.11656395448E+03  0.11656395448E+03  0.00000000000E+00 0. -1.
         25    2    1    2    0    0 -0.22085342638E+03  0.11682247975E+03  0.83064095867E+03  0.87636279508E+03  0.12499447453E+03 0.  0.
          2    1    1    2  501    0  0.14303598273E+03  0.68157677788E+02  0.99738118263E+02  0.18722300508E+03  0.00000000000E+00 0. -1.
          1    1    1    2  502    0  0.77817443641E+02 -0.18498015754E+03  0.15156430358E+03  0.25148548932E+03  0.00000000000E+00 0. -1.
         22    1    3    3    0    0  0.45483291257E+01 -0.51584202461E+01 -0.21054130666E+00  0.68804741779E+01  0.00000000000E+00 0. -1.
         22    1    3    3    0    0 -0.22540175550E+03  0.12198090000E+03  0.83085149998E+03  0.86948232090E+03  0.00000000000E+00 0. -1.
</event>
<event>
 7    1  0.4822463E-005  0.2044845E+03  0.7818608E-02  0.1232426E+00
          2   -1    0    0  502    0  0.00000000000E+00  0.00000000000E+00  0.52070339902E+03  0.52070339902E+03  0.00000000000E+00 0. -1.
          1   -1    0    0  501    0 -0.00000000000E+00 -0.00000000000E+00 -0.70549908057E+03  0.70549908057E+03  0.00000000000E+00 0. -1.
         25    2    1    2    0    0  0.23264018210E+03 -0.57476970899E+02  0.35411467549E+03  0.44547381485E+03  0.12499863925E+03 0.  0.
          2    1    1    2  501    0 -0.73321514312E+02  0.28074007240E+02 -0.60183055289E+03  0.60693015144E+03  0.00000000000E+00 0. -1.
          1    1    1    2  502    0 -0.15931866779E+03  0.29402963659E+02  0.62920195849E+02  0.17379851329E+03  0.00000000000E+00 0. -1.
         22    1    3    3    0    0  0.20933099730E+03 -0.41310669869E+02  0.35808125588E+03  0.41683116929E+03  0.00000000000E+00 0. -1.
         22    1    3    3    0    0  0.23309184797E+02 -0.16166301030E+02 -0.39665803949E+01  0.28642645564E+02  0.00000000000E+00 0. -1.
</event>
<event>
 7    1  0.4822463E-005  0.7822305E+02  0.7818608E-02  0.1350775E+00
          2   -1    0    0  502    0  0.00000000000E+00  0.00000000000E+00  0.13305782051E+04  0.13305782051E+04  0.00000000000E+00 0. -1.
          1   -1    0    0  501    0 -0.00000000000E+00 -0.00000000000E+00 -0.36961645389E+02  0.36961645389E+02  0.00000000000E+00 0. -1.
         25    2    1    2    0    0 -0.26576447338E+02 -0.27717704216E+02  0.37393342725E+03  0.39613814805E+03  0.12499858260E+03 0.  0.
          2    1    1    2  501    0  0.88768043472E+02  0.76629415609E+00  0.55775513182E+02  0.10483921318E+03  0.00000000000E+00 0. -1.
          1    1    1    2  502    0 -0.62191596134E+02  0.26951410060E+02  0.86390761931E+03  0.86656248929E+03  0.00000000000E+00 0. -1.
         22    1    3    3    0    0  0.13415606950E+02 -0.23491614485E+02  0.82960670139E+01  0.28295921770E+02  0.00000000000E+00 0.  1.
         22    1    3    3    0    0 -0.39992054287E+02 -0.42260897310E+01  0.36563736023E+03  0.36784222628E+03  0.00000000000E+00 0.  1.
</event>
<event>
 7    1  0.4822463E-005  0.2857244E+03  0.7818608E-02  0.1132745E+00
          2   -1    0    0  502    0  0.00000000000E+00  0.00000000000E+00  0.15709240783E+04  0.15709240783E+04  0.00000000000E+00 0. -1.
          1   -1    0    0  501    0 -0.00000000000E+00 -0.00000000000E+00 -0.35521045683E+03  0.35521045683E+03  0.00000000000E+00 0. -1.
         25    2    1    2    0    0  0.15410726502E+03  0.38045844553E+03  0.57274503304E+03  0.71565340937E+03  0.12500100625E+03 0.  0.
          2    1    1    2  501    0 -0.19618007489E+02 -0.27361629257E+03 -0.20679438446E+03  0.34353261741E+03  0.00000000000E+00 0. -1.
          1    1    1    2  502    0 -0.13448925753E+03 -0.10684215297E+03  0.84976297284E+03  0.86694850831E+03  0.00000000000E+00 0. -1.
         22    1    3    3    0    0  0.34322020819E+02  0.99988553423E+02  0.67280205442E+02  0.12530897004E+03  0.00000000000E+00 0.  1.
         22    1    3    3    0    0  0.11978524420E+03  0.28046989211E+03  0.50546482760E+03  0.59034443933E+03  0.00000000000E+00 0.  1.
</event>
<event>
 7    1  0.4822463E-005  0.2280708E+03  0.7818608E-02  0.1222048E+00
          2   -1    0    0  502    0  0.00000000000E+00  0.00000000000E+00  0.74391579381E+03  0.74391579381E+03  0.00000000000E+00 0. -1.
          1   -1    0    0  501    0 -0.00000000000E+00 -0.00000000000E+00 -0.87103649450E+03  0.87103649450E+03  0.00000000000E+00 0. -1.
         25    2    1    2    0    0  0.62370031205E+02  0.26770009576E+03  0.31365920878E+03  0.43538355723E+03  0.12499352218E+03 0.  0.
          2    1    1    2  501    0  0.16617477297E+02 -0.76611707149E+02 -0.77911738431E+03  0.78305133469E+03  0.00000000000E+00 0. -1.
          1    1    1    2  502    0 -0.78987508502E+02 -0.19108838861E+03  0.33833747484E+03  0.39651739639E+03  0.00000000000E+00 0. -1.
         22    1    3    3    0    0  0.94332155974E+02  0.22246613303E+03  0.28281831624E+03  0.37198916113E+03  0.00000000000E+00 0.  1.
         22    1    3    3    0    0 -0.31962124769E+02  0.45233962728E+02  0.30840892541E+02  0.63394396097E+02  0.00000000000E+00 0.  1.
</event>
<event>
 7    1  0.4822463E-005  0.6359742E+03  0.7818608E-02  0.1093380E+00
          2   -1    0    0  502    0  0.00000000000E+00  0.00000000000E+00  0.53605852755E+03  0.53605852755E+03  0.00000000000E+00 0. -1.
          1   -1    0    0  501    0 -0.00000000000E+00 -0.00000000000E+00 -0.18261704451E+04  0.18261704451E+04  0.00000000000E+00 0. -1.
         25    2    1    2    0    0 -0.60608942101E+02 -0.66528882697E+03 -0.13281650509E+04  0.14919553082E+04  0.12500228852E+03 0.  0.
          2    1    1    2  501    0  0.11379585055E+03  0.54989315157E+03 -0.20354817487E+03  0.59729710633E+03  0.00000000000E+00 0. -1.
          1    1    1    2  502    0 -0.53186908448E+02  0.11539567540E+03  0.24160130822E+03  0.27297655809E+03  0.00000000000E+00 0. -1.
         22    1    3    3    0    0 -0.50463352675E+02 -0.44303687081E+03 -0.75109791832E+03  0.87348514685E+03  0.00000000000E+00 0.  1.
         22    1    3    3    0    0 -0.10145589426E+02 -0.22225195616E+03 -0.57706713256E+03  0.61847016135E+03  0.00000000000E+00 0.  1.
</event>
<event>
 7    1  0.4822463E-005  0.1242741E+03  0.7818608E-02  0.1339647E+00
          2   -1    0    0  502    0  0.00000000000E+00  0.00000000000E+00  0.57191011210E+03  0.57191011210E+03  0.00000000000E+00 0. -1.
          1   -1    0    0  501    0 -0.00000000000E+00 -0.00000000000E+00 -0.66512568036E+02  0.66512568036E+02  0.00000000000E+00 0. -1.
         25    2    1    2    0    0 -0.10872230424E+03  0.10474503899E+03  0.38260481121E+03  0.42988805816E+03  0.12500095343E+03 0.  0.
          2    1    1    2  501    0  0.61929726765E+02 -0.10096342630E+03  0.68755268437E+02  0.13695324547E+03  0.00000000000E+00 0. -1.
          1    1    1    2  502    0  0.46792577477E+02 -0.37816126853E+01  0.54037464422E+02  0.71581376507E+02  0.00000000000E+00 0. -1.
         22    1    3    3    0    0 -0.38673881740E+01  0.30081765078E+02  0.22201408802E+03  0.22407615795E+03  0.00000000000E+00 0.  1.
         22    1    3    3    0    0 -0.10485491607E+03  0.74663273908E+02  0.16059072318E+03  0.20581190021E+03  0.00000000000E+00 0.  1.
</event>
<event>
 7    1  0.4822463E-005  0.2653467E+03  0.7818608E-02  0.1140944E+00
          2   -1    0    0  502    0  0.00000000000E+00  0.00000000000E+00  0.11712882824E+04  0.11712882824E+04  0.00000000000E+00 0. -1.
          1   -1    0    0  501    0 -0.00000000000E+00 -0.00000000000E+00 -0.83250117133E+03  0.83250117133E+03  0.00000000000E+00 0. -1.
         25    2    1    2    0    0  0.26218217765E+03 -0.36009932961E+02  0.88463069359E+03  0.93179030533E+03  0.12500199807E+03 0.  0.
          2    1    1    2  501    0 -0.29926514410E+02 -0.16475089387E+03 -0.70610525485E+03  0.72568800749E+03  0.00000000000E+00 0. -1.
          1    1    1    2  502    0 -0.23225566324E+03  0.20076082683E+03  0.16026167235E+03  0.34631114091E+03  0.00000000000E+00 0. -1.
         22    1    3    3    0    0  0.15011624042E+03 -0.54591408947E+02  0.34292725443E+03  0.37830438724E+03  0.00000000000E+00 0.  1.
         22    1    3    3    0    0  0.11206593723E+03  0.18581475986E+02  0.54170343916E+03  0.55348591810E+03  0.00000000000E+00 0.  1.
</event>
<event>
 7    1  0.4822463E-005  0.5275759E+03  0.7818608E-02  0.1177769E+00
          2   -1    0    0  502    0  0.00000000000E+00  0.00000000000E+00  0.28128685948E+04  0.28128685948E+04  0.00000000000E+00 0. -1.
          1   -1    0    0  501    0 -0.00000000000E+00 -0.00000000000E+00 -0.20823383791E+04  0.20823383791E+04  0.00000000000E+00 0. -1.
         25    2    1    2    0    0  0.52963092353E+03  0.19524713010E+03 -0.65567561141E+03  0.87416715375E+03  0.12500939299E+03 0.  0.
          2    1    1    2  501    0 -0.23862737031E+02 -0.49362580015E+02 -0.12912081877E+04  0.12923717262E+04  0.00000000000E+00 0. -1.
          1    1    1    2  502    0 -0.50576818650E+03 -0.14588455008E+03  0.26774140148E+04  0.27286680939E+04  0.00000000000E+00 0. -1.
         22    1    3    3    0    0  0.49392801009E+03  0.15056039243E+03 -0.55275178019E+03  0.75641776912E+03  0.00000000000E+00 0. -1.
         22    1    3    3    0    0  0.35702913436E+02  0.44686737667E+02 -0.10292383121E+03  0.11774938464E+03  0.00000000000E+00 0. -1.
</event>
<event>
 7    1  0.4822463E-005  0.5262479E+03  0.7818608E-02  0.1090614E+00
          2   -1    0    0  502    0  0.00000000000E+00  0.00000000000E+00  0.13435735026E+04  0.13435735026E+04  0.00000000000E+00 0. -1.
          1   -1    0    0  501    0 -0.00000000000E+00 -0.00000000000E+00 -0.98463784782E+03  0.98463784782E+03  0.00000000000E+00 0. -1.
         25    2    1    2    0    0 -0.32478020081E+03  0.22341670985E+03 -0.18560774982E+03  0.45329017777E+03  0.12499817356E+03 0.  0.
          2    1    1    2  501    0 -0.11918041240E+03  0.10562965950E+03 -0.59098621665E+03  0.61206723809E+03  0.00000000000E+00 0. -1.
          1    1    1    2  502    0  0.44396061321E+03 -0.32904636936E+03  0.11355296212E+04  0.12628539345E+04  0.00000000000E+00 0. -1.
         22    1    3    3    0    0 -0.26407843318E+03  0.11256199552E+03 -0.13331299368E+03  0.31651220512E+03  0.00000000000E+00 0. -1.
         22    1    3    3    0    0 -0.60701767626E+02  0.11085471434E+03 -0.52294756148E+02  0.13677797266E+03  0.00000000000E+00 0. -1.
</event>
<event>
 7    1  0.4822463E-005  0.5108015E+03  0.7818608E-02  0.1245885E+00
          2   -1    0    0  502    0  0.00000000000E+00  0.00000000000E+00  0.15576672865E+04  0.15576672865E+04  0.00000000000E+00 0. -1.
          1   -1    0    0  501    0 -0.00000000000E+00 -0.00000000000E+00 -0.14224288822E+04  0.14224288822E+04  0.00000000000E+00 0. -1.
         25    2    1    2    0    0  0.24043273219E+03  0.43433117670E+03  0.47079926519E+03  0.69550124807E+03  0.12497427017E+03 0.  0.
          2    1    1    2  501    0 -0.22775779618E+03 -0.45863436755E+03 -0.12598281221E+04  0.13599213191E+04  0.00000000000E+00 0. -1.
          1    1    1    2  502    0 -0.12674936012E+02  0.24303190850E+02  0.92426726131E+03  0.92467360156E+03  0.00000000000E+00 0. -1.
         22    1    3    3    0    0  0.78447598078E+02  0.76866758497E+02  0.51871962698E+02  0.12146285325E+03  0.00000000000E+00 0. -1.
         22    1    3    3    0    0  0.16198513411E+03  0.35746441820E+03  0.41892730249E+03  0.57403839482E+03  0.00000000000E+00 0. -1.
</event>
<event>
 7    1  0.4822463E-005  0.5931341E+03  0.7818608E-02  0.1124982E+00
          2   -1    0    0  502    0  0.00000000000E+00  0.00000000000E+00  0.30558155892E+04  0.30558155892E+04  0.00000000000E+00 0. -1.
          1   -1    0    0  501    0 -0.00000000000E+00 -0.00000000000E+00 -0.14483274174E+04  0.14483274174E+04  0.00000000000E+00 0. -1.
         25    2    1    2    0    0 -0.29098194052E+03  0.49037690108E+03  0.20872972408E+04  0.21673888362E+04  0.12499840346E+03 0.  0.
          2    1    1    2  501    0 -0.35936408408E+02  0.83642076444E+02 -0.12889750863E+04  0.12921858208E+04  0.00000000000E+00 0. -1.
          1    1    1    2  502    0  0.32691834893E+03 -0.57401897753E+03  0.80916601725E+03  0.10445683496E+04  0.00000000000E+00 0. -1.
         22    1    3    3    0    0 -0.14517025843E+03  0.14088733193E+03  0.62931667761E+03  0.66103186379E+03  0.00000000000E+00 0. -1.
         22    1    3    3    0    0 -0.14581168209E+03  0.34948956915E+03  0.14579805632E+04  0.15063569724E+04  0.00000000000E+00 0. -1.
</event>
<event>
 7    1  0.4822463E-005  0.1253317E+04  0.7818608E-02  0.9416575E-01
          2   -1    0    0  502    0  0.00000000000E+00  0.00000000000E+00  0.48169226737E+04  0.48169226737E+04  0.00000000000E+00 0. -1.
          1   -1    0    0  501    0 -0.00000000000E+00 -0.00000000000E+00 -0.12696332140E+04  0.12696332140E+04  0.00000000000E+00 0. -1.
         25    2    1    2    0    0  0.16914447977E+04  0.39076027071E+03  0.12089243286E+04  0.21191509887E+04  0.12499515159E+03 0.  0.
          2    1    1    2  501    0 -0.10388839831E+04 -0.46460218147E+03 -0.35736688683E+03  0.11928311738E+04  0.00000000000E+00 0. -1.
          1    1    1    2  502    0 -0.65256081459E+03  0.73841910766E+02  0.26957320179E+04  0.27745737253E+04  0.00000000000E+00 0. -1.
         22    1    3    3    0    0  0.10125666135E+04  0.25128492693E+03  0.65416681341E+03  0.12314095505E+04  0.00000000000E+00 0.  1.
         22    1    3    3    0    0  0.67887818420E+03  0.13947534378E+03  0.55475751518E+03  0.88774143823E+03  0.00000000000E+00 0.  1.
</event>
<event>
 7    1  0.4822463E-005  0.3270380E+03  0.7818608E-02  0.1326160E+00
          2   -1    0    0  502    0  0.00000000000E+00  0.00000000000E+00  0.28940258871E+03  0.28940258871E+03  0.00000000000E+00 0. -1.
          1   -1    0    0  501    0 -0.00000000000E+00 -0.00000000000E+00 -0.15958430123E+04  0.15958430123E+04  0.00000000000E+00 0. -1.
         25    2    1    2    0    0 -0.14985923363E+03  0.29156270341E+03 -0.14505531706E+04  0.14923790039E+04  0.12499596235E+03 0.  0.
          2    1    1    2  501    0  0.12979303912E+03 -0.29217768047E+03  0.85548625057E+02  0.33095709271E+03  0.00000000000E+00 0. -1.
          1    1    1    2  502    0  0.20066194512E+02  0.61497705960E+00  0.58564121944E+02  0.61909504424E+02  0.00000000000E+00 0. -1.
         22    1    3    3    0    0 -0.64078648183E+02  0.15973658644E+03 -0.10107682256E+04  0.10253166614E+04  0.00000000000E+00 0. -1.
         22    1    3    3    0    0 -0.85780585451E+02  0.13182611697E+03 -0.43978494499E+03  0.46706234251E+03  0.00000000000E+00 0. -1.
</event>
<event>
 7    1  0.4822463E-005  0.3666465E+03  0.7818608E-02  0.1167134E+00
          2   -1    0    0  502    0  0.00000000000E+00  0.00000000000E+00  0.26841623860E+03  0.26841623860E+03  0.00000000000E+00 0. -1.
          1   -1    0    0  501    0 -0.00000000000E+00 -0.00000000000E+00 -0.96181686858E+03  0.96181686858E+03  0.00000000000E+00 0. -1.
         25    2    1    2    0    0 -0.33464941428E+03 -0.86072684986E+02 -0.19856993807E+03  0.41767631971E+03  0.12499900065E+03 0.  0.
          2    1    1    2  501    0 -0.52124054561E+02  0.72200754529E+02 -0.40576084608E+03  0.41541753722E+03  0.00000000000E+00 0. -1.
          1    1    1    2  502    0  0.38677346884E+03  0.13871930457E+02 -0.89069845834E+02  0.39713925026E+03  0.00000000000E+00 0. -1.
         22    1    3    3    0    0 -0.16136310571E+03 -0.75415677621E+02 -0.16088455205E+03  0.24001961462E+03  0.00000000000E+00 0. -1.
         22    1    3    3    0    0 -0.17328630857E+03 -0.10657007365E+02 -0.37685386017E+02  0.17765670509E+03  0.00000000000E+00 0. -1.
</event>
<event>
 7    1  0.4822463E-005  0.2732676E+03  0.7818608E-02  0.1297969E+00
          2   -1    0    0  502    0  0.00000000000E+00  0.00000000000E+00  0.16024925534E+03  0.16024925534E+03  0.00000000000E+00 0. -1.
          1   -1    0    0  501    0 -0.00000000000E+00 -0.00000000000E+00 -0.58867812498E+03  0.58867812498E+03  0.00000000000E+00 0. -1.
         25    2    1    2    0    0 -0.11420488594E+03  0.26433341713E+03 -0.18082282500E+03  0.36226893143E+03  0.12500789277E+03 0.  0.
          2    1    1    2  501    0  0.10460707677E+02 -0.29187015618E+02 -0.18556639089E+01  0.31060453544E+02  0.00000000000E+00 0. -1.
          1    1    1    2  502    0  0.10374417826E+03 -0.23514640151E+03 -0.24575038074E+03  0.35559799535E+03  0.00000000000E+00 0. -1.
         22    1    3    3    0    0 -0.35225023608E+02  0.20472917175E+03 -0.15727778277E+03  0.26055927734E+03  0.00000000000E+00 0.  1.
         22    1    3    3    0    0 -0.78979862332E+02  0.59604245375E+02 -0.23545042220E+02  0.10170965408E+03  0.00000000000E+00 0.  1.
</event>
<event>
 7    1  0.4822463E-005  0.1135807E+03  0.7818608E-02  0.1294591E+00
          2   -1    0    0  502    0  0.00000000000E+00  0.00000000000E+00  0.21216905797E+04  0.21216905797E+04  0.00000000000E+00 0. -1.
          1   -1    0    0  501    0 -0.00000000000E+00 -0.00000000000E+00 -0.11858853888E+03  0.11858853888E+03  0.00000000000E+00 0. -1.
         25    2    1    2    0    0  0.64986640674E+02 -0.14393463034E+02 -0.44852252173E+02  0.14855266596E+03  0.12500293915E+03 0.  0.
          2    1    1    2  501    0  0.36471650290E+02  0.67779485391E+02  0.52933259429E+02  0.93413970414E+02  0.00000000000E+00 0. -1.
          1    1    1    2  502    0 -0.10145829096E+03 -0.53386022357E+02  0.19950210336E+04  0.19983124822E+04  0.00000000000E+00 0. -1.
         22    1    3    3    0    0  0.93958157064E+02  0.69124433763E+01 -0.57568188995E+02  0.11040839432E+03  0.00000000000E+00 0.  1.
         22    1    3    3    0    0 -0.28971516390E+02 -0.21305906411E+02  0.12715936822E+02  0.38144271643E+02  0.00000000000E+00 0.  1.
</event>
<event>
 7    1  0.4822463E-005  0.1630283E+03  0.7818608E-02  0.1224975E+00
          2   -1    0    0  502    0  0.00000000000E+00  0.00000000000E+00  0.19156316513E+04  0.19156316513E+04  0.00000000000E+00 0. -1.
          1   -1    0    0  501    0 -0.00000000000E+00 -0.00000000000E+00 -0.15358417498E+04  0.15358417498E+04  0.00000000000E+00 0. -1.
         25    2    1    2    0    0  0.17755129923E+03 -0.84026748342E+02  0.20717634000E+03  0.31166059340E+03  0.12500132532E+03 0.  0.
          2    1    1    2  501    0 -0.16248307055E+02  0.10512165825E+03 -0.14776886435E+04  0.14815121659E+04  0.00000000000E+00 0. -1.
          1    1    1    2  502    0 -0.16130299217E+03 -0.21094909905E+02  0.16503022051E+04  0.16583006418E+04  0.00000000000E+00 0. -1.
         22    1    3    3    0    0 -0.12803500133E+02 -0.21743483049E+02  0.53700661737E+02  0.59333546513E+02  0.00000000000E+00 0. -1.
         22    1    3    3    0    0  0.19035479936E+03 -0.62283265293E+02  0.15347567826E+03  0.25232704689E+03  0.00000000000E+00 0. -1.
</event>
<event>
 7    1  0.4822463E-005  0.3032902E+03  0.7818608E-02  0.1199202E+00
          2   -1    0    0  502    0  0.00000000000E+00  0.00000000000E+00  0.16546422460E+04  0.16546422460E+04  0.00000000000E+00 0. -1.
          1   -1    0    0  501    0 -0.00000000000E+00 -0.00000000000E+00 -0.11902672252E+03  0.11902672252E+03  0.00000000000E+00 0. -1.
         25    2    1    2    0    0 -0.18311271599E+03 -0.27007496827E+03  0.10488632265E+04  0.11055363796E+04  0.12500345373E+03 0.  0.
          2    1    1    2  501    0 -0.13774356804E+02  0.73945610640E+02 -0.30329407103E+02  0.81102152706E+02  0.00000000000E+00 0. -1.
          1    1    1    2  502    0  0.19688707280E+03  0.19612935763E+03  0.51708170409E+03  0.58703043623E+03  0.00000000000E+00 0. -1.
         22    1    3    3    0    0 -0.92086113546E+02 -0.38149599086E+02  0.27124617454E+03  0.28898050353E+03  0.00000000000E+00 0. -1.
         22    1    3    3    0    0 -0.91026602446E+02 -0.23192536918E+03  0.77761705196E+03  0.81655587606E+03  0.00000000000E+00 0. -1.
</event>
<event>
 7    1  0.4822463E-005  0.1324776E+03  0.7818608E-02  0.1397962E+00
          2   -1    0    0  502    0  0.00000000000E+00  0.00000000000E+00  0.79083118883E+03  0.79083118883E+03  0.00000000000E+00 0. -1.
          1   -1    0    0  501    0 -0.00000000000E+00 -0.00000000000E+00 -0.78142205566E+03  0.78142205566E+03  0.00000000000E+00 0. -1.
         25    2    1    2    0    0 -0.61049919415E+02  0.11543603918E+03  0.71150754471E+03  0.73411211595E+03  0.12500016324E+03 0.  0.
          2    1    1    2  501    0  0.12909186151E+02  0.23880550276E+02 -0.68968576953E+03  0.69021981169E+03  0.00000000000E+00 0. -1.
          1    1    1    2  502    0  0.48140733264E+02 -0.13931658945E+03 -0.12412642017E+02  0.14792131685E+03  0.00000000000E+00 0. -1.
         22    1    3    3    0    0 -0.50692949421E+02 -0.32582736718E+01  0.34513429153E+03  0.34885250559E+03  0.00000000000E+00 0.  1.
         22    1    3    3    0    0 -0.10356969994E+02  0.11869431285E+03  0.36637325318E+03  0.38525961036E+03  0.00000000000E+00 0.  1.
</event>
<event>
 7    1  0.4822463E-005  0.5951761E+03  0.7818608E-02  0.1251453E+00
          2   -1    0    0  502    0  0.00000000000E+00  0.00000000000E+00  0.41938088417E+03  0.41938088417E+03  0.00000000000E+00 0. -1.
          1   -1    0    0  501    0 -0.00000000000E+00 -0.00000000000E+00 -0.17728526399E+04  0.17728526399E+04  0.00000000000E+00 0. -1.
         25    2    1    2    0    0  0.50788829479E+03 -0.30522367803E+03 -0.10652673695E+04  0.12253702408E+04  0.12500258043E+03 0.  0.
          2    1    1    2  501    0 -0.50322910532E+03  0.32697902354E+03 -0.48327653868E+03  0.77052646101E+03  0.00000000000E+00 0. -1.
          1    1    1    2  502    0 -0.46591894744E+01 -0.21755345508E+02  0.19507215241E+03  0.19633682220E+03  0.00000000000E+00 0. -1.
         22    1    3    3    0    0  0.35476713837E+03 -0.16403794644E+03 -0.77657493842E+03  0.86938875385E+03  0.00000000000E+00 0.  1.
         22    1    3    3    0    0  0.15312115642E+03 -0.14118573159E+03 -0.28869243103E+03  0.35598148699E+03  0.00000000000E+00 0.  1.
</event>
<event>
 7    1  0.4822463E-005  0.2177240E+03  0.7818608E-02  0.1149310E+00
          2   -1    0    0  502    0  0.00000000000E+00  0.00000000000E+00  0.84465632869E+03  0.84465632869E+03  0.00000000000E+00 0. -1.
          1   -1    0    0  501    0 -0.00000000000E+00 -0.00000000000E+00 -0.72341867429E+03  0.72341867429E+03  0.00000000000E+00 0. -1.
         25    2    1    2    0    0  0.31490468237E+03 -0.50843393274E+02  0.23403743250E+02  0.34339896038E+03  0.12500040469E+03 0.  0.
          2    1    1    2  501    0 -0.19265194267E+03 -0.87546214367E+02 -0.52977089659E+03  0.57047025649E+03  0.00000000000E+00 0. -1.
          1    1    1    2  502    0 -0.12225273970E+03  0.13838960764E+03  0.62760480774E+03  0.65420578610E+03  0.00000000000E+00 0. -1.
         22    1    3    3    0    0  0.19528699030E+03 -0.72831515840E+02 -0.29990475222E+02  0.21057271163E+03  0.00000000000E+00 0.  1.
         22    1    3    3    0    0  0.11961769207E+03  0.21988122566E+02  0.53394218472E+02  0.13282624875E+03  0.00000000000E+00 0.  1.
</event>
<event>
 7    1  0.4822463E-005  0.1086787E+04  0.7818608E-02  0.1170458E+00
          2   -1    0    0  502    0  0.00000000000E+00  0.00000000000E+00  0.10182050191E+04  0.10182050191E+04  0.00000000000E+00 0. -1.
          1   -1    0    0  501    0 -0.00000000000E+00 -0.00000000000E+00 -0.29517588568E+04  0.29517588568E+04  0.00000000000E+00 0. -1.
         25    2    1    2    0    0  0.10801340085E+04 -0.23280027611E+03 -0.57570955859E+03  0.12521787478E+04  0.12499870286E+03 0.  0.
          2    1    1    2  501    0 -0.28432541349E+02 -0.52852134697E+01 -0.16100990662E+04  0.16103587631E+04  0.00000000000E+00 0. -1.
          1    1    1    2  502    0 -0.10517014671E+04  0.23808548958E+03  0.25225478707E+03  0.11074263650E+04  0.00000000000E+00 0. -1.
         22    1    3    3    0    0  0.57373536953E+03 -0.10137341918E+03 -0.36901636899E+03  0.68965348179E+03  0.00000000000E+00 0.  1.
         22    1    3    3    0    0  0.50639863893E+03 -0.13142685693E+03 -0.20669318960E+03  0.56252526597E+03  0.00000000000E+00 0.  1.
</event>
<event>
 7    1  0.4822463E-005  0.1208084E+03  0.7818608E-02  0.1372854E+00
          2   -1    0    0  502    0  0.00000000000E+00  0.00000000000E+00  0.92559149447E+02  0.92559149447E+02  0.00000000000E+00 0. -1.
          1   -1    0    0  501    0 -0.00000000000E+00 -0.00000000000E+00 -0.34478962211E+03  0.34478962211E+03  0.00000000000E+00 0. -1.
         25    2    1    2    0    0 -0.37888448506E+02  0.12467423526E+03 -0.49011221287E+02  0.18710798354E+03  0.12501239228E+03 0.  0.
          2    1    1    2  501    0  0.32544181010E+02 -0.16468159726E+02 -0.38022786128E+02  0.52688293456E+02  0.00000000000E+00 0. -1.
          1    1    1    2  502    0  0.53442674956E+01 -0.10820607553E+03 -0.16519646525E+03  0.19755249456E+03  0.00000000000E+00 0. -1.
         22    1    3    3    0    0  0.24298079426E+01  0.10407360244E+03 -0.80805763436E+02  0.13178311765E+03  0.00000000000E+00 0. -1.
         22    1    3    3    0    0 -0.40318256448E+02  0.20600632818E+02  0.31794542149E+02  0.55324865892E+02  0.00000000000E+00 0. -1.
</event>
<event>
 7    1  0.4822463E-005  0.1740701E+03  0.7818608E-02  0.1303000E+00
          2   -1    0    0  502    0  0.00000000000E+00  0.00000000000E+00  0.14072996429E+03  0.14072996429E+03  0.00000000000E+00 0. -1.
          1   -1    0    0  501    0 -0.00000000000E+00 -0.00000000000E+00 -0.10136072038E+04  0.10136072038E+04  0.00000000000E+00 0. -1.
         25    2    1    2    0    0  0.16531260697E+03  0.34501713145E+02 -0.67235885676E+03  0.70442220725E+03  0.12500235028E+03 0.  0.
          2    1    1    2  501    0 -0.21168994142E+03 -0.31575907743E+02  0.28777284742E+02  0.21595786942E+03  0.00000000000E+00 0. -1.
          1    1    1    2  502    0  0.46377334455E+02 -0.29258054020E+01 -0.22929566750E+03  0.23395709141E+03  0.00000000000E+00 0. -1.
         22    1    3    3    0    0  0.83696675340E+02 -0.45477178830E+02 -0.27977537889E+03  0.29554622293E+03  0.00000000000E+00 0. -1.
         22    1    3    3    0    0  0.81615931627E+02  0.79978891975E+02 -0.39258347787E+03  0.40887598432E+03  0.00000000000E+00 0. -1.
</event>
<event>
 7    1  0.4822463E-005  0.1017612E+04  0.7818608E-02  0.1036397E+00
          2   -1    0    0  502    0  0.00000000000E+00  0.00000000000E+00  0.27903856479E+04  0.27903856479E+04  0.00000000000E+00 0. -1.
          1   -1    0    0  501    0 -0.00000000000E+00 -0.00000000000E+00 -0.85048839308E+03  0.85048839308E+03  0.00000000000E+00 0. -1.
         25    2    1    2    0    0 -0.39655561342E+03 -0.10428908304E+04  0.71202216924E+03  0.13294678026E+04  0.12502571728E+03 0.  0.
          2    1    1    2  501    0 -0.40684827565E+02  0.17026052292E+03 -0.38684789944E+03  0.42461182056E+03  0.00000000000E+00 0. -1.
          1    1    1    2  502    0  0.43724044098E+03  0.87263030748E+03  0.16147229850E+04  0.18867944178E+04  0.00000000000E+00 0. -1.
         22    1    3    3    0    0 -0.13954357117E+03 -0.46738601120E+03  0.37105239359E+03  0.61286374547E+03  0.00000000000E+00 0.  1.
         22    1    3    3    0    0 -0.25701204225E+03 -0.57550481920E+03  0.34096977565E+03  0.71660405713E+03  0.00000000000E+00 0.  1.
</event>
<event>
 7    1  0.4822463E-005  0.4200259E+03  0.7818608E-02  0.1271709E+00
          2   -1    0    0  502    0  0.00000000000E+00  0.00000000000E+00  0.20886810982E+04  0.20886810982E+04  0.00000000000E+00 0. -1.
          1   -1    0    0  501    0 -0.00000000000E+00 -0.00000000000E+00 -0.24216157615E+03  0.24216157615E+03  0.00000000000E+00 0. -1.
         25    2    1    2    0    0 -0.33476999958E+03  0.27615329384E+03  0.18126009183E+04  0.18680145314E+04  0.12499842389E+03 0.  0.
          2    1    1    2  501    0  0.33538939395E+03 -0.25031216594E+03 -0.20866472725E+01  0.41850517331E+03  0.00000000000E+00 0. -1.
          1    1    1    2  502    0 -0.61939436482E+00 -0.25841127902E+02  0.36005250955E+02  0.44322969632E+02  0.00000000000E+00 0. -1.
         22    1    3    3    0    0 -0.10218918341E+03  0.18918442636E+02  0.37022748295E+03  0.38453728794E+03  0.00000000000E+00 0.  1.
         22    1    3    3    0    0 -0.23258081617E+03  0.25723485120E+03  0.14423734354E+04  0.14834772434E+04  0.00000000000E+00 0.  1.
</event>
<event>
 7    1  0.4822463E-005  0.1833837E+04  0.7818608E-02  0.1133581E+00
          2   -1    0    0  502    0  0.00000000000E+00  0.00000000000E+00  0.28766312795E+04  0.28766312795E+04  0.00000000000E+00 0. -1.
          1   -1    0    0  501    0 -0.00000000000E+00 -0.00000000000E+00 -0.37816259112E+04  0.37816259112E+04  0.00000000000E+00 0. -1.
         25    2    1    2    0    0 -0.16599289321E+04 -0.81891575391E+03 -0.16700178193E+04  0.24961110342E+04  0.12499482597E+03 0.  0.
          2    1    1    2  501    0  0.25609460181E+02 -0.67733993971E+01 -0.13581823558E+04  0.13584406630E+04  0.00000000000E+00 0. -1.
          1    1    1    2  502    0  0.16343194720E+04  0.82568915331E+03  0.21232055434E+04  0.28037054934E+04  0.00000000000E+00 0. -1.
         22    1    3    3    0    0 -0.58589254618E+03 -0.31147955590E+03 -0.52350044139E+03  0.84518773154E+03  0.00000000000E+00 0. -1.
         22    1    3    3    0    0 -0.10740363860E+04 -0.50743619801E+03 -0.11465173779E+04  0.16509233026E+04  0.00000000000E+00 0. -1.
</event>
<event>
 7    1  0.4822463E-005  0.4060038E+03  0.7818608E-02  0.1250519E+00
          2   -1    0    0  502    0  0.00000000000E+00  0.00000000000E+00  0.98864846280E+03  0.98864846280E+03  0.00000000000E+00 0. -1.
          1   -1    0    0  501    0 -0.00000000000E+00 -0.00000000000E+00 -0.52366263573E+03  0.52366263573E+03  0.00000000000E+00 0. -1.
         25    2    1    2    0    0  0.95139928062E+02  0.38451248865E+03 -0.11229984418E+03  0.43027639446E+03  0.12500024315E+03 0.  0.
          2    1    1    2  501    0 -0.12520188138E+03 -0.39793021000E+03 -0.79293348996E+02  0.42463089658E+03  0.00000000000E+00 0. -1.
          1    1    1    2  502    0  0.30061953317E+02  0.13417721353E+02  0.65657902024E+03  0.65740380749E+03  0.00000000000E+00 0. -1.
         22    1    3    3    0    0  0.24646163980E+02  0.16704782752E+03  0.13408724532E+02  0.16938773265E+03  0.00000000000E+00 0.  1.
         22    1    3    3    0    0  0.70493764082E+02  0.21746466113E+03 -0.12570856871E+03  0.26088866181E+03  0.00000000000E+00 0.  1.
</event>
<event>
 7    1  0.4822463E-005  0.3378937E+03  0.7818608E-02  0.1183367E+00
          2   -1    0    0  502    0  0.00000000000E+00  0.00000000000E+00  0.10211822943E+04  0.10211822943E+04  0.00000000000E+00 0. -1.
          1   -1    0    0  501    0 -0.00000000000E+00 -0.00000000000E+00 -0.26417197757E+03  0.26417197757E+03  0.00000000000E+00 0. -1.
         25    2    1    2    0    0 -0.61111260557E+02  0.27640057925E+03  0.35727013569E+03  0.47265069311E+03  0.12499944587E+03 0.  0.
          2    1    1    2  501    0  0.10577548651E+03 -0.34324155854E+03 -0.43895935416E+02  0.36184260971E+03  0.00000000000E+00 0. -1.
          1    1    1    2  502    0 -0.44664225957E+02  0.66840979291E+02  0.44363611647E+03  0.45086096907E+03  0.00000000000E+00 0. -1.
         22    1    3    3    0    0 -0.14818467549E+02  0.77884749281E+02  0.25535079496E+02  0.83292625339E+02  0.00000000000E+00 0.  1.
         22    1    3    3    0    0 -0.46292793008E+02  0.19851582997E+03  0.33173505619E+03  0.38935806777E+03  0.00000000000E+00 0.  1.
</event>
<event>
 7    1  0.4822463E-005  0.3627844E+03  0.7818608E-02  0.1228846E+00
          2   -1    0    0  502    0  0.00000000000E+00  0.00000000000E+00  0.12722114894E+04  0.12722114894E+04  0.00000000000E+00 0. -1.
          1   -1    0    0  501    0 -0.00000000000E+00 -0.00000000000E+00 -0.63682609394E+03  0.63682609394E+03  0.00000000000E+00 0. -1.
         25    2    1    2    0    0 -0.34965938400E+03 -0.15841104199E+03  0.13314881234E+03  0.42509917114E+03  0.12499982411E+03 0.  0.
          2    1    1    2  501    0  0.30941235204E+03  0.18051701615E+03 -0.42484981872E+03  0.55571554341E+03  0.00000000000E+00 0. -1.
          1    1    1    2  502    0  0.40247031959E+02 -0.22105974161E+02  0.92708640187E+03  0.92822286883E+03  0.00000000000E+00 0. -1.
         22    1    3    3    0    0 -0.35154731369E+02 -0.59671425185E+02  0.49149883890E+02  0.84924938667E+02  0.00000000000E+00 0.  1.
         22    1    3    3    0    0 -0.31450465263E+03 -0.98739616804E+02  0.83998928448E+02  0.34017423247E+03  0.00000000000E+00 0.  1.
</event>
<event>
 7    1  0.4822463E-005  0.7249484E+03  0.7818608E-02  0.1027196E+00
          2   -1    0    0  502    0  0.00000000000E+00  0.00000000000E+00  0.22173536753E+04  0.22173536753E+04  0.00000000000E+00 0. -1.
          1   -1    0    0  501    0 -0.00000000000E+00 -0.00000000000E+00 -0.74915010318E+03  0.74915010318E+03  0.00000000000E+00 0. -1.
         25    2    1    2    0    0 -0.41593480298E+03 -0.77717305067E+03 -0.91351973014E+02  0.89497073989E+03  0.12501092457E+03 0.  0.
          2    1    1    2  501    0 -0.76328081241E+02  0.27098658501E+03 -0.74697164558E+02  0.29127198910E+03  0.00000000000E+00 0. -1.
          1    1    1    2  502    0  0.49226288423E+03  0.50618646566E+03  0.16342527096E+04  0.17802610494E+04  0.00000000000E+00 0. -1.
         22    1    3    3    0    0 -0.38078355548E+03 -0.61421915120E+03 -0.90035478200E+02  0.72826346137E+03  0.00000000000E+00 0.  1.
         22    1    3    3    0    0 -0.35151247500E+02 -0.16295389947E+03 -0.13164948145E+01  0.16670727852E+03  0.00000000000E+00 0.  1.
</event>
<event>
 7    1  0.4822463E-005  0.6139667E+03  0.7818608E-02  0.1185357E+00
          2   -1    0    0  502    0  0.00000000000E+00  0.00000000000E+00  0.11499423970E+04  0.11499423970E+04  0.00000000000E+00 0. -1.
          1   -1    0    0  501    0 -0.00000000000E+00 -0.00000000000E+00 -0.14084706316E+04  0.14084706316E+04  0.00000000000E+00 0. -1.
         25    2    1    2    0    0 -0.28738671839E+03 -0.55882321235E+03  0.76356963709E+02  0.64523635275E+03  0.12500022578E+03 0.  0.
          2    1    1    2  501    0  0.31349140569E+03  0.52431276482E+03 -0.10403184564E+04  0.12064175179E+04  0.00000000000E+00 0. -1.
          1    1    1    2  502    0 -0.26104687296E+02  0.34510447522E+02  0.70543325812E+03  0.70675915795E+03  0.00000000000E+00 0. -1.
         22    1    3    3    0    0 -0.11479946274E+03 -0.11954397993E+03 -0.73561950407E+01  0.16590296377E+03  0.00000000000E+00 0.  1.
         22    1    3    3    0    0 -0.17258725565E+03 -0.43927923242E+03  0.83713158750E+02  0.47933338898E+03  0.00000000000E+00 0.  1.
</event>
<event>
 7    1  0.4822463E-005  0.6071351E+03  0.7818608E-02  0.1175049E+00
          2   -1    0    0  502    0  0.00000000000E+00  0.00000000000E+00  0.12650922684E+04  0.12650922684E+04  0.00000000000E+00 0. -1.
          1   -1    0    0  501    0 -0.00000000000E+00 -0.00000000000E+00 -0.10390324582E+04  0.10390324582E+04  0.00000000000E+00 0. -1.
         25    2    1    2    0    0 -0.49297294334E+03 -0.38749174171E+03  0.11169099763E+02  0.63946971189E+03  0.12499836350E+03 0.  0.
          2    1    1    2  501    0 -0.40670830451E+01  0.48962892410E+02 -0.62761678999E+03  0.62953692590E+03  0.00000000000E+00 0. -1.
          1    1    1    2  502    0  0.49704002639E+03  0.33852884930E+03  0.84250750040E+03  0.10351180889E+04  0.00000000000E+00 0. -1.
         22    1    3    3    0    0 -0.12579322004E+03 -0.85702037362E+02  0.55738396999E+02  0.16209732359E+03  0.00000000000E+00 0.  1.
         22    1    3    3    0    0 -0.36717972331E+03 -0.30178970434E+03 -0.44569297236E+02  0.47737238830E+03  0.00000000000E+00 0.  1.
</event>
<event>
 7    1  0.4822463E-005  0.4087348E+03  0.7818608E-02  0.1092910E+00
          2   -1    0    0  502    0  0.00000000000E+00  0.00000000000E+00  0.37357791853E+04  0.37357791853E+04  0.00000000000E+00 0. -1.
          1   -1    0    0  501    0 -0.00000000000E+00 -0.00000000000E+00 -0.49299907720E+03  0.49299907720E+03  0.00000000000E+00 0. -1.
         25    2    1    2    0    0 -0.43269678756E+03  0.28291776533E+03  0.25689721772E+04  0.26234543620E+04  0.12500308095E+03 0.  0.
          2    1    1    2  501    0  0.15986633842E+03 -0.11838863448E+03 -0.42071404445E+03  0.46537449664E+03  0.00000000000E+00 0. -1.
          1    1    1    2  502    0  0.27283044914E+03 -0.16452913085E+03  0.10945219754E+04  0.11399494039E+04  0.00000000000E+00 0. -1.
         22    1    3    3    0    0 -0.64663237139E+02  0.10171412449E+03  0.51479610635E+03  0.52871743727E+03  0.00000000000E+00 0.  1.
         22    1    3    3    0    0 -0.36803355042E+03  0.18120364084E+03  0.20541760708E+04  0.20947369247E+04  0.00000000000E+00 0.  1.
</event>
<event>
 7    1  0.4822463E-005  0.3039078E+03  0.7818608E-02  0.1266287E+00
          2   -1    0    0  502    0  0.00000000000E+00  0.00000000000E+00  0.12873067338E+04  0.12873067338E+04  0.00000000000E+00 0. -1.
          1   -1    0    0  501    0 -0.00000000000E+00 -0.00000000000E+00 -0.17650442445E+04  0.17650442445E+04  0.00000000000E+00 0. -1.
         25    2    1    2    0    0  0.30701453082E+03 -0.10603774403E+02  0.11872279534E+04  0.12326823272E+04  0.12500057648E+03 0.  0.
          2    1    1    2  501    0 -0.37558773675E+02 -0.26367575576E+01 -0.15061339577E+04  0.15066044977E+04  0.00000000000E+00 0. -1.
          1    1    1    2  502    0 -0.26945575715E+03  0.13240531961E+02 -0.15883150638E+03  0.31306415344E+03  0.00000000000E+00 0. -1.
         22    1    3    3    0    0  0.85148486980E+02  0.47521452626E+02  0.45681927128E+03  0.46711069342E+03  0.00000000000E+00 0. -1.
         22    1    3    3    0    0  0.22186604384E+03 -0.58125227029E+02  0.73040868215E+03  0.76557163374E+03  0.00000000000E+00 0. -1.
</event>
<event>
 7    1  0.4822463E-005  0.2333703E+03  0.7818608E-02  0.1186371E+00
          2   -1    0    0  502    0  0.00000000000E+00  0.00000000000E+00  0.94816636848E+03  0.94816636848E+03  0.00000000000E+00 0. -1.
          1   -1    0    0  501    0 -0.00000000000E+00 -0.00000000000E+00 -0.15478675704E+03  0.15478675704E+03  0.00000000000E+00 0. -1.
         25    2    1    2    0    0  0.19977077185E+03  0.69260225318E+02  0.48242104514E+03  0.54135012665E+03  0.12499821890E+03 0.  0.
          2    1    1    2  501    0  0.81241707590E+02 -0.77912676079E+02 -0.33057139929E+02  0.11731740982E+03  0.00000000000E+00 0. -1.
          1    1    1    2  502    0 -0.28101247944E+03  0.86524507607E+01  0.34401570623E+03  0.44428558905E+03  0.00000000000E+00 0. -1.
         22    1    3    3    0    0  0.10711881637E+03  0.99545853264E+02  0.32176507685E+03  0.35343540060E+03  0.00000000000E+00 0. -1.
         22    1    3    3    0    0  0.92651955482E+02 -0.30285627946E+02  0.16065596830E+03  0.18791472604E+03  0.00000000000E+00 0. -1.
</event>
<event>
 7    1  0.4822463E-005  0.7711606E+03  0.7818608E-02  0.1135029E+00
          2   -1    0    0  502    0  0.00000000000E+00  0.00000000000E+00  0.22586771921E+03  0.22586771921E+03  0.00000000000E+00 0. -1.
          1   -1    0    0  501    0 -0.00000000000E+00 -0.00000000000E+00 -0.31712859371E+04  0.31712859371E+04  0.00000000000E+00 0. -1.
         25    2    1    2    0    0  0.39141961911E+03  0.66525608641E+03 -0.18562420894E+04  0.20142069347E+04  0.12497960896E+03 0.  0.
          2    1    1    2  501    0 -0.44325968976E+03 -0.63144284014E+03 -0.90803145423E+03  0.11915201781E+04  0.00000000000E+00 0. -1.
          1    1    1    2  502    0  0.51840070647E+02 -0.33813246271E+02 -0.18114467422E+03  0.19142654348E+03  0.00000000000E+00 0. -1.
         22    1    3    3    0    0  0.34060183716E+03  0.51003195274E+03 -0.15541967596E+04  0.16708290672E+04  0.00000000000E+00 0.  1.
         22    1    3    3    0    0  0.50817781956E+02  0.15522413367E+03 -0.30204532981E+03  0.34337786751E+03  0.00000000000E+00 0.  1.
</event>
<event>
 7    1  0.4822463E-005  0.5227426E+03  0.7818608E-02  0.1107612E+00
          2   -1    0    0  502    0  0.00000000000E+00  0.00000000000E+00  0.13906077143E+04  0.13906077143E+04  0.00000000000E+00 0. -1.
          1   -1    0    0  501    0 -0.00000000000E+00 -0.00000000000E+00 -0.83631793626E+03  0.83631793626E+03  0.00000000000E+00 0. -1.
         25    2    1    2    0    0 -0.54611483347E+03 -0.12152775180E+03  0.88806857759E+03  0.10570288050E+04  0.12503475623E+03 0.  0.
          2    1    1    2  501    0  0.77042983238E+02  0.10289915593E+03 -0.61122589947E+03  0.62459663603E+03  0.00000000000E+00 0. -1.
          1    1    1    2  502    0  0.46907185023E+03  0.18628595876E+02  0.27744709991E+03  0.54530020953E+03  0.00000000000E+00 0. -1.
         22    1    3    3    0    0 -0.46064297354E+03 -0.14641264493E+03  0.72746557251E+03  0.87340412803E+03  0.00000000000E+00 0.  1.
         22    1    3    3    0    0 -0.85471859928E+02  0.24884893132E+02  0.16060300508E+03  0.18362467695E+03  0.00000000000E+00 0.  1.
</event>
<event>
 7    1  0.4822463E-005  0.6550564E+02  0.7818608E-02  0.1485563E+00
          2   -1    0    0  502    0  0.00000000000E+00  0.00000000000E+00  0.14163015489E+04  0.14163015489E+04  0.00000000000E+00 0. -1.
          1   -1    0    0  501    0 -0.00000000000E+00 -0.00000000000E+00 -0.88540544004E+03  0.88540544004E+03  0.00000000000E+00 0. -1.
         25    2    1    2    0    0  0.27130622669E+02  0.76411668238E+02  0.37011923118E+03  0.39899109096E+03  0.12502332440E+03 0.  0.
          2    1    1    2  501    0 -0.26034282904E+02 -0.11736438137E+02 -0.86972108452E+03  0.87018980270E+03  0.00000000000E+00 0. -1.
          1    1    1    2  502    0 -0.10963397643E+01 -0.64675230101E+02  0.10304979622E+04  0.10325260953E+04  0.00000000000E+00 0. -1.
         22    1    3    3    0    0 -0.18723818113E+02  0.73784381734E+02  0.10369336082E+03  0.12863525734E+03  0.00000000000E+00 0.  1.
         22    1    3    3    0    0  0.45854440782E+02  0.26272865042E+01  0.26642587036E+03  0.27035583362E+03  0.00000000000E+00 0.  1.
</event>
<event>
 7    1  0.4822463E-005  0.1798514E+03  0.7818608E-02  0.1222907E+00
          2   -1    0    0  502    0  0.00000000000E+00  0.00000000000E+00  0.15094484559E+04  0.15094484559E+04  0.00000000000E+00 0. -1.
          1   -1    0    0  501    0 -0.00000000000E+00 -0.00000000000E+00 -0.32842350825E+04  0.32842350825E+04  0.00000000000E+00 0. -1.
         25    2    1    2    0    0 -0.21313505766E+02 -0.24070639757E+03 -0.77671605306E+02  0.28293382753E+03  0.12499934853E+03 0.  0.
          2    1    1    2  501    0 -0.56948046167E+02  0.80395598995E+02 -0.30974906013E+04  0.30990570433E+04  0.00000000000E+00 0. -1.
          1    1    1    2  502    0  0.78261551934E+02  0.16031079857E+03  0.14003755800E+04  0.14116926676E+04  0.00000000000E+00 0. -1.
         22    1    3    3    0    0 -0.64941223276E+02 -0.17138803391E+03 -0.23604636933E+02  0.18479285574E+03  0.00000000000E+00 0.  1.
         22    1    3    3    0    0  0.43627717509E+02 -0.69318363656E+02 -0.54066968373E+02  0.98140971791E+02  0.00000000000E+00 0.  1.
</event>
<event>
 7    1  0.4822463E-005  0.7724645E+03  0.7818608E-02  0.1229035E+00
          2   -1    0    0  502    0  0.00000000000E+00  0.00000000000E+00  0.16667084515E+04  0.16667084515E+04  0.00000000000E+00 0. -1.
          1   -1    0    0  501    0 -0.00000000000E+00 -0.00000000000E+00 -0.93544235761E+03  0.93544235761E+03  0.00000000000E+00 0. -1.
         25    2    1    2    0    0 -0.70486297941E+03 -0.28910361882E+03 -0.10822272349E+03  0.77957978933E+03  0.12497906984E+03 0.  0.
          2    1    1    2  501    0  0.72123252078E+03  0.30307821805E+03 -0.18007298625E+03  0.80278205988E+03  0.00000000000E+00 0. -1.
          1    1    1    2  502    0 -0.16369541371E+02 -0.13974599230E+02  0.10195618036E+04  0.10197889599E+04  0.00000000000E+00 0. -1.
         22    1    3    3    0    0 -0.25607721175E+03 -0.42280496843E+02 -0.46768733235E+02  0.26372427496E+03  0.00000000000E+00 0. -1.
         22    1    3    3    0    0 -0.44878576765E+03 -0.24682312198E+03 -0.61453990252E+02  0.51585551437E+03  0.00000000000E+00 0. -1.
</event>
<event>
 7    1  0.4822463E-005  0.2773755E+03  0.7818608E-02  0.1210607E+00
          2   -1    0    0  502    0  0.00000000000E+00  0.00000000000E+00  0.39340616114E+03  0.39340616114E+03  0.00000000000E+00 0. -1.
          1   -1    0    0  501    0 -0.00000000000E+00 -0.00000000000E+00 -0.42525869554E+03  0.42525869554E+03  0.00000000000E+00 0. -1.
         25    2    1    2    0    0 -0.25787099033E+03  0.70137062772E+02 -0.20914662313E+03  0.36164262694E+03  0.12500569755E+03 0.  0.
          2    1    1    2  501    0 -0.23574799279E+02 -0.68812638190E+02 -0.55724368547E+02  0.91630538500E+02  0.00000000000E+00 0. -1.
          1    1    1    2  502    0  0.28144578961E+03 -0.13244245825E+01  0.23301845728E+03  0.36539169124E+03  0.00000000000E+00 0. -1.
         22    1    3    3    0    0 -0.45044907828E+02 -0.32223868633E+02 -0.19357618338E+02  0.58669743639E+02  0.00000000000E+00 0. -1.
         22    1    3    3    0    0 -0.21282608251E+03  0.10236093141E+03 -0.18978900479E+03  0.30297288330E+03  0.00000000000E+00 0. -1.
</event>
<event>
 7    1  0.4822463E-005  0.1715509E+03  0.7818608E-02  0.1238682E+00
          2   -1    0    0  502    0  0.00000000000E+00  0.00000000000E+00  0.28337385757E+03  0.28337385757E+03  0.00000000000E+00 0. -1.
          1   -1    0    0  501    0 -0.00000000000E+00 -0.00000000000E+00 -0.34779508655E+03  0.34779508655E+03  0.00000000000E+00 0. -1.
         25    2    1    2    0    0  0.87002291408E+02 -0.19827088720E+03  0.31267181904E+02  0.25196006930E+03  0.12500198572E+03 0.  0.
          2    1    1    2  501    0 -0.76840910170E+02  0.42443092728E+02 -0.18107405978E+03  0.20123060582E+03  0.00000000000E+00 0. -1.
          1    1    1    2  502    0 -0.10161381238E+02  0.15582779448E+03  0.85385648892E+02  0.17797826900E+03  0.00000000000E+00 0. -1.
         22    1    3    3    0    0  0.92612882301E+02 -0.17779587476E+03  0.66168978455E+02  0.21110862787E+03  0.00000000000E+00 0.  1.
         22    1    3    3    0    0 -0.56105908936E+01 -0.20475012445E+02 -0.34901796551E+02  0.40851441435E+02  0.00000000000E+00 0.  1.
</event>
<event>
 7    1  0.4822463E-005  0.1923828E+03  0.7818608E-02  0.1258515E+00
          2   -1    0    0  502    0  0.00000000000E+00  0.00000000000E+00  0.13130051159E+04  0.13130051159E+04  0.00000000000E+00 0. -1.
          1   -1    0    0  501    0 -0.00000000000E+00 -0.00000000000E+00 -0.75321343603E+03  0.75321343603E+03  0.00000000000E+00 0. -1.
         25    2    1    2    0    0 -0.22439752099E+03  0.11287170989E+03  0.11473059345E+03  0.30312132551E+03  0.12500063434E+03 0.  0.
          2    1    1    2  501    0  0.16258363746E+03 -0.95607283433E+02 -0.64455931662E+03  0.67158834449E+03  0.00000000000E+00 0. -1.
          1    1    1    2  502    0  0.61813883524E+02 -0.17264426454E+02  0.10896204031E+04  0.10915088819E+04  0.00000000000E+00 0. -1.
         22    1    3    3    0    0 -0.22432401036E+03  0.94124166193E+02  0.13273642487E+03  0.27712736922E+03  0.00000000000E+00 0. -1.
         22    1    3    3    0    0 -0.73510622739E-01  0.18747543695E+02 -0.18005831412E+02  0.25993956283E+02  0.00000000000E+00 0. -1.
</event>
<event>
 7    1  0.4822463E-005  0.5167962E+03  0.7818608E-02  0.1121390E+00
          2   -1    0    0  502    0  0.00000000000E+00  0.00000000000E+00  0.32385361694E+04  0.32385361694E+04  0.00000000000E+00 0. -1.
          1   -1    0    0  501    0 -0.00000000000E+00 -0.00000000000E+00 -0.43716846573E+03  0.43716846573E+03  0.00000000000E+00 0. -1.
         25    2    1    2    0    0  0.25622234405E+03  0.34930392430E+03  0.12618158814E+03  0.46819880905E+03  0.12500084194E+03 0.  0.
          2    1    1    2  501    0  0.10168340350E+03  0.39960973378E+02 -0.22997721738E+03  0.25460933694E+03  0.00000000000E+00 0. -1.
          1    1    1    2  502    0 -0.35790574755E+03 -0.38926489768E+03  0.29051633329E+04  0.29528964892E+04  0.00000000000E+00 0. -1.
         22    1    3    3    0    0  0.10315394259E+03  0.23670690318E+03  0.47538452205E+02  0.26254675455E+03  0.00000000000E+00 0.  1.
         22    1    3    3    0    0  0.15306840146E+03  0.11259702112E+03  0.78643135934E+02  0.20565205450E+03  0.00000000000E+00 0.  1.
</event>
<event>
 7    1  0.4822463E-005  0.2988283E+03  0.7818608E-02  0.1174998E+00
          2   -1    0    0  502    0  0.00000000000E+00  0.00000000000E+00  0.49230273788E+03  0.49230273788E+03  0.00000000000E+00 0. -1.
          1   -1    0    0  501    0 -0.00000000000E+00 -0.00000000000E+00 -0.42922641160E+03  0.42922641160E+03  0.00000000000E+00 0. -1.
         25    2    1    2    0    0  0.28500483063E+03  0.34806115112E+02  0.13883027099E+03  0.34254051727E+03  0.12498376974E+03 0.  0.
          2    1    1    2  501    0  0.27629805094E+02 -0.95980588965E+02 -0.21058210657E+03  0.23306759362E+03  0.00000000000E+00 0. -1.
          1    1    1    2  502    0 -0.31263463572E+03  0.61174473854E+02  0.13482816187E+03  0.34592103859E+03  0.00000000000E+00 0. -1.
         22    1    3    3    0    0  0.85279702657E+02  0.67252311471E+02  0.68097256141E+02  0.12819023901E+03  0.00000000000E+00 0. -1.
         22    1    3    3    0    0  0.19972512797E+03 -0.32446196359E+02  0.70733014848E+02  0.21435027826E+03  0.00000000000E+00 0. -1.
</event>
<event>
 7    1  0.4822463E-005  0.4433226E+02  0.7818608E-02  0.1568732E+00
          2   -1    0    0  502    0  0.00000000000E+00  0.00000000000E+00  0.42806673447E+03  0.42806673447E+03  0.00000000000E+00 0. -1.
          1   -1    0    0  501    0 -0.00000000000E+00 -0.00000000000E+00 -0.28805237970E+03  0.28805237970E+03  0.00000000000E+00 0. -1.
         25    2    1    2    0    0  0.84514006649E+01  0.18417816032E+02 -0.12989483172E+03  0.18140556150E+03  0.12499867326E+03 0.  0.
          2    1    1    2  501    0  0.78442390771E+01  0.23016420828E+02 -0.13003989985E+03  0.13229385196E+03  0.00000000000E+00 0. -1.
          1    1    1    2  502    0 -0.16295639742E+02 -0.41434236860E+02  0.39994908633E+03  0.40241970071E+03  0.00000000000E+00 0. -1.
         22    1    3    3    0    0  0.20161967458E+02  0.65065670654E+02 -0.10994549206E+03  0.12933699259E+03  0.00000000000E+00 0. -1.
         22    1    3    3    0    0 -0.11710566793E+02 -0.46647854622E+02 -0.19949339662E+02  0.52068568911E+02  0.00000000000E+00 0. -1.
</event>
<event>
 7    1  0.4822463E-005  0.4603713E+03  0.7818608E-02  0.1071703E+00
          2   -1    0    0  502    0  0.00000000000E+00  0.00000000000E+00  0.17454435731E+04  0.17454435731E+04  0.00000000000E+00 0. -1.
          1   -1    0    0  501    0 -0.00000000000E+00 -0.00000000000E+00 -0.11283387061E+04  0.11283387061E+04  0.00000000000E+00 0. -1.
         25    2    1    2    0    0 -0.37566671862E+03 -0.53434422441E+03 -0.15150385534E+03  0.68207516857E+03  0.12499553494E+03 0.  0.
          2    1    1    2  501    0  0.50990128909E+02  0.22911592762E+03 -0.65721326039E+03  0.69787059773E+03  0.00000000000E+00 0. -1.
          1    1    1    2  502    0  0.32467658971E+03  0.30522829679E+03  0.14258219827E+04  0.14938365129E+04  0.00000000000E+00 0. -1.
         22    1    3    3    0    0 -0.13963401386E+03 -0.25170185962E+03 -0.11332663841E+02  0.28806234261E+03  0.00000000000E+00 0.  1.
         22    1    3    3    0    0 -0.23603270476E+03 -0.28264236479E+03 -0.14017119149E+03  0.39401282596E+03  0.00000000000E+00 0.  1.
</event>
<event>
 7    1  0.4822463E-005  0.7135686E+02  0.7818608E-02  0.1433421E+00
          2   -1    0    0  502    0  0.00000000000E+00  0.00000000000E+00  0.96283046301E+03  0.96283046301E+03  0.00000000000E+00 0. -1.
          1   -1    0    0  501    0 -0.00000000000E+00 -0.00000000000E+00 -0.31314708236E+02  0.31314708236E+02  0.00000000000E+00 0. -1.
         25    2    1    2    0    0 -0.50040392089E+02  0.23174103733E+02  0.24324401797E+03  0.27899079408E+03  0.12500852361E+03 0.  0.
          2    1    1    2  501    0 -0.23638554831E+02 -0.30137822615E+02  0.20787115046E+02  0.43579510994E+02  0.00000000000E+00 0. -1.
          1    1    1    2  502    0  0.73678946920E+02  0.69637188817E+01  0.66748462175E+03  0.67157486617E+03  0.00000000000E+00 0. -1.
         22    1    3    3    0    0 -0.14107007689E+02 -0.33200865866E+02  0.19036473750E+03  0.19375251855E+03  0.00000000000E+00 0. -1.
         22    1    3    3    0    0 -0.35933384400E+02  0.56374969599E+02  0.52879280472E+02  0.85238275528E+02  0.00000000000E+00 0. -1.
</event>
<event>
 7    1  0.4822463E-005  0.6431977E+03  0.7818608E-02  0.1152766E+00
          2   -1    0    0  502    0  0.00000000000E+00  0.00000000000E+00  0.10255965745E+04  0.10255965745E+04  0.00000000000E+00 0. -1.
          1   -1    0    0  501    0 -0.00000000000E+00 -0.00000000000E+00 -0.18738719114E+04  0.18738719114E+04  0.00000000000E+00 0. -1.
         25    2    1    2    0    0 -0.64761065707E+03  0.14611587919E+03  0.37313050649E+03  0.77175260558E+03  0.12500518409E+03 0.  0.
          2    1    1    2  501    0  0.51533161105E+02  0.30737039863E+02 -0.14603800832E+04  0.14616122672E+04  0.00000000000E+00 0. -1.
          1    1    1    2  502    0  0.59607749596E+03 -0.17685291906E+03  0.23897423982E+03  0.66610361316E+03  0.00000000000E+00 0. -1.
         22    1    3    3    0    0 -0.42305062481E+03  0.15021174677E+03  0.27653737556E+03  0.52726494299E+03  0.00000000000E+00 0. -1.
         22    1    3    3    0    0 -0.22456003226E+03 -0.40958675784E+01  0.96593130924E+02  0.24448766259E+03  0.00000000000E+00 0. -1.
</event>
<event>
 7    1  0.4822463E-005  0.4894080E+03  0.7818608E-02  0.1099795E+00
          2   -1    0    0  502    0  0.00000000000E+00  0.00000000000E+00  0.58987705998E+03  0.58987705998E+03  0.00000000000E+00 0. -1.
          1   -1    0    0  501    0 -0.00000000000E+00 -0.00000000000E+00 -0.44322339484E+04  0.44322339484E+04  0.00000000000E+00 0. -1.
         25    2    1    2    0    0 -0.43264090468E+03 -0.46629550090E+03 -0.33783037709E+04  0.34399375171E+04  0.12499642644E+03 0.  0.
          2    1    1    2  501    0  0.11160125845E+03  0.10297365736E+03 -0.91051181982E+03  0.92308731388E+03  0.00000000000E+00 0. -1.
          1    1    1    2  502    0  0.32103964623E+03  0.36332184354E+03  0.44645870227E+03  0.65908617742E+03  0.00000000000E+00 0. -1.
         22    1    3    3    0    0 -0.16994083120E+03 -0.10026009844E+03 -0.97444897843E+03  0.99422471555E+03  0.00000000000E+00 0.  1.
         22    1    3    3    0    0 -0.26270007348E+03 -0.36603540246E+03 -0.24038547925E+04  0.24457128016E+04  0.00000000000E+00 0.  1.
</event>
<event>
 7    1  0.4822463E-005  0.4056192E+02  0.7818608E-02  0.1539808E+00
          2   -1    0    0  502    0  0.00000000000E+00  0.00000000000E+00  0.34523164460E+03  0.34523164460E+03  0.00000000000E+00 0. -1.
          1   -1    0    0  501    0 -0.00000000000E+00 -0.00000000000E+00 -0.13548326289E+04  0.13548326289E+04  0.00000000000E+00 0. -1.
         25    2    1    2    0    0  0.14252000075E+02 -0.12156869063E+02  0.73165590845E+02  0.14604484204E+03  0.12499993293E+03 0.  0.
          2    1    1    2  501    0 -0.11731484337E+02 -0.29739026018E+02 -0.13163283030E+04  0.13167164610E+04  0.00000000000E+00 0. -1.
          1    1    1    2  502    0 -0.25205157372E+01  0.41895895081E+02  0.23356172790E+03  0.23730297041E+03  0.00000000000E+00 0. -1.
         22    1    3    3    0    0 -0.15722467450E+02  0.81602095956E+01 -0.31033376710E+02  0.35733114521E+02  0.00000000000E+00 0.  1.
         22    1    3    3    0    0  0.29974467525E+02 -0.20317078659E+02  0.10419896756E+03  0.11031172752E+03  0.00000000000E+00 0.  1.
</event>
<event>
 7    1  0.4822463E-005  0.1386978E+04  0.7818608E-02  0.1089040E+00
          2   -1    0    0  502    0  0.00000000000E+00  0.00000000000E+00  0.25555485598E+04  0.25555485598E+04  0.00000000000E+00 0. -1.
          1   -1    0    0  501    0 -0.00000000000E+00 -0.00000000000E+00 -0.23808479097E+04  0.23808479097E+04  0.00000000000E+00 0. -1.
         25    2    1    2    0    0  0.72516170976E+03  0.11939169424E+04  0.52459956752E+03  0.14973733333E+04  0.12500008935E+03 0.  0.
          2    1    1    2  501    0 -0.59507904382E+02  0.16277770807E+02 -0.15849695160E+04  0.15861697649E+04  0.00000000000E+00 0. -1.
          1    1    1    2  502    0 -0.66565380538E+03 -0.12101947132E+04  0.12350705986E+04  0.18528533714E+04  0.00000000000E+00 0. -1.
         22    1    3    3    0    0  0.34363799867E+03  0.68446382859E+03  0.27718585613E+03  0.81449972720E+03  0.00000000000E+00 0. -1.
         22    1    3    3    0    0  0.38152371110E+03  0.50945311379E+03  0.24741371139E+03  0.68287360607E+03  0.00000000000E+00 0. -1.
</event>
<event>
 7    1  0.4822463E-005  0.3231139E+03  0.7818608E-02  0.1112140E+00
          2   -1    0    0  502    0  0.00000000000E+00  0.00000000000E+00  0.11105918461E+04  0.11105918461E+04  0.00000000000E+00 0. -1.
          1   -1    0    0  501    0 -0.00000000000E+00 -0.00000000000E+00 -0.14725799164E+04  0.14725799164E+04  0.00000000000E+00 0. -1.
         25    2    1    2    0    0  0.49777429426E+03  0.12721705264E+03  0.90617055776E+03  0.10491586944E+04  0.12500183933E+03 0.  0.
          2    1    1    2  501    0 -0.31402073947E+03 -0.58144222835E+02 -0.12968742820E+04  0.13356169656E+04  0.00000000000E+00 0. -1.
          1    1    1    2  502    0 -0.18375355479E+03 -0.69072829807E+02  0.28715653853E+02  0.19839610251E+03  0.00000000000E+00 0. -1.
         22    1    3    3    0    0  0.36545834878E+03  0.14223559411E+03  0.72561354411E+03  0.82480651326E+03  0.00000000000E+00 0. -1.
         22    1    3    3    0    0  0.13231594548E+03 -0.15018541463E+02  0.18055701365E+03  0.22435218117E+03  0.00000000000E+00 0. -1.
</event>
<event>
 7    1  0.4822463E-005  0.1900499E+03  0.7818608E-02  0.1167868E+00
          2   -1    0    0  502    0  0.00000000000E+00  0.00000000000E+00  0.16154387637E+04  0.16154387637E+04  0.00000000000E+00 0. -1.
          1   -1    0    0  501    0 -0.00000000000E+00 -0.00000000000E+00 -0.66593536663E+03  0.66593536663E+03  0.00000000000E+00 0. -1.
         25    2    1    2    0    0  0.12808620813E+03 -0.68961505819E+02 -0.52471240973E+02  0.19884757482E+03  0.12500144353E+03 0.  0.
          2    1    1    2  501    0 -0.38955751062E+02  0.21413964591E+03 -0.51338692879E+03  0.55761947343E+03  0.00000000000E+00 0. -1.
          1    1    1    2  502    0 -0.89130457065E+02 -0.14517814009E+03  0.15153615669E+04  0.15249070821E+04  0.00000000000E+00 0. -1.
         22    1    3    3    0    0  0.94807168619E+02 -0.67231536365E+02 -0.91214166677E+02  0.14774472209E+03  0.00000000000E+00 0. -1.
         22    1    3    3    0    0  0.33279039509E+02 -0.17299694542E+01  0.38742925704E+02  0.51102852729E+02  0.00000000000E+00 0. -1.
</event>
<event>
 7    1  0.4822463E-005  0.2363977E+03  0.7818608E-02  0.1198888E+00
          2   -1    0    0  502    0  0.00000000000E+00  0.00000000000E+00  0.74915828794E+03  0.74915828794E+03  0.00000000000E+00 0. -1.
          1   -1    0    0  501    0 -0.00000000000E+00 -0.00000000000E+00 -0.85365039496E+03  0.85365039496E+03  0.00000000000E+00 0. -1.
         25    2    1    2    0    0 -0.81301136123E+02 -0.13340245801E+03  0.29129043525E+03  0.35338147234E+03  0.12498902667E+03 0.  0.
          2    1    1    2  501    0  0.17097840374E+03  0.16993319627E+03 -0.79908950797E+03  0.83465858139E+03  0.00000000000E+00 0. -1.
          1    1    1    2  502    0 -0.89677267615E+02 -0.36530738259E+02  0.40330696569E+03  0.41476862917E+03  0.00000000000E+00 0. -1.
         22    1    3    3    0    0 -0.97150384477E+02 -0.14891670125E+03  0.26217755535E+03  0.31678297247E+03  0.00000000000E+00 0. -1.
         22    1    3    3    0    0  0.15849248354E+02  0.15514243245E+02  0.29112879903E+02  0.36598499875E+02  0.00000000000E+00 0. -1.
</event>
<event>
 7    1  0.4822463E-005  0.2665452E+03  0.7818608E-02  0.1248988E+00
          2   -1    0    0  502    0  0.00000000000E+00  0.00000000000E+00  0.20769398094E+04  0.20769398094E+04  0.00000000000E+00 0. -1.
          1   -1    0    0  501    0 -0.00000000000E+00 -0.00000000000E+00 -0.15043029711E+03  0.15043029711E+03  0.00000000000E+00 0. -1.
         25    2    1    2    0    0  0.13755524223E+03  0.23022409171E+03  0.53404648506E+02  0.30066864583E+03  0.12500000415E+03 0.  0.
          2    1    1    2  501    0 -0.89990624153E+02 -0.24839554623E+03  0.63787310530E+03  0.69042071108E+03  0.00000000000E+00 0. -1.
          1    1    1    2  502    0 -0.47564618079E+02  0.18171454526E+02  0.12352317585E+04  0.12362807496E+04  0.00000000000E+00 0. -1.
         22    1    3    3    0    0  0.70797880203E+01  0.15713244656E+02  0.46398244611E+02  0.49495722633E+02  0.00000000000E+00 0.  1.
         22    1    3    3    0    0  0.13047545421E+03  0.21451084705E+03  0.70064038952E+01  0.25117292320E+03  0.00000000000E+00 0.  1.
</event>
<event>
 7    1  0.4822463E-005  0.1287737E+03  0.7818608E-02  0.1314162E+00
          2   -1    0    0  502    0  0.00000000000E+00  0.00000000000E+00  0.18466234419E+04  0.18466234419E+04  0.00000000000E+00 0. -1.
          1   -1    0    0  501    0 -0.00000000000E+00 -0.00000000000E+00 -0.36693278618E+02  0.36693278618E+02  0.00000000000E+00 0. -1.
         25    2    1    2    0    0 -0.90771036625E+02  0.40861688517E+02  0.23617877880E+03  0.28515626478E+03  0.12499848444E+03 0.  0.
          2    1    1    2  501    0 -0.42369240033E+02 -0.37757703028E+02  0.77836906205E+02  0.96329541712E+02  0.00000000000E+00 0. -1.
          1    1    1    2  502    0  0.13314027666E+03 -0.31039854893E+01  0.14959144783E+04  0.15018309140E+04  0.00000000000E+00 0. -1.
         22    1    3    3    0    0 -0.75133702436E+02  0.36558696208E+02  0.25015866624E+03  0.26374413700E+03  0.00000000000E+00 0.  1.
         22    1    3    3    0    0 -0.15637334188E+02  0.43029923094E+01 -0.13979887437E+02  0.21412127781E+02  0.00000000000E+00 0.  1.
</event>
<event>
 7    1  0.4822463E-005  0.1811500E+03  0.7818608E-02  0.1206323E+00
          2   -1    0    0  502    0  0.00000000000E+00  0.00000000000E+00  0.34935002823E+03  0.34935002823E+03  0.00000000000E+00 0. -1.
          1   -1    0    0  501    0 -0.00000000000E+00 -0.00000000000E+00 -0.72341958880E+03  0.72341958880E+03  0.00000000000E+00 0. -1.
         25    2    1    2    0    0  0.36259098643E+02 -0.15897006381E+03  0.11916653962E+03  0.23750964551E+03  0.12499585643E+03 0.  0.
          2    1    1    2  501    0 -0.10600960425E+03 -0.48564851594E+02 -0.58599114657E+03  0.59747987821E+03  0.00000000000E+00 0. -1.
          1    1    1    2  502    0  0.69750505611E+02  0.20753491540E+03  0.92755046378E+02  0.23778009330E+03  0.00000000000E+00 0. -1.
         22    1    3    3    0    0 -0.41015156235E+02 -0.95285115590E+02  0.75308790153E+02  0.12819091297E+03  0.00000000000E+00 0.  1.
         22    1    3    3    0    0  0.77274254878E+02 -0.63684948215E+02  0.43857749468E+02  0.10931873254E+03  0.00000000000E+00 0.  1.
</event>
<event>
 7    1  0.4822463E-005  0.1308959E+03  0.7818608E-02  0.1302570E+00
          2   -1    0    0  502    0  0.00000000000E+00  0.00000000000E+00  0.16843202176E+02  0.16843202176E+02  0.00000000000E+00 0. -1.
          1   -1    0    0  501    0 -0.00000000000E+00 -0.00000000000E+00 -0.23982618502E+04  0.23982618502E+04  0.00000000000E+00 0. -1.
         25    2    1    2    0    0 -0.93280905422E+02 -0.23720055406E+02 -0.93854018710E+03  0.95170716795E+03  0.12499952951E+03 0.  0.
          2    1    1    2  501    0  0.15520508136E+03  0.19907229307E+02 -0.12723178854E+04  0.12819039420E+04  0.00000000000E+00 0. -1.
          1    1    1    2  502    0 -0.61924175933E+02  0.38128260984E+01 -0.17056057555E+03  0.18149394243E+03  0.00000000000E+00 0. -1.
         22    1    3    3    0    0 -0.88407157143E+02 -0.68911471075E+02 -0.64462635987E+03  0.65429944224E+03  0.00000000000E+00 0. -1.
         22    1    3    3    0    0 -0.48737482799E+01  0.45191415669E+02 -0.29391382724E+03  0.29740772571E+03  0.00000000000E+00 0. -1.
</event>
<event>
 7    1  0.4822463E-005  0.2334729E+03  0.7818608E-02  0.1335130E+00
          2   -1    0    0  502    0  0.00000000000E+00  0.00000000000E+00  0.63994922409E+03  0.63994922409E+03  0.00000000000E+00 0. -1.
          1   -1    0    0  501    0 -0.00000000000E+00 -0.00000000000E+00 -0.61323717895E+03  0.61323717895E+03  0.00000000000E+00 0. -1.
         25    2    1    2    0    0 -0.54117496463E+02  0.23012603806E+03  0.89184064691E+02  0.28189597149E+03  0.12499937813E+03 0.  0.
          2    1    1    2  501    0  0.25967550051E+02  0.10668220523E+01 -0.48666935565E+03  0.48736281505E+03  0.00000000000E+00 0. -1.
          1    1    1    2  502    0  0.28149946412E+02 -0.23119286011E+03  0.42419733610E+03  0.48392761649E+03  0.00000000000E+00 0. -1.
         22    1    3    3    0    0 -0.27888604475E+02  0.10972535978E+03  0.10891898529E+03  0.15710115912E+03  0.00000000000E+00 0.  1.
         22    1    3    3    0    0 -0.26228891987E+02  0.12040067828E+03 -0.19734920601E+02  0.12479481238E+03  0.00000000000E+00 0.  1.
</event>
<event>
 7    1  0.4822463E-005  0.7829672E+03  0.7818608E-02  0.1196602E+00
          2   -1    0    0  502    0  0.00000000000E+00  0.00000000000E+00  0.22020246364E+04  0.22020246364E+04  0.00000000000E+00 0. -1.
          1   -1    0    0  501    0 -0.00000000000E+00 -0.00000000000E+00 -0.54036756737E+03  0.54036756737E+03  0.00000000000E+00 0. -1.
         25    2    1    2    0    0  0.33539584897E+03 -0.71817489064E+03  0.12077671924E+04  0.14500317247E+04  0.12499944995E+03 0.  0.
          2    1    1    2  501    0 -0.35463962505E+03  0.69519434187E+03 -0.55212578764E+02  0.78237642186E+03  0.00000000000E+00 0. -1.
          1    1    1    2  502    0  0.19243776076E+02  0.22980548772E+02  0.50910245543E+03  0.50998405726E+03  0.00000000000E+00 0. -1.
         22    1    3    3    0    0  0.81353721468E+02 -0.30838938617E+03  0.52235991126E+03  0.61203130507E+03  0.00000000000E+00 0.  1.
         22    1    3    3    0    0  0.25404212751E+03 -0.40978550447E+03  0.68540728115E+03  0.83800041962E+03  0.00000000000E+00 0.  1.
</event>
<event>
 7    1  0.4822463E-005  0.7342939E+03  0.7818608E-02  0.1173856E+00
          2   -1    0    0  502    0  0.00000000000E+00  0.00000000000E+00  0.84175982121E+03  0.84175982121E+03  0.00000000000E+00 0. -1.
          1   -1    0    0  501    0 -0.00000000000E+00 -0.00000000000E+00 -0.20037522884E+04  0.20037522884E+04  0.00000000000E+00 0. -1.
         25    2    1    2    0    0 -0.24349465914E+03 -0.70270531985E+03 -0.11615904744E+04  0.13849192997E+04  0.12499848396E+03 0.  0.
          2    1    1    2  501    0  0.26660424425E+03  0.66862478974E+03 -0.55222057566E+03  0.90724004359E+03  0.00000000000E+00 0. -1.
          1    1    1    2  502    0 -0.23109585115E+02  0.34080530109E+02  0.55181858291E+03  0.55335276624E+03  0.00000000000E+00 0. -1.
         22    1    3    3    0    0 -0.30739830647E+02 -0.73138681890E+02 -0.20797630275E+03  0.22259457874E+03  0.00000000000E+00 0. -1.
         22    1    3    3    0    0 -0.21275482849E+03 -0.62956663796E+03 -0.95361417166E+03  0.11623247210E+04  0.00000000000E+00 0. -1.
</event>
<event>
 7    1  0.4822463E-005  0.2644230E+03  0.7818608E-02  0.1245190E+00
          2   -1    0    0  502    0  0.00000000000E+00  0.00000000000E+00  0.39211233726E+03  0.39211233726E+03  0.00000000000E+00 0. -1.
          1   -1    0    0  501    0 -0.00000000000E+00 -0.00000000000E+00 -0.44350775511E+03  0.44350775511E+03  0.00000000000E+00 0. -1.
         25    2    1    2    0    0  0.16612093075E+03  0.21655265161E+03 -0.16504319475E+03  0.34257202028E+03  0.12500047358E+03 0.  0.
          2    1    1    2  501    0 -0.11490174024E+03 -0.23137447008E+03 -0.96857479252E+02  0.27589477451E+03  0.00000000000E+00 0. -1.
          1    1    1    2  502    0 -0.51219190502E+02  0.14821818471E+02  0.21050525616E+03  0.21715329758E+03  0.00000000000E+00 0. -1.
         22    1    3    3    0    0  0.10190026172E+03  0.20062739499E+03 -0.16021262743E+03  0.27623015937E+03  0.00000000000E+00 0.  1.
         22    1    3    3    0    0  0.64220669022E+02  0.15925256619E+02 -0.48305673220E+01  0.66341860907E+02  0.00000000000E+00 0.  1.
</event>
<event>
 7    1  0.4822463E-005  0.2708727E+03  0.7818608E-02  0.1158675E+00
          2   -1    0    0  502    0  0.00000000000E+00  0.00000000000E+00  0.31325177797E+03  0.31325177797E+03  0.00000000000E+00 0. -1.
          1   -1    0    0  501    0 -0.00000000000E+00 -0.00000000000E+00 -0.58032631580E+03  0.58032631580E+03  0.00000000000E+00 0. -1.
         25    2    1    2    0    0 -0.80059469481E+02  0.24119411679E+03  0.58188805375E+02  0.28912829003E+03  0.12500044160E+03 0.  0.
          2    1    1    2  501    0  0.11051009035E+03  0.73897883507E+02 -0.24361835082E+03  0.27753067958E+03  0.00000000000E+00 0. -1.
          1    1    1    2  502    0 -0.30450620865E+02 -0.31509200029E+03 -0.81644992385E+02  0.32691912416E+03  0.00000000000E+00 0. -1.
         22    1    3    3    0    0  0.22621503073E+02  0.96519197673E+02 -0.87275506549E+01  0.99518129309E+02  0.00000000000E+00 0.  1.
         22    1    3    3    0    0 -0.10268097255E+03  0.14467491911E+03  0.66916356030E+02  0.18961016072E+03  0.00000000000E+00 0.  1.
</event>
<event>
 7    1  0.4822463E-005  0.2864800E+03  0.7818608E-02  0.1176935E+00
          2   -1    0    0  502    0  0.00000000000E+00  0.00000000000E+00  0.86025024640E+03  0.86025024640E+03  0.00000000000E+00 0. -1.
          1   -1    0    0  501    0 -0.00000000000E+00 -0.00000000000E+00 -0.13241009336E+04  0.13241009336E+04  0.00000000000E+00 0. -1.
         25    2    1    2    0    0 -0.31246849175E+03  0.17214655265E+03  0.11540087111E+03  0.39523509112E+03  0.12498968866E+03 0.  0.
          2    1    1    2  501    0  0.10192512173E+03  0.16877646464E+00 -0.11512272731E+04  0.11557305020E+04  0.00000000000E+00 0. -1.
          1    1    1    2  502    0  0.21054337003E+03 -0.17231532911E+03  0.57197571481E+03  0.63338558686E+03  0.00000000000E+00 0. -1.
         22    1    3    3    0    0 -0.17301094977E+03  0.14274880053E+03  0.11641255026E+03  0.25270910282E+03  0.00000000000E+00 0.  1.
         22    1    3    3    0    0 -0.13945754198E+03  0.29397752121E+02 -0.10116791425E+01  0.14252598829E+03  0.00000000000E+00 0.  1.
</event>
<event>
 7    1  0.4822463E-005  0.7506502E+02  0.7818608E-02  0.1412507E+00
          2   -1    0    0  502    0  0.00000000000E+00  0.00000000000E+00  0.39172172585E+03  0.39172172585E+03  0.00000000000E+00 0. -1.
          1   -1    0    0  501    0 -0.00000000000E+00 -0.00000000000E+00 -0.11490597926E+04  0.11490597926E+04  0.00000000000E+00 0. -1.
         25    2    1    2    0    0  0.51328053684E+01  0.33470157081E+02  0.11315676658E+02  0.12999545879E+03  0.12499671060E+03 0.  0.
          2    1    1    2  501    0 -0.23129080810E+02 -0.72230644091E+02 -0.10869706245E+04  0.10896133988E+04  0.00000000000E+00 0. -1.
          1    1    1    2  502    0  0.17996275442E+02  0.38760487010E+02  0.31831688110E+03  0.32117266085E+03  0.00000000000E+00 0. -1.
         22    1    3    3    0    0 -0.17282650100E+02 -0.40408227728E+02 -0.17891663310E+02  0.47451306395E+02  0.00000000000E+00 0.  1.
         22    1    3    3    0    0  0.22415455468E+02  0.73878384809E+02  0.29207339969E+02  0.82544152391E+02  0.00000000000E+00 0.  1.
</event>
<event>
 7    1  0.4822463E-005  0.2401250E+03  0.7818608E-02  0.1171374E+00
          2   -1    0    0  502    0  0.00000000000E+00  0.00000000000E+00  0.10014241916E+04  0.10014241916E+04  0.00000000000E+00 0. -1.
          1   -1    0    0  501    0 -0.00000000000E+00 -0.00000000000E+00 -0.96884755092E+03  0.96884755092E+03  0.00000000000E+00 0. -1.
         25    2    1    2    0    0 -0.27916269372E+02  0.30503233663E+03 -0.11886235166E+03  0.35153564897E+03  0.12500003749E+03 0.  0.
          2    1    1    2  501    0  0.10208956439E+03 -0.79717310012E+02 -0.71180493621E+03  0.72349388103E+03  0.00000000000E+00 0. -1.
          1    1    1    2  502    0 -0.74173295022E+02 -0.22531502661E+03  0.86324392857E+03  0.89524221254E+03  0.00000000000E+00 0. -1.
         22    1    3    3    0    0  0.46181508424E+02  0.16172570177E+03 -0.76287512892E+02  0.18468275219E+03  0.00000000000E+00 0. -1.
         22    1    3    3    0    0 -0.74097777796E+02  0.14330663486E+03 -0.42574838768E+02  0.16685289678E+03  0.00000000000E+00 0. -1.
</event>
<event>
 7    1  0.4822463E-005  0.2308486E+03  0.7818608E-02  0.1162528E+00
          2   -1    0    0  502    0  0.00000000000E+00  0.00000000000E+00  0.65427033737E+03  0.65427033737E+03  0.00000000000E+00 0. -1.
          1   -1    0    0  501    0 -0.00000000000E+00 -0.00000000000E+00 -0.18095274651E+03  0.18095274651E+03  0.00000000000E+00 0. -1.
         25    2    1    2    0    0 -0.15251812658E+02  0.27470426124E+03  0.88412516169E+02  0.31485965439E+03  0.12499912007E+03 0.  0.
          2    1    1    2  501    0  0.11381085527E+03 -0.16275119404E+03  0.18916073178E+03  0.27426746870E+03  0.00000000000E+00 0. -1.
          1    1    1    2  502    0 -0.98559042612E+02 -0.11195306719E+03  0.19574434291E+03  0.24609596079E+03  0.00000000000E+00 0. -1.
         22    1    3    3    0    0 -0.16941692159E+02  0.55115629640E+01 -0.18061847749E+02  0.25369836492E+02  0.00000000000E+00 0. -1.
         22    1    3    3    0    0  0.16898795011E+01  0.26919269827E+03  0.10647436392E+03  0.28948981790E+03  0.00000000000E+00 0. -1.
</event>
<event>
 7    1  0.4822463E-005  0.3396109E+03  0.7818608E-02  0.1245161E+00
          2   -1    0    0  502    0  0.00000000000E+00  0.00000000000E+00  0.74819387595E+03  0.74819387595E+03  0.00000000000E+00 0. -1.
          1   -1    0    0  501    0 -0.00000000000E+00 -0.00000000000E+00 -0.50690991474E+03  0.50690991474E+03  0.00000000000E+00 0. -1.
         25    2    1    2    0    0  0.33261867538E+03  0.90689650320E+02  0.16956017451E+03  0.40402416748E+03  0.12500031699E+03 0.  0.
          2    1    1    2  501    0  0.15206041854E+01 -0.41500145746E+02 -0.32637998638E+03  0.32901135215E+03  0.00000000000E+00 0. -1.
          1    1    1    2  502    0 -0.33413927956E+03 -0.49189504575E+02  0.39810377308E+03  0.52206827106E+03  0.00000000000E+00 0. -1.
         22    1    3    3    0    0  0.12169329329E+03  0.59897261683E+02  0.67578265670E+01  0.13580356331E+03  0.00000000000E+00 0. -1.
         22    1    3    3    0    0  0.21092538209E+03  0.30792388637E+02  0.16280234794E+03  0.26822060417E+03  0.00000000000E+00 0. -1.
</event>
<event>
 7    1  0.4822463E-005  0.5465873E+03  0.7818608E-02  0.1122168E+00
          2   -1    0    0  502    0  0.00000000000E+00  0.00000000000E+00  0.13606432819E+04  0.13606432819E+04  0.00000000000E+00 0. -1.
          1   -1    0    0  501    0 -0.00000000000E+00 -0.00000000000E+00 -0.13169453152E+04  0.13169453152E+04  0.00000000000E+00 0. -1.
         25    2    1    2    0    0 -0.26590404919E+02  0.59319381178E+03 -0.25922765494E+03  0.65985509161E+03  0.12499526738E+03 0.  0.
          2    1    1    2  501    0  0.97890179974E+02 -0.51983104223E+03 -0.77316101103E+03  0.93679493422E+03  0.00000000000E+00 0. -1.
          1    1    1    2  502    0 -0.71299775056E+02 -0.73362769551E+02  0.10760866326E+04  0.10809385712E+04  0.00000000000E+00 0. -1.
         22    1    3    3    0    0 -0.12116076521E+02  0.49923582605E+03 -0.26360804074E+03  0.56468788589E+03  0.00000000000E+00 0.  1.
         22    1    3    3    0    0 -0.14474328398E+02  0.93957985735E+02  0.43803858017E+01  0.95167205726E+02  0.00000000000E+00 0.  1.
</event>
<event>
 7    1  0.4822463E-005  0.2150206E+03  0.7818608E-02  0.1138491E+00
          2   -1    0    0  502    0  0.00000000000E+00  0.00000000000E+00  0.61658271017E+03  0.61658271017E+03  0.00000000000E+00 0. -1.
          1   -1    0    0  501    0 -0.00000000000E+00 -0.00000000000E+00 -0.68655124869E+03  0.68655124869E+03  0.00000000000E+00 0. -1.
         25    2    1    2    0    0 -0.26675447369E+02  0.80191629575E+02 -0.19572107252E+03  0.24713209295E+03  0.12500102475E+03 0.  0.
          2    1    1    2  501    0 -0.20624916259E+03 -0.52581999258E+02 -0.41509450317E+03  0.46648368704E+03  0.00000000000E+00 0. -1.
          1    1    1    2  502    0  0.23292460996E+03 -0.27609630317E+02  0.54084703717E+03  0.58951817887E+03  0.00000000000E+00 0. -1.
         22    1    3    3    0    0 -0.50297295206E+02  0.20756057132E+02 -0.16948042600E+03  0.17800069272E+03  0.00000000000E+00 0. -1.
         22    1    3    3    0    0  0.23621847837E+02  0.59435572443E+02 -0.26240646520E+02  0.69131400222E+02  0.00000000000E+00 0. -1.
</event>
<event>
 7    1  0.4822463E-005  0.1396777E+03  0.7818608E-02  0.1248281E+00
          2   -1    0    0  502    0  0.00000000000E+00  0.00000000000E+00  0.79573151934E+03  0.79573151934E+03  0.00000000000E+00 0. -1.
          1   -1    0    0  501    0 -0.00000000000E+00 -0.00000000000E+00 -0.86882877670E+02  0.86882877670E+02  0.00000000000E+00 0. -1.
         25    2    1    2    0    0  0.15841896195E+02 -0.14739881844E+03  0.43494475087E+03  0.47620502865E+03  0.12496765841E+03 0.  0.
          2    1    1    2  501    0  0.78212356464E+02  0.12038994337E+03  0.34317539823E+02  0.14760963623E+03  0.00000000000E+00 0. -1.
          1    1    1    2  502    0 -0.94054252659E+02  0.27008875073E+02  0.23958635098E+03  0.25879973214E+03  0.00000000000E+00 0. -1.
         22    1    3    3    0    0  0.68821235272E+02 -0.77664543445E+02  0.27372148616E+03  0.29273126878E+03  0.00000000000E+00 0.  1.
         22    1    3    3    0    0 -0.52979339077E+02 -0.69734274998E+02  0.16122326471E+03  0.18347375987E+03  0.00000000000E+00 0.  1.
</event>
<event>
 7    1  0.4822463E-005  0.1833748E+03  0.7818608E-02  0.1187456E+00
          2   -1    0    0  502    0  0.00000000000E+00  0.00000000000E+00  0.25372503637E+04  0.25372503637E+04  0.00000000000E+00 0. -1.
          1   -1    0    0  501    0 -0.00000000000E+00 -0.00000000000E+00 -0.69427227763E+02  0.69427227763E+02  0.00000000000E+00 0. -1.
         25    2    1    2    0    0 -0.75190855753E+02  0.13546740004E+03  0.19926513088E+03  0.28166715646E+03  0.12499885352E+03 0.  0.
          2    1    1    2  501    0  0.75031282605E+02 -0.27700598874E+03  0.80504629624E+03  0.85467043371E+03  0.00000000000E+00 0. -1.
          1    1    1    2  502    0  0.15957314798E+00  0.14153858870E+03  0.14635117088E+04  0.14703400013E+04  0.00000000000E+00 0. -1.
         22    1    3    3    0    0  0.29374860151E+02  0.65184945792E+02  0.55524171024E+02  0.90525649043E+02  0.00000000000E+00 0. -1.
         22    1    3    3    0    0 -0.10456571590E+03  0.70282454250E+02  0.14374095986E+03  0.19114150742E+03  0.00000000000E+00 0. -1.
</event>
<event>
 7    1  0.4822463E-005  0.1157557E+04  0.7818608E-02  0.1092319E+00
          2   -1    0    0  502    0  0.00000000000E+00  0.00000000000E+00  0.19105160315E+04  0.19105160315E+04  0.00000000000E+00 0. -1.
          1   -1    0    0  501    0 -0.00000000000E+00 -0.00000000000E+00 -0.37727724961E+04  0.37727724961E+04  0.00000000000E+00 0. -1.
         25    2    1    2    0    0  0.36064341261E+02  0.11755202146E+04 -0.12891269314E+04  0.17494634571E+04  0.12500292442E+03 0.  0.
          2    1    1    2  501    0  0.66340183974E+02 -0.24703012992E+02 -0.20541957163E+04  0.20554151162E+04  0.00000000000E+00 0. -1.
          1    1    1    2  502    0 -0.10240452524E+03 -0.11508172016E+04  0.14810661830E+04  0.18784099544E+04  0.00000000000E+00 0. -1.
         22    1    3    3    0    0  0.39687670735E+02  0.39529735025E+03 -0.35938672718E+03  0.53571814044E+03  0.00000000000E+00 0. -1.
         22    1    3    3    0    0 -0.36233294739E+01  0.78022286430E+03 -0.92974020419E+03  0.12137453167E+04  0.00000000000E+00 0. -1.
</event>
<event>
 7    1  0.4822463E-005  0.6452128E+03  0.7818608E-02  0.1198932E+00
          2   -1    0    0  502    0  0.00000000000E+00  0.00000000000E+00  0.11347589236E+04  0.11347589236E+04  0.00000000000E+00 0. -1.
          1   -1    0    0  501    0 -0.00000000000E+00 -0.00000000000E+00 -0.27389803091E+04  0.27389803091E+04  0.00000000000E+00 0. -1.
         25    2    1    2    0    0 -0.60828299436E+03  0.25985912028E+03 -0.10864226173E+04  0.12780741781E+04  0.12499815068E+03 0.  0.
          2    1    1    2  501    0  0.59186111074E+03 -0.22842977237E+03 -0.14917604793E+04  0.16210580073E+04  0.00000000000E+00 0. -1.
          1    1    1    2  502    0  0.16421883615E+02 -0.31429347912E+02  0.97396171104E+03  0.97460704735E+03  0.00000000000E+00 0. -1.
         22    1    3    3    0    0 -0.83290801319E+02  0.56046627846E+01 -0.20244218280E+03  0.21897855422E+03  0.00000000000E+00 0.  1.
         22    1    3    3    0    0 -0.52499219304E+03  0.25425445750E+03 -0.88398043451E+03  0.10590956239E+04  0.00000000000E+00 0.  1.
</event>
<event>
 7    1  0.4822463E-005  0.2586337E+03  0.7818608E-02  0.1121972E+00
          2   -1    0    0  502    0  0.00000000000E+00  0.00000000000E+00  0.62270037288E+03  0.62270037288E+03  0.00000000000E+00 0. -1.
          1   -1    0    0  501    0 -0.00000000000E+00 -0.00000000000E+00 -0.63375686594E+03  0.63375686594E+03  0.00000000000E+00 0. -1.
         25    2    1    2    0    0 -0.12322259749E+03  0.95361037122E+02 -0.19716295711E+03  0.28066973554E+03  0.12499893144E+03 0.  0.
          2    1    1    2  501    0 -0.15271464150E+03 -0.15378832078E+03 -0.32580925507E+03  0.39131097611E+03  0.00000000000E+00 0. -1.
          1    1    1    2  502    0  0.27593723898E+03  0.58427283655E+02  0.51191571912E+03  0.58447652717E+03  0.00000000000E+00 0. -1.
         22    1    3    3    0    0 -0.12126939855E+02 -0.21034622656E+02 -0.74458240354E+02  0.78316968641E+02  0.00000000000E+00 0. -1.
         22    1    3    3    0    0 -0.11109565763E+03  0.11639565978E+03 -0.12270471676E+03  0.20235276690E+03  0.00000000000E+00 0. -1.
</event>
<event>
 7    1  0.4822463E-005  0.5646571E+02  0.7818608E-02  0.1509670E+00
          2   -1    0    0  502    0  0.00000000000E+00  0.00000000000E+00  0.52222891990E+01  0.52222891990E+01  0.00000000000E+00 0. -1.
          1   -1    0    0  501    0 -0.00000000000E+00 -0.00000000000E+00 -0.32031395923E+04  0.32031395923E+04  0.00000000000E+00 0. -1.
         25    2    1    2    0    0  0.64209695431E+02 -0.49061004231E+02 -0.26617201422E+04  0.26658786689E+04  0.12500037843E+03 0.  0.
          2    1    1    2  501    0 -0.18488115631E+02  0.21103577620E+02 -0.21912703009E+03  0.22091588156E+03  0.00000000000E+00 0. -1.
          1    1    1    2  502    0 -0.45721579801E+02  0.27957426610E+02 -0.31707013082E+03  0.32156733108E+03  0.00000000000E+00 0. -1.
         22    1    3    3    0    0 -0.16844247094E+02  0.20489444445E+02 -0.11868947796E+04  0.11871911235E+04  0.00000000000E+00 0.  1.
         22    1    3    3    0    0  0.81053942525E+02 -0.69550448675E+02 -0.14748253627E+04  0.14786875454E+04  0.00000000000E+00 0.  1.
</event>
<event>
 7    1  0.4822463E-005  0.2411710E+03  0.7818608E-02  0.1209447E+00
          2   -1    0    0  502    0  0.00000000000E+00  0.00000000000E+00  0.13312091958E+03  0.13312091958E+03  0.00000000000E+00 0. -1.
          1   -1    0    0  501    0 -0.00000000000E+00 -0.00000000000E+00 -0.89759349508E+03  0.89759349508E+03  0.00000000000E+00 0. -1.
         25    2    1    2    0    0  0.18949604418E+02 -0.22855585146E+03 -0.40783782399E+03  0.48430694914E+03  0.12499866224E+03 0.  0.
          2    1    1    2  501    0 -0.10300110049E+03  0.23902635187E+03 -0.37810503938E+03  0.45902749852E+03  0.00000000000E+00 0. -1.
          1    1    1    2  502    0  0.84051496075E+02 -0.10470500408E+02  0.21470287875E+02  0.87379966998E+02  0.00000000000E+00 0. -1.
         22    1    3    3    0    0  0.22765859818E+02 -0.82940635329E+02 -0.53736561603E+02  0.10141524252E+03  0.00000000000E+00 0.  1.
         22    1    3    3    0    0 -0.38162553999E+01 -0.14561521613E+03 -0.35410126239E+03  0.38289170662E+03  0.00000000000E+00 0.  1.
</event>
<event>
 7    1  0.4822463E-005  0.4513654E+03  0.7818608E-02  0.1250475E+00
          2   -1    0    0  502    0  0.00000000000E+00  0.00000000000E+00  0.14448231085E+04  0.14448231085E+04  0.00000000000E+00 0. -1.
          1   -1    0    0  501    0 -0.00000000000E+00 -0.00000000000E+00 -0.76902108981E+03  0.76902108981E+03  0.00000000000E+00 0. -1.
         25    2    1    2    0    0  0.27148113991E+03  0.33824322842E+03 -0.11588832169E+03  0.46601105840E+03  0.12500285016E+03 0.  0.
          2    1    1    2  501    0 -0.28452995882E+03 -0.36483969124E+03 -0.36589538003E+03  0.58986839796E+03  0.00000000000E+00 0. -1.
          1    1    1    2  502    0  0.13048818914E+02  0.26596462820E+02  0.11575857205E+04  0.11579647420E+04  0.00000000000E+00 0. -1.
         22    1    3    3    0    0  0.80692020641E+02  0.31174008277E+02 -0.45383203830E+02  0.97686519935E+02  0.00000000000E+00 0. -1.
         22    1    3    3    0    0  0.19078911927E+03  0.30706922015E+03 -0.70505117856E+02  0.36832453847E+03  0.00000000000E+00 0. -1.
</event>
<event>
 7    1  0.4822463E-005  0.1995825E+03  0.7818608E-02  0.1238353E+00
          2   -1    0    0  502    0  0.00000000000E+00  0.00000000000E+00  0.74907493832E+03  0.74907493832E+03  0.00000000000E+00 0. -1.
          1   -1    0    0  501    0 -0.00000000000E+00 -0.00000000000E+00 -0.22245914067E+04  0.22245914067E+04  0.00000000000E+00 0. -1.
         25    2    1    2    0    0 -0.88885780453E+02 -0.17380999031E+03 -0.13697808367E+04  0.13892569772E+04  0.12499925321E+03 0.  0.
          2    1    1    2  501    0  0.23589292641E+02  0.21212410271E+03 -0.82959069888E+03  0.85660598723E+03  0.00000000000E+00 0. -1.
          1    1    1    2  502    0  0.65296487812E+02 -0.38314112402E+02  0.72385506721E+03  0.72780338063E+03  0.00000000000E+00 0. -1.
         22    1    3    3    0    0 -0.69515263889E+01 -0.14468152708E+03 -0.85910476823E+03  0.87123020539E+03  0.00000000000E+00 0. -1.
         22    1    3    3    0    0 -0.81934254064E+02 -0.29128463233E+02 -0.51067606852E+03  0.51802677181E+03  0.00000000000E+00 0. -1.
</event>
<event>
 7    1  0.4822463E-005  0.9397953E+02  0.7818608E-02  0.1322570E+00
          2   -1    0    0  502    0  0.00000000000E+00  0.00000000000E+00  0.18063491884E+04  0.18063491884E+04  0.00000000000E+00 0. -1.
          1   -1    0    0  501    0 -0.00000000000E+00 -0.00000000000E+00 -0.15160546326E+04  0.15160546326E+04  0.00000000000E+00 0. -1.
         25    2    1    2    0    0  0.15139435249E+03 -0.64221856990E+02  0.15432458486E+04  0.15570092441E+04  0.12500136013E+03 0.  0.
          2    1    1    2  501    0 -0.90251559760E+02  0.25971106218E+02 -0.15026024764E+04  0.15055344713E+04  0.00000000000E+00 0. -1.
          1    1    1    2  502    0 -0.61142792734E+02  0.38250750772E+02  0.24965118354E+03  0.25986010559E+03  0.00000000000E+00 0. -1.
         22    1    3    3    0    0  0.15506569517E+03 -0.32433014673E+02  0.96832687984E+03  0.98120039568E+03  0.00000000000E+00 0. -1.
         22    1    3    3    0    0 -0.36713426728E+01 -0.31788842317E+02  0.57491896877E+03  0.57580884841E+03  0.00000000000E+00 0. -1.
</event>
<event>
 7    1  0.4822463E-005  0.1926209E+03  0.7818608E-02  0.1218820E+00
          2   -1    0    0  502    0  0.00000000000E+00  0.00000000000E+00  0.17565832647E+03  0.17565832647E+03  0.00000000000E+00 0. -1.
          1   -1    0    0  501    0 -0.00000000000E+00 -0.00000000000E+00 -0.13920612622E+04  0.13920612622E+04  0.00000000000E+00 0. -1.
         25    2    1    2    0    0  0.40520415101E+02 -0.26331158815E+03 -0.92139278393E+03  0.96724688569E+03  0.12500791614E+03 0.  0.
          2    1    1    2  501    0 -0.58905780289E+02  0.75824909494E+02 -0.38134404217E+03  0.39324621594E+03  0.00000000000E+00 0. -1.
          1    1    1    2  502    0  0.18385365189E+02  0.18748667865E+03  0.86333890343E+02  0.20722648708E+03  0.00000000000E+00 0. -1.
         22    1    3    3    0    0  0.61574953203E+02 -0.17086665097E+03 -0.74683269902E+03  0.76860000495E+03  0.00000000000E+00 0.  1.
         22    1    3    3    0    0 -0.21054538103E+02 -0.92444937177E+02 -0.17456008491E+03  0.19864688074E+03  0.00000000000E+00 0.  1.
</event>
<event>
 7    1  0.4822463E-005  0.1357214E+04  0.7818608E-02  0.1070432E+00
          2   -1    0    0  502    0  0.00000000000E+00  0.00000000000E+00  0.38959253750E+04  0.38959253750E+04  0.00000000000E+00 0. -1.
          1   -1    0    0  501    0 -0.00000000000E+00 -0.00000000000E+00 -0.93791953138E+03  0.93791953138E+03  0.00000000000E+00 0. -1.
         25    2    1    2    0    0 -0.11484336156E+04 -0.73014112157E+03  0.56732956279E+03  0.14796946525E+04  0.12501041906E+03 0.  0.
          2    1    1    2  501    0  0.10981666265E+04  0.79367821418E+03  0.47356125336E+03  0.14353241125E+04  0.00000000000E+00 0. -1.
          1    1    1    2  502    0  0.50266989139E+02 -0.63537092609E+02  0.19171150275E+04  0.19188261414E+04  0.00000000000E+00 0. -1.
         22    1    3    3    0    0 -0.31748624440E+03 -0.16766032877E+03  0.20114754438E+03  0.41154323690E+03  0.00000000000E+00 0.  1.
         22    1    3    3    0    0 -0.83094737124E+03 -0.56248079280E+03  0.36618201841E+03  0.10681514156E+04  0.00000000000E+00 0.  1.
</event>
<event>
 7    1  0.4822463E-005  0.2977695E+03  0.7818608E-02  0.1199636E+00
          2   -1    0    0  502    0  0.00000000000E+00  0.00000000000E+00  0.32210157493E+03  0.32210157493E+03  0.00000000000E+00 0. -1.
          1   -1    0    0  501    0 -0.00000000000E+00 -0.00000000000E+00 -0.14597037546E+04  0.14597037546E+04  0.00000000000E+00 0. -1.
         25    2    1    2    0    0  0.36719423486E+02 -0.31971951386E+03 -0.23970134036E+03  0.42029672448E+03  0.12499488166E+03 0.  0.
          2    1    1    2  501    0 -0.99688381503E+02  0.27671713877E+03 -0.11036047383E+04  0.11421267735E+04  0.00000000000E+00 0. -1.
          1    1    1    2  502    0  0.62968958017E+02  0.43002375082E+02  0.20570389902E+03  0.21938183154E+03  0.00000000000E+00 0. -1.
         22    1    3    3    0    0  0.69374342090E+02 -0.28510640176E+03 -0.22717766252E+03  0.37109048764E+03  0.00000000000E+00 0.  1.
         22    1    3    3    0    0 -0.32654918605E+02 -0.34613112096E+02 -0.12523677835E+02  0.49206236846E+02  0.00000000000E+00 0.  1.
</event>
<event>
 7    1  0.4822463E-005  0.2594505E+03  0.7818608E-02  0.1298546E+00
          2   -1    0    0  502    0  0.00000000000E+00  0.00000000000E+00  0.28764437682E+04  0.28764437682E+04  0.00000000000E+00 0. -1.
          1   -1    0    0  501    0 -0.00000000000E+00 -0.00000000000E+00 -0.16232301241E+03  0.16232301241E+03  0.00000000000E+00 0. -1.
         25    2    1    2    0    0 -0.11252587565E+03  0.26407283198E+03  0.80821160099E+03  0.86673376747E+03  0.12499959367E+03 0.  0.
          2    1    1    2  501    0  0.93665878393E+02 -0.23762659241E+03 -0.10223416640E+02  0.25562514048E+03  0.00000000000E+00 0. -1.
          1    1    1    2  502    0  0.18859997255E+02 -0.26446239567E+02  0.19161325714E+04  0.19164078726E+04  0.00000000000E+00 0. -1.
         22    1    3    3    0    0 -0.58402672486E+02  0.23038422125E+03  0.71765801393E+03  0.75598993810E+03  0.00000000000E+00 0.  1.
         22    1    3    3    0    0 -0.54123203163E+02  0.33688610728E+02  0.90553587055E+02  0.11074382936E+03  0.00000000000E+00 0.  1.
</event>
<event>
 7    1  0.4822463E-005  0.3572361E+03  0.7818608E-02  0.1138371E+00
          2   -1    0    0  502    0  0.00000000000E+00  0.00000000000E+00  0.28681912170E+04  0.28681912170E+04  0.00000000000E+00 0. -1.
          1   -1    0    0  501    0 -0.00000000000E+00 -0.00000000000E+00 -0.81267897532E+03  0.81267897532E+03  0.00000000000E+00 0. -1.
         25    2    1    2    0    0 -0.25523892392E+03 -0.38282780290E+03  0.30460590054E+02  0.47775159309E+03  0.12495880198E+03 0.  0.
          2    1    1    2  501    0  0.11301773862E+03  0.60723001101E+02 -0.57001422125E+03  0.58427434013E+03  0.00000000000E+00 0. -1.
          1    1    1    2  502    0  0.14222118531E+03  0.32210480180E+03  0.25950658728E+04  0.26188442591E+04  0.00000000000E+00 0. -1.
         22    1    3    3    0    0 -0.17133704904E+03 -0.34328622032E+03  0.17183977388E+02  0.38405351516E+03  0.00000000000E+00 0. -1.
         22    1    3    3    0    0 -0.83901874885E+02 -0.39541582588E+02  0.13276612667E+02  0.93698077924E+02  0.00000000000E+00 0. -1.
</event>
<event>
 7    1  0.4822463E-005  0.7346224E+02  0.7818608E-02  0.1375199E+00
          2   -1    0    0  502    0  0.00000000000E+00  0.00000000000E+00  0.15965876813E+04  0.15965876813E+04  0.00000000000E+00 0. -1.
          1   -1    0    0  501    0 -0.00000000000E+00 -0.00000000000E+00 -0.24112656871E+03  0.24112656871E+03  0.00000000000E+00 0. -1.
         25    2    1    2    0    0  0.11688073857E+03  0.51880279855E+02  0.22060412519E+03  0.28397935281E+03  0.12500168912E+03 0.  0.
          2    1    1    2  501    0 -0.57808817746E+02 -0.10938971702E+02 -0.20432431668E+03  0.21262630811E+03  0.00000000000E+00 0. -1.
          1    1    1    2  502    0 -0.59071920828E+02 -0.40941308153E+02  0.13391813041E+04  0.13411085891E+04  0.00000000000E+00 0. -1.
         22    1    3    3    0    0  0.17096430272E+02 -0.33285524885E+02  0.96051633917E+02  0.10308312409E+03  0.00000000000E+00 0. -1.
         22    1    3    3    0    0  0.99784308301E+02  0.85165804740E+02  0.12455249127E+03  0.18089622871E+03  0.00000000000E+00 0. -1.
</event>
<event>
 7    1  0.4822463E-005  0.7900185E+03  0.7818608E-02  0.1042846E+00
          2   -1    0    0  502    0  0.00000000000E+00  0.00000000000E+00  0.14693061524E+04  0.14693061524E+04  0.00000000000E+00 0. -1.
          1   -1    0    0  501    0 -0.00000000000E+00 -0.00000000000E+00 -0.27601464829E+04  0.27601464829E+04  0.00000000000E+00 0. -1.
         25    2    1    2    0    0 -0.65626805089E+03 -0.62001224924E+03 -0.40100384683E+03  0.99575695343E+03  0.12499952521E+03 0.  0.
          2    1    1    2  501    0  0.45099287017E+03  0.61888604790E+03 -0.19807557474E+04  0.21236308154E+04  0.00000000000E+00 0. -1.
          1    1    1    2  502    0  0.20527518072E+03  0.11262013345E+01  0.10909192636E+04  0.11100648665E+04  0.00000000000E+00 0. -1.
         22    1    3    3    0    0 -0.33386139894E+03 -0.30186077907E+03 -0.13245147099E+03  0.46917667867E+03  0.00000000000E+00 0. -1.
         22    1    3    3    0    0 -0.32240665195E+03 -0.31815147017E+03 -0.26855237584E+03  0.52658027476E+03  0.00000000000E+00 0. -1.
</event>
<event>
 7    1  0.4822463E-005  0.2067623E+03  0.7818608E-02  0.1170107E+00
          2   -1    0    0  502    0  0.00000000000E+00  0.00000000000E+00  0.42898645573E+03  0.42898645573E+03  0.00000000000E+00 0. -1.
          1   -1    0    0  501    0 -0.00000000000E+00 -0.00000000000E+00 -0.45356545060E+03  0.45356545060E+03  0.00000000000E+00 0. -1.
         25    2    1    2    0    0  0.16136599989E+03 -0.27694713410E+03 -0.18304157260E+03  0.38970263523E+03  0.12500090242E+03 0.  0.
          2    1    1    2  501    0 -0.12693181357E+03  0.84740757319E+02 -0.89736325775E+02  0.17704600931E+03  0.00000000000E+00 0. -1.
          1    1    1    2  502    0 -0.34434186314E+02  0.19220637678E+03  0.24819890350E+03  0.31580326179E+03  0.00000000000E+00 0. -1.
         22    1    3    3    0    0  0.11652521856E+03 -0.25619537180E+03 -0.19032143426E+03  0.33975939050E+03  0.00000000000E+00 0. -1.
         22    1    3    3    0    0  0.44840781329E+02 -0.20751762298E+02  0.72798616686E+01  0.49943244735E+02  0.00000000000E+00 0. -1.
</event>
<event>
 7    1  0.4822463E-005  0.3891667E+03  0.7818608E-02  0.1204429E+00
          2   -1    0    0  502    0  0.00000000000E+00  0.00000000000E+00  0.98359100577E+03  0.98359100577E+03  0.00000000000E+00 0. -1.
          1   -1    0    0  501    0 -0.00000000000E+00 -0.00000000000E+00 -0.79109787433E+03  0.79109787433E+03  0.00000000000E+00 0. -1.
         25    2    1    2    0    0  0.29475830768E+01  0.40899634333E+03 -0.31359370942E+03  0.53033234819E+03  0.12499875136E+03 0.  0.
          2    1    1    2  501    0  0.37410318529E+02 -0.37105129213E+03 -0.27370865142E+03  0.46259595673E+03  0.00000000000E+00 0. -1.
          1    1    1    2  502    0 -0.40357901606E+02 -0.37945051201E+02  0.77979549228E+03  0.78176057518E+03  0.00000000000E+00 0. -1.
         22    1    3    3    0    0 -0.48634434032E+01  0.82458802586E+02 -0.13445831822E+03  0.15780413982E+03  0.00000000000E+00 0. -1.
         22    1    3    3    0    0  0.78110264799E+01  0.32653754074E+03 -0.17913539121E+03  0.37252820837E+03  0.00000000000E+00 0. -1.
</event>
<event>
 7    1  0.4822463E-005  0.9411675E+03  0.7818608E-02  0.1186379E+00
          2   -1    0    0  502    0  0.00000000000E+00  0.00000000000E+00  0.14652881085E+04  0.14652881085E+04  0.00000000000E+00 0. -1.
          1   -1    0    0  501    0 -0.00000000000E+00 -0.00000000000E+00 -0.17565224348E+04  0.17565224348E+04  0.00000000000E+00 0. -1.
         25    2    1    2    0    0 -0.18644586061E+03  0.92971636812E+03  0.30181578544E+03  0.10029226500E+04  0.12500595772E+03 0.  0.
          2    1    1    2  501    0  0.26872459052E+02 -0.75342712669E+01 -0.11363771515E+04  0.11367198092E+04  0.00000000000E+00 0. -1.
          1    1    1    2  502    0  0.15957340156E+03 -0.92218209685E+03  0.54332703968E+03  0.10821680841E+04  0.00000000000E+00 0. -1.
         22    1    3    3    0    0 -0.15288866645E+03  0.76458106571E+03  0.29692828348E+03  0.83434139050E+03  0.00000000000E+00 0.  1.
         22    1    3    3    0    0 -0.33557194166E+02  0.16513530241E+03  0.48875019679E+01  0.16858125951E+03  0.00000000000E+00 0.  1.
</event>
<event>
 7    1  0.4822463E-005  0.1915710E+03  0.7818608E-02  0.1212964E+00
          2   -1    0    0  502    0  0.00000000000E+00  0.00000000000E+00  0.15200448866E+04  0.15200448866E+04  0.00000000000E+00 0. -1.
          1   -1    0    0  501    0 -0.00000000000E+00 -0.00000000000E+00 -0.83053736562E+03  0.83053736562E+03  0.00000000000E+00 0. -1.
         25    2    1    2    0    0 -0.70352262286E+02 -0.19781438035E+03 -0.21502062774E+02  0.24528862887E+03  0.12499681142E+03 0.  0.
          2    1    1    2  501    0  0.14449853117E+03  0.12673958337E+03 -0.68196733047E+03  0.70853524071E+03  0.00000000000E+00 0. -1.
          1    1    1    2  502    0 -0.74146268887E+02  0.71074796979E+02  0.13929769142E+04  0.13967583827E+04  0.00000000000E+00 0. -1.
         22    1    3    3    0    0 -0.36615151932E+02 -0.59579689429E+02 -0.66043508525E+02  0.96188116531E+02  0.00000000000E+00 0. -1.
         22    1    3    3    0    0 -0.33737110354E+02 -0.13823469092E+03  0.44541445751E+02  0.14910051234E+03  0.00000000000E+00 0. -1.
</event>
<event>
 7    1  0.4822463E-005  0.8065481E+03  0.7818608E-02  0.1224406E+00
          2   -1    0    0  502    0  0.00000000000E+00  0.00000000000E+00  0.18397448324E+04  0.18397448324E+04  0.00000000000E+00 0. -1.
          1   -1    0    0  501    0 -0.00000000000E+00 -0.00000000000E+00 -0.60649197848E+03  0.60649197848E+03  0.00000000000E+00 0. -1.
         25    2    1    2    0    0 -0.27628658588E+03 -0.74737900973E+03  0.33712512704E+03  0.87417725052E+03  0.12499140903E+03 0.  0.
          2    1    1    2  501    0 -0.20096554066E+02 -0.79948518777E+01 -0.20394842428E+03  0.20509204984E+03  0.00000000000E+00 0. -1.
          1    1    1    2  502    0  0.29638313995E+03  0.75537386160E+03  0.11000761511E+04  0.13669675105E+04  0.00000000000E+00 0. -1.
         22    1    3    3    0    0 -0.22052712844E+03 -0.42231675936E+03  0.21126075043E+03  0.52116673368E+03  0.00000000000E+00 0.  1.
         22    1    3    3    0    0 -0.55759457441E+02 -0.32506225036E+03  0.12586437661E+03  0.35301051685E+03  0.00000000000E+00 0.  1.
</event>
<event>
 7    1  0.4822463E-005  0.6638995E+03  0.7818608E-02  0.1157642E+00
          2   -1    0    0  502    0  0.00000000000E+00  0.00000000000E+00  0.12772206144E+04  0.12772206144E+04  0.00000000000E+00 0. -1.
          1   -1    0    0  501    0 -0.00000000000E+00 -0.00000000000E+00 -0.18405921787E+04  0.18405921787E+04  0.00000000000E+00 0. -1.
         25    2    1    2    0    0 -0.38456359855E+03 -0.51499153318E+03 -0.35386827740E+03  0.74428025562E+03  0.12499960232E+03 0.  0.
          2    1    1    2  501    0  0.36522134690E+03  0.56636996444E+03 -0.12027959477E+04  0.13787239248E+04  0.00000000000E+00 0. -1.
          1    1    1    2  502    0  0.19342251656E+02 -0.51378431260E+02  0.99329266083E+03  0.99480861273E+03  0.00000000000E+00 0. -1.
         22    1    3    3    0    0 -0.24806669625E+03 -0.30020591198E+03 -0.27881439492E+03  0.47895526115E+03  0.00000000000E+00 0.  1.
         22    1    3    3    0    0 -0.13649690231E+03 -0.21478562120E+03 -0.75053882480E+02  0.26532499447E+03  0.00000000000E+00 0.  1.
</event>
<event>
 7    1  0.4822463E-005  0.3335868E+02  0.7818608E-02  0.1627617E+00
          2   -1    0    0  502    0  0.00000000000E+00  0.00000000000E+00  0.17230235138E+04  0.17230235138E+04  0.00000000000E+00 0. -1.
          1   -1    0    0  501    0 -0.00000000000E+00 -0.00000000000E+00 -0.30687109710E+03  0.30687109710E+03  0.00000000000E+00 0. -1.
         25    2    1    2    0    0 -0.42600500358E+01 -0.35601116718E+02  0.56399541547E+03  0.57879330843E+03  0.12500111068E+03 0.  0.
          2    1    1    2  501    0 -0.19338657586E+02  0.11798037288E+02 -0.29879941842E+03  0.29965692017E+03  0.00000000000E+00 0. -1.
          1    1    1    2  502    0  0.23598707622E+02  0.23803079430E+02  0.11509564197E+04  0.11514443823E+04  0.00000000000E+00 0. -1.
         22    1    3    3    0    0 -0.34179599645E+02  0.35019854687E+02  0.15083790493E+03  0.15857713839E+03  0.00000000000E+00 0.  1.
         22    1    3    3    0    0  0.29919549609E+02 -0.70620971406E+02  0.41315751054E+03  0.42021617004E+03  0.00000000000E+00 0.  1.
</event>
<event>
 7    1  0.4822463E-005  0.2378653E+03  0.7818608E-02  0.1158288E+00
          2   -1    0    0  502    0  0.00000000000E+00  0.00000000000E+00  0.45378619091E+03  0.45378619091E+03  0.00000000000E+00 0. -1.
          1   -1    0    0  501    0 -0.00000000000E+00 -0.00000000000E+00 -0.70581965105E+03  0.70581965105E+03  0.00000000000E+00 0. -1.
         25    2    1    2    0    0 -0.11035855563E+03 -0.36323764158E+03  0.22377198664E+03  0.45806057855E+03  0.12499998624E+03 0.  0.
          2    1    1    2  501    0  0.64617839321E+02  0.21820594090E+03 -0.49830964514E+03  0.54781548010E+03  0.00000000000E+00 0. -1.
          1    1    1    2  502    0  0.45740716305E+02  0.14503170068E+03  0.22504198360E+02  0.15372978331E+03  0.00000000000E+00 0. -1.
         22    1    3    3    0    0 -0.11099543237E+03 -0.18631593692E+03  0.83937373372E+02  0.23254912815E+03  0.00000000000E+00 0.  1.
         22    1    3    3    0    0  0.63687674876E+00 -0.17692170466E+03  0.13983461326E+03  0.22551145040E+03  0.00000000000E+00 0.  1.
</event>
<event>
 7    1  0.4822463E-005  0.1267008E+04  0.7818608E-02  0.1121882E+00
          2   -1    0    0  502    0  0.00000000000E+00  0.00000000000E+00  0.23429546305E+04  0.23429546305E+04  0.00000000000E+00 0. -1.
          1   -1    0    0  501    0 -0.00000000000E+00 -0.00000000000E+00 -0.19398443150E+04  0.19398443150E+04  0.00000000000E+00 0. -1.
         25    2    1    2    0    0  0.64995979192E+03 -0.11336859337E+04 -0.14478744489E+04  0.19543934803E+04  0.12498771531E+03 0.  0.
          2    1    1    2  501    0 -0.23420581637E+02  0.37591910767E+02 -0.36638987997E+02  0.57481221636E+02  0.00000000000E+00 0. -1.
          1    1    1    2  502    0 -0.62653921028E+03  0.10960940229E+04  0.18876237524E+04  0.22709242435E+04  0.00000000000E+00 0. -1.
         22    1    3    3    0    0  0.30931158768E+03 -0.64926997496E+03 -0.83827237526E+03  0.11045024825E+04  0.00000000000E+00 0.  1.
         22    1    3    3    0    0  0.34064820424E+03 -0.48441595871E+03 -0.60960207359E+03  0.84989099785E+03  0.00000000000E+00 0.  1.
</event>
<event>
 7    1  0.4822463E-005  0.3277534E+03  0.7818608E-02  0.1167143E+00
          2   -1    0    0  502    0  0.00000000000E+00  0.00000000000E+00  0.71043514957E+03  0.71043514957E+03  0.00000000000E+00 0. -1.
          1   -1    0    0  501    0 -0.00000000000E+00 -0.00000000000E+00 -0.36406436032E+03  0.36406436032E+03  0.00000000000E+00 0. -1.
         25    2    1    2    0    0  0.15816708446E+03  0.23569298468E+03  0.56928312017E+02  0.31532171995E+03  0.12497577657E+03 0.  0.
          2    1    1    2  501    0  0.99578132668E+02  0.24058658596E+01 -0.16031217321E+03  0.18873681563E+03  0.00000000000E+00 0. -1.
          1    1    1    2  502    0 -0.25774521712E+03 -0.23809885054E+03  0.44975465044E+03  0.57044097431E+03  0.00000000000E+00 0. -1.
         22    1    3    3    0    0  0.15893540510E+03  0.14588678676E+03  0.15150454427E+02  0.21627055697E+03  0.00000000000E+00 0.  1.
         22    1    3    3    0    0 -0.76832064277E+00  0.89806197921E+02  0.41777857591E+02  0.99051162974E+02  0.00000000000E+00 0.  1.
</event>
<event>
 7    1  0.4822463E-005  0.4422718E+03  0.7818608E-02  0.1109936E+00
          2   -1    0    0  502    0  0.00000000000E+00  0.00000000000E+00  0.14103493582E+04  0.14103493582E+04  0.00000000000E+00 0. -1.
          1   -1    0    0  501    0 -0.00000000000E+00 -0.00000000000E+00 -0.10417558602E+04  0.10417558602E+04  0.00000000000E+00 0. -1.
         25    2    1    2    0    0  0.14417476740E+03  0.54312508720E+03 -0.62386578538E+02  0.57903979397E+03  0.12499509559E+03 0.  0.
          2    1    1    2  501    0 -0.10325524797E+03 -0.40142269834E+03 -0.65608112542E+03  0.77604398852E+03  0.00000000000E+00 0. -1.
          1    1    1    2  502    0 -0.40919519433E+02 -0.14170238886E+03  0.10870612019E+04  0.10970214359E+04  0.00000000000E+00 0. -1.
         22    1    3    3    0    0  0.53203121055E+02  0.39097813941E+03 -0.12063801634E+02  0.39476576966E+03  0.00000000000E+00 0. -1.
         22    1    3    3    0    0  0.90971646348E+02  0.15214694779E+03 -0.50322776904E+02  0.18427402431E+03  0.00000000000E+00 0. -1.
</event>
<event>
 7    1  0.4822463E-005  0.5363071E+03  0.7818608E-02  0.1080443E+00
          2   -1    0    0  502    0  0.00000000000E+00  0.00000000000E+00  0.11861595098E+04  0.11861595098E+04  0.00000000000E+00 0. -1.
          1   -1    0    0  501    0 -0.00000000000E+00 -0.00000000000E+00 -0.77678375710E+03  0.77678375710E+03  0.00000000000E+00 0. -1.
         25    2    1    2    0    0 -0.39763846410E+03  0.11409321048E+02  0.80114179980E+03  0.90316024005E+03  0.12499486018E+03 0.  0.
          2    1    1    2  501    0  0.54880363743E+03  0.84368884748E+02 -0.57800993600E+03  0.80149798957E+03  0.00000000000E+00 0. -1.
          1    1    1    2  502    0 -0.15116517333E+03 -0.95778205796E+02  0.18624388888E+03  0.25828503727E+03  0.00000000000E+00 0. -1.
         22    1    3    3    0    0 -0.30841119172E+03 -0.36534236066E+02  0.53813723579E+03  0.62132430995E+03  0.00000000000E+00 0.  1.
         22    1    3    3    0    0 -0.89227272377E+02  0.47943557114E+02  0.26300456401E+03  0.28183593010E+03  0.00000000000E+00 0.  1.
</event>
<event>
 7    1  0.4822463E-005  0.7599265E+03  0.7818608E-02  0.1094450E+00
          2   -1    0    0  502    0  0.00000000000E+00  0.00000000000E+00  0.93661336937E+03  0.93661336937E+03  0.00000000000E+00 0. -1.
          1   -1    0    0  501    0 -0.00000000000E+00 -0.00000000000E+00 -0.18418859116E+04  0.18418859116E+04  0.00000000000E+00 0. -1.
         25    2    1    2    0    0  0.28094825065E+03  0.76696999899E+03 -0.12179816629E+03  0.83524537362E+03  0.12500056776E+03 0.  0.
          2    1    1    2  501    0  0.26534400386E+02 -0.10144157212E+03 -0.11282440110E+04  0.11331059153E+04  0.00000000000E+00 0. -1.
          1    1    1    2  502    0 -0.30748265104E+03 -0.66552842688E+03  0.34476963509E+03  0.81014799201E+03  0.00000000000E+00 0. -1.
         22    1    3    3    0    0  0.20421635671E+03  0.39101578009E+03 -0.40199214836E+02  0.44296008568E+03  0.00000000000E+00 0.  1.
         22    1    3    3    0    0  0.76731893940E+02  0.37595421890E+03 -0.81598951456E+02  0.39228528794E+03  0.00000000000E+00 0.  1.
</event>
<event>
 7    1  0.4822463E-005  0.4950172E+03  0.7818608E-02  0.1240753E+00
          2   -1    0    0  502    0  0.00000000000E+00  0.00000000000E+00  0.18072088380E+04  0.18072088380E+04  0.00000000000E+00 0. -1.
          1   -1    0    0  501    0 -0.00000000000E+00 -0.00000000000E+00 -0.43329849606E+03  0.43329849606E+03  0.00000000000E+00 0. -1.
         25    2    1    2    0    0  0.23666896588E+03 -0.42229580093E+03 -0.28697053279E+02  0.50079347942E+03  0.12499858107E+03 0.  0.
          2    1    1    2  501    0 -0.25678200570E+03  0.44426900352E+03  0.22261793418E+03  0.55934845183E+03  0.00000000000E+00 0. -1.
          1    1    1    2  502    0  0.20113039823E+02 -0.21973202594E+02  0.11799894610E+04  0.11803654028E+04  0.00000000000E+00 0. -1.
         22    1    3    3    0    0  0.13461952083E+03 -0.12221656064E+03 -0.27113688485E+02  0.18383268258E+03  0.00000000000E+00 0.  1.
         22    1    3    3    0    0  0.10204944505E+03 -0.30007924029E+03 -0.15833647942E+01  0.31696079684E+03  0.00000000000E+00 0.  1.
</event>
<event>
 7    1  0.4822463E-005  0.2863073E+03  0.7818608E-02  0.1176754E+00
          2   -1    0    0  502    0  0.00000000000E+00  0.00000000000E+00  0.48693133228E+03  0.48693133228E+03  0.00000000000E+00 0. -1.
          1   -1    0    0  501    0 -0.00000000000E+00 -0.00000000000E+00 -0.54656767088E+03  0.54656767088E+03  0.00000000000E+00 0. -1.
         25    2    1    2    0    0 -0.20339366865E+02  0.29261963100E+03 -0.61007223411E+02  0.32461940941E+03  0.12496376023E+03 0.  0.
          2    1    1    2  501    0  0.10098082158E+03 -0.15704081334E+02 -0.28480010971E+03  0.30258031494E+03  0.00000000000E+00 0. -1.
          1    1    1    2  502    0 -0.80641454715E+02 -0.27691554966E+03  0.28617099452E+03  0.40629927882E+03  0.00000000000E+00 0. -1.
         22    1    3    3    0    0  0.21858811641E+02  0.25958877142E+03 -0.71217799984E+02  0.27006686752E+03  0.00000000000E+00 0. -1.
         22    1    3    3    0    0 -0.42198178506E+02  0.33030859573E+02  0.10210576573E+02  0.54552541896E+02  0.00000000000E+00 0. -1.
</event>
<event>
 7    1  0.4822463E-005  0.2636635E+03  0.7818608E-02  0.1186318E+00
          2   -1    0    0  502    0  0.00000000000E+00  0.00000000000E+00  0.22693571729E+04  0.22693571729E+04  0.00000000000E+00 0. -1.
          1   -1    0    0  501    0 -0.00000000000E+00 -0.00000000000E+00 -0.11966206163E+03  0.11966206163E+03  0.00000000000E+00 0. -1.
         25    2    1    2    0    0 -0.23222546535E+03 -0.82270726834E+02  0.13604150054E+04  0.13881826909E+04  0.12500022790E+03 0.  0.
          2    1    1    2  501    0 -0.72782616180E+02  0.68123411891E+02 -0.47252323409E+02  0.11032175911E+03  0.00000000000E+00 0. -1.
          1    1    1    2  502    0  0.30500808153E+03  0.14147314944E+02  0.83653242929E+03  0.89051478459E+03  0.00000000000E+00 0. -1.
         22    1    3    3    0    0 -0.32089977811E+02  0.29668897140E+02  0.30717426001E+03  0.31026768466E+03  0.00000000000E+00 0.  1.
         22    1    3    3    0    0 -0.20013548754E+03 -0.11193962397E+03  0.10532407454E+04  0.10779150062E+04  0.00000000000E+00 0.  1.
</event>
<event>
 7    1  0.4822463E-005  0.2281126E+03  0.7818608E-02  0.1175171E+00
          2   -1    0    0  502    0  0.00000000000E+00  0.00000000000E+00  0.33141328200E+03  0.33141328200E+03  0.00000000000E+00 0. -1.
          1   -1    0    0  501    0 -0.00000000000E+00 -0.00000000000E+00 -0.13532424209E+04  0.13532424209E+04  0.00000000000E+00 0. -1.
         25    2    1    2    0    0  0.26119392669E+03 -0.19752321787E+03 -0.40782590583E+03  0.53775877183E+03  0.12499935312E+03 0.  0.
          2    1    1    2  501    0 -0.19057608855E+03  0.87678732894E+02 -0.85090797286E+03  0.87638529427E+03  0.00000000000E+00 0. -1.
          1    1    1    2  502    0 -0.70617838140E+02  0.10984448497E+03  0.23690473975E+03  0.27051163683E+03  0.00000000000E+00 0. -1.
         22    1    3    3    0    0  0.62632970722E+02 -0.34583359406E+02 -0.23128201146E+02  0.75191831056E+02  0.00000000000E+00 0. -1.
         22    1    3    3    0    0  0.19856095597E+03 -0.16293985846E+03 -0.38469770468E+03  0.46256694078E+03  0.00000000000E+00 0. -1.
</event>
<event>
 7    1  0.4822463E-005  0.1302911E+03  0.7818608E-02  0.1227393E+00
          2   -1    0    0  502    0  0.00000000000E+00  0.00000000000E+00  0.18379024036E+03  0.18379024036E+03  0.00000000000E+00 0. -1.
          1   -1    0    0  501    0 -0.00000000000E+00 -0.00000000000E+00 -0.10293303284E+04  0.10293303284E+04  0.00000000000E+00 0. -1.
         25    2    1    2    0    0 -0.88320946863E+02  0.34056979080E+01 -0.14963202569E+03  0.21407132085E+03  0.12499839545E+03 0.  0.
          2    1    1    2  501    0  0.76807042019E+02  0.12587650236E+03 -0.81177655670E+03  0.82506084234E+03  0.00000000000E+00 0. -1.
          1    1    1    2  502    0  0.11513904844E+02 -0.12928220027E+03  0.11586849431E+03  0.17398840560E+03  0.00000000000E+00 0. -1.
         22    1    3    3    0    0 -0.52382783405E+02 -0.37383329113E+02 -0.14603949152E+03  0.15959010739E+03  0.00000000000E+00 0.  1.
         22    1    3    3    0    0 -0.35938163458E+02  0.40789027021E+02 -0.35925341638E+01  0.54481213457E+02  0.00000000000E+00 0.  1.
</event>
<event>
 7    1  0.4822463E-005  0.8300722E+03  0.7818608E-02  0.1083088E+00
          2   -1    0    0  502    0  0.00000000000E+00  0.00000000000E+00  0.18717235637E+04  0.18717235637E+04  0.00000000000E+00 0. -1.
          1   -1    0    0  501    0 -0.00000000000E+00 -0.00000000000E+00 -0.17361196324E+04  0.17361196324E+04  0.00000000000E+00 0. -1.
         25    2    1    2    0    0 -0.82910198067E+03 -0.70837469846E+01 -0.88678592914E+03  0.12204398819E+04  0.12499578953E+03 0.  0.
          2    1    1    2  501    0  0.82758019297E+03  0.11866132937E+03 -0.42351772608E+03  0.93719621809E+03  0.00000000000E+00 0. -1.
          1    1    1    2  502    0  0.15217876982E+01 -0.11157758238E+03  0.14459075866E+04  0.14502070961E+04  0.00000000000E+00 0. -1.
         22    1    3    3    0    0 -0.12174584853E+03  0.42466301617E+02 -0.12200582283E+03  0.17751298322E+03  0.00000000000E+00 0.  1.
         22    1    3    3    0    0 -0.70735613214E+03 -0.49550048601E+02 -0.76478010630E+03  0.10429268987E+04  0.00000000000E+00 0.  1.
</event>
<event>
 7    1  0.4822463E-005  0.6333896E+03  0.7818608E-02  0.1252161E+00
          2   -1    0    0  502    0  0.00000000000E+00  0.00000000000E+00  0.80383168946E+03  0.80383168946E+03  0.00000000000E+00 0. -1.
          1   -1    0    0  501    0 -0.00000000000E+00 -0.00000000000E+00 -0.14318084617E+04  0.14318084617E+04  0.00000000000E+00 0. -1.
         25    2    1    2    0    0 -0.62899069036E+03 -0.84879528340E+02  0.47900057318E+03  0.80492013700E+03  0.12498421884E+03 0.  0.
          2    1    1    2  501    0  0.62447682968E+03  0.10514229531E+03 -0.11884521851E+04  0.13466420494E+04  0.00000000000E+00 0. -1.
          1    1    1    2  502    0  0.45138606706E+01 -0.20262766973E+02  0.81474839630E+02  0.84077964749E+02  0.00000000000E+00 0. -1.
         22    1    3    3    0    0 -0.85656236079E+02 -0.50812356348E+02  0.47978610910E+02  0.11054787850E+03  0.00000000000E+00 0.  1.
         22    1    3    3    0    0 -0.54333445428E+03 -0.34067171992E+02  0.43102196227E+03  0.69437225850E+03  0.00000000000E+00 0.  1.
</event>
<event>
 7    1  0.4822463E-005  0.3483554E+03  0.7818608E-02  0.1129459E+00
          2   -1    0    0  502    0  0.00000000000E+00  0.00000000000E+00  0.96007612556E+03  0.96007612556E+03  0.00000000000E+00 0. -1.
          1   -1    0    0  501    0 -0.00000000000E+00 -0.00000000000E+00 -0.75382531995E+03  0.75382531995E+03  0.00000000000E+00 0. -1.
         25    2    1    2    0    0  0.31834338742E+03  0.93485641181E+02 -0.34610613812E+03  0.49547336862E+03  0.12498929052E+03 0.  0.
          2    1    1    2  501    0  0.30209015800E+02 -0.14352607575E+03 -0.27920455801E+03  0.31538469251E+03  0.00000000000E+00 0. -1.
          1    1    1    2  502    0 -0.34855240322E+03  0.50040434573E+02  0.83156150175E+03  0.90304338438E+03  0.00000000000E+00 0. -1.
         22    1    3    3    0    0  0.15805780732E+03 -0.17096468451E+02 -0.17258249597E+03  0.23464713423E+03  0.00000000000E+00 0. -1.
         22    1    3    3    0    0  0.16028558010E+03  0.11058210963E+03 -0.17352364215E+03  0.26082623438E+03  0.00000000000E+00 0. -1.
</event>
<event>
 7    1  0.4822463E-005  0.2483038E+03  0.7818608E-02  0.1290652E+00
          2   -1    0    0  502    0  0.00000000000E+00  0.00000000000E+00  0.15463547296E+04  0.15463547296E+04  0.00000000000E+00 0. -1.
          1   -1    0    0  501    0 -0.00000000000E+00 -0.00000000000E+00 -0.35139955045E+03  0.35139955045E+03  0.00000000000E+00 0. -1.
         25    2    1    2    0    0 -0.22732767336E+03 -0.13700404522E+03  0.85926938743E+03  0.90797848646E+03  0.12503228477E+03 0.  0.
          2    1    1    2  501    0  0.19451054548E+03  0.15303898714E+03 -0.27960093752E+03  0.37340590267E+03  0.00000000000E+00 0. -1.
          1    1    1    2  502    0  0.32817127885E+02 -0.16034941922E+02  0.61528672920E+03  0.61636989087E+03  0.00000000000E+00 0. -1.
         22    1    3    3    0    0 -0.16440550115E+03 -0.90323458098E+02  0.39662333317E+03  0.43874544364E+03  0.00000000000E+00 0.  1.
         22    1    3    3    0    0 -0.62922172208E+02 -0.46680587119E+02  0.46264605425E+03  0.46923304283E+03  0.00000000000E+00 0.  1.
</event>
<event>
 7    1  0.4822463E-005  0.3257092E+03  0.7818608E-02  0.1135651E+00
          2   -1    0    0  502    0  0.00000000000E+00  0.00000000000E+00  0.18869405215E+04  0.18869405215E+04  0.00000000000E+00 0. -1.
          1   -1    0    0  501    0 -0.00000000000E+00 -0.00000000000E+00 -0.25680530510E+03  0.25680530510E+03  0.00000000000E+00 0. -1.
         25    2    1    2    0    0 -0.37389393079E+03 -0.77474143489E+02  0.21322027403E+03  0.45484740233E+03  0.12499743899E+03 0.  0.
          2    1    1    2  501    0  0.25658307487E+03  0.16343572021E+03  0.42918532286E+02  0.30722647895E+03  0.00000000000E+00 0. -1.
          1    1    1    2  502    0  0.11731085592E+03 -0.85961576723E+02  0.13739964101E+04  0.13816719453E+04  0.00000000000E+00 0. -1.
         22    1    3    3    0    0 -0.20124677645E+03 -0.10296569136E+03  0.10283873504E+03  0.24835056685E+03  0.00000000000E+00 0. -1.
         22    1    3    3    0    0 -0.17264715434E+03  0.25491547866E+02  0.11038153899E+03  0.20649683548E+03  0.00000000000E+00 0. -1.
</event>
<event>
 7    1  0.4822463E-005  0.2012285E+03  0.7818608E-02  0.1237441E+00
          2   -1    0    0  502    0  0.00000000000E+00  0.00000000000E+00  0.18433270922E+03  0.18433270922E+03  0.00000000000E+00 0. -1.
          1   -1    0    0  501    0 -0.00000000000E+00 -0.00000000000E+00 -0.15136629919E+04  0.15136629919E+04  0.00000000000E+00 0. -1.
         25    2    1    2    0    0  0.19536437715E+03  0.37063209769E+02 -0.48219408609E+03  0.53635497237E+03  0.12499839337E+03 0.  0.
          2    1    1    2  501    0  0.41025036250E+01 -0.75678100832E+02 -0.93658857413E+03  0.93965002138E+03  0.00000000000E+00 0. -1.
          1    1    1    2  502    0 -0.19946688077E+03  0.38614891062E+02  0.89452377502E+02  0.22199070741E+03  0.00000000000E+00 0. -1.
         22    1    3    3    0    0  0.16479802953E+03  0.33474550219E+02 -0.24492345571E+03  0.29709667653E+03  0.00000000000E+00 0. -1.
         22    1    3    3    0    0  0.30566347615E+02  0.35886595503E+01 -0.23727063038E+03  0.23925829584E+03  0.00000000000E+00 0. -1.
</event>
<event>
 7    1  0.1608505E-004  0.8417559E+02  0.7818608E-02  0.1401328E+00
          2   -1    0    0  502    0  0.00000000000E+00  0.00000000000E+00  0.18992937940E+04  0.18992937940E+04  0.00000000000E+00 0. -1.
          1   -1    0    0  501    0 -0.00000000000E+00 -0.00000000000E+00 -0.23332847695E+04  0.23332847695E+04  0.00000000000E+00 0. -1.
         25    2    1    2    0    0  0.11327836116E+02 -0.41580837022E+02 -0.48272193113E+03  0.50050266292E+03  0.12500066764E+03 0.  0.
          2    1    1    2  501    0  0.25666805774E+01 -0.41520043261E+02 -0.18404985307E+04  0.18409685884E+04  0.00000000000E+00 0. -1.
          1    1    1    2  502    0 -0.13894516694E+02  0.83100880284E+02  0.18892294864E+04  0.18911073122E+04  0.00000000000E+00 0. -1.
         22    1    3    3    0    0 -0.41052654027E+02  0.21497663407E+02 -0.23621280330E+03  0.24071551337E+03  0.00000000000E+00 0. -1.
         22    1    3    3    0    0  0.52380490144E+02 -0.63078500430E+02 -0.24650912783E+03  0.25978714955E+03  0.00000000000E+00 0. -1.
</event>
<event>
 7    1  0.4822463E-005  0.9085881E+02  0.7818608E-02  0.1484564E+00
          2   -1    0    0  502    0  0.00000000000E+00  0.00000000000E+00  0.19886829803E+04  0.19886829803E+04  0.00000000000E+00 0. -1.
          1   -1    0    0  501    0 -0.00000000000E+00 -0.00000000000E+00 -0.14214677496E+04  0.14214677496E+04  0.00000000000E+00 0. -1.
         25    2    1    2    0    0  0.73218529820E+02  0.14211785143E+02  0.21550116236E+03  0.26005462204E+03  0.12499891008E+03 0.  0.
          2    1    1    2  501    0  0.18435103755E+02 -0.94883270993E+01 -0.13979114711E+04  0.13980652211E+04  0.00000000000E+00 0. -1.
          1    1    1    2  502    0 -0.91653633575E+02 -0.47234580437E+01  0.17496255395E+04  0.17520308867E+04  0.00000000000E+00 0. -1.
         22    1    3    3    0    0  0.46383213148E+02 -0.43918561802E+02  0.16972723977E+03  0.18134932713E+03  0.00000000000E+00 0.  1.
         22    1    3    3    0    0  0.26835316673E+02  0.58130346945E+02  0.45773922590E+02  0.78705294905E+02  0.00000000000E+00 0.  1.
</event>
<event>
 7    1  0.4822463E-005  0.4997322E+03  0.7818608E-02  0.1121505E+00
          2   -1    0    0  502    0  0.00000000000E+00  0.00000000000E+00  0.76788326712E+03  0.76788326712E+03  0.00000000000E+00 0. -1.
          1   -1    0    0  501    0 -0.00000000000E+00 -0.00000000000E+00 -0.97230028886E+03  0.97230028886E+03  0.00000000000E+00 0. -1.
         25    2    1    2    0    0 -0.37650135262E+03 -0.46452801186E+03  0.42454061720E+03  0.74390790707E+03  0.12499878487E+03 0.  0.
          2    1    1    2  501    0  0.29189063944E+03  0.38989580154E+03 -0.70740525562E+03  0.85886033621E+03  0.00000000000E+00 0. -1.
          1    1    1    2  502    0  0.84610713183E+02  0.74632210319E+02  0.78447616677E+02  0.13741531270E+03  0.00000000000E+00 0. -1.
         22    1    3    3    0    0 -0.85701816965E+01  0.50134889324E+01  0.22371348056E+02  0.24475708354E+02  0.00000000000E+00 0. -1.
         22    1    3    3    0    0 -0.36793117093E+03 -0.46954150079E+03  0.40216926914E+03  0.71943219871E+03  0.00000000000E+00 0. -1.
</event>
<event>
 7    1  0.4822463E-005  0.2339654E+03  0.7818608E-02  0.1189002E+00
          2   -1    0    0  502    0  0.00000000000E+00  0.00000000000E+00  0.28367593185E+03  0.28367593185E+03  0.00000000000E+00 0. -1.
          1   -1    0    0  501    0 -0.00000000000E+00 -0.00000000000E+00 -0.11568078510E+04  0.11568078510E+04  0.00000000000E+00 0. -1.
         25    2    1    2    0    0 -0.18111171301E+03 -0.18371938210E+03  0.13214646433E+02  0.28697441637E+03  0.12500169928E+03 0.  0.
          2    1    1    2  501    0 -0.30935102724E+02  0.10456886150E+03 -0.91845473864E+03  0.92490579753E+03  0.00000000000E+00 0. -1.
          1    1    1    2  502    0  0.21204681573E+03  0.79150520597E+02  0.32108173020E+02  0.22860356898E+03  0.00000000000E+00 0. -1.
         22    1    3    3    0    0  0.27854485800E+01  0.15004254643E+02  0.51200900515E+01  0.16096636397E+02  0.00000000000E+00 0.  1.
         22    1    3    3    0    0 -0.18389716159E+03 -0.19872363674E+03  0.80945563815E+01  0.27087777998E+03  0.00000000000E+00 0.  1.
</event>
<event>
 7    1  0.4822463E-005  0.3091193E+03  0.7818608E-02  0.1253988E+00
          2   -1    0    0  502    0  0.00000000000E+00  0.00000000000E+00  0.33149917872E+03  0.33149917872E+03  0.00000000000E+00 0. -1.
          1   -1    0    0  501    0 -0.00000000000E+00 -0.00000000000E+00 -0.20699972235E+04  0.20699972235E+04  0.00000000000E+00 0. -1.
         25    2    1    2    0    0  0.21960509675E+03 -0.25686103029E+03 -0.13682226249E+04  0.14148717274E+04  0.12499946551E+03 0.  0.
          2    1    1    2  501    0 -0.41306287774E+02  0.62126390397E+01 -0.60078939881E+03  0.60223974298E+03  0.00000000000E+00 0. -1.
          1    1    1    2  502    0 -0.17829880898E+03  0.25064839125E+03  0.23051397893E+03  0.38438493181E+03  0.00000000000E+00 0. -1.
         22    1    3    3    0    0  0.34159024220E+02 -0.10371657074E+02 -0.52585643743E+02  0.63558320729E+02  0.00000000000E+00 0. -1.
         22    1    3    3    0    0  0.18544607253E+03 -0.24648937322E+03 -0.13156369811E+04  0.13513134067E+04  0.00000000000E+00 0. -1.
</event>
<event>
 7    1  0.4822463E-005  0.2772160E+03  0.7818608E-02  0.1119064E+00
          2   -1    0    0  502    0  0.00000000000E+00  0.00000000000E+00  0.26498390853E+03  0.26498390853E+03  0.00000000000E+00 0. -1.
          1   -1    0    0  501    0 -0.00000000000E+00 -0.00000000000E+00 -0.12985442600E+04  0.12985442600E+04  0.00000000000E+00 0. -1.
         25    2    1    2    0    0  0.48896760746E+02 -0.43148610128E+03 -0.29044349678E+03  0.53717308715E+03  0.12500540757E+03 0.  0.
          2    1    1    2  501    0 -0.75295515163E+02  0.19569826212E+03 -0.76009541070E+03  0.78848732252E+03  0.00000000000E+00 0. -1.
          1    1    1    2  502    0  0.26398754418E+02  0.23578783916E+03  0.16978556030E+02  0.23786775884E+03  0.00000000000E+00 0. -1.
         22    1    3    3    0    0  0.71980173531E+02 -0.38620255964E+03 -0.21985285644E+03  0.45018756196E+03  0.00000000000E+00 0. -1.
         22    1    3    3    0    0 -0.23083412786E+02 -0.45283541644E+02 -0.70590640336E+02  0.86985525191E+02  0.00000000000E+00 0. -1.
</event>
<event>
 7    1  0.4822463E-005  0.2355121E+03  0.7818608E-02  0.1175778E+00
          2   -1    0    0  502    0  0.00000000000E+00  0.00000000000E+00  0.32313285679E+04  0.32313285679E+04  0.00000000000E+00 0. -1.
          1   -1    0    0  501    0 -0.00000000000E+00 -0.00000000000E+00 -0.33296028986E+04  0.33296028986E+04  0.00000000000E+00 0. -1.
         25    2    1    2    0    0 -0.31406641011E+03  0.10673310237E+03 -0.22970474592E+02  0.35522116302E+03  0.12499906743E+03 0.  0.
          2    1    1    2  501    0  0.23308498311E+03 -0.10705799246E+02 -0.31348825611E+04  0.31435540230E+04  0.00000000000E+00 0. -1.
          1    1    1    2  502    0  0.80981427000E+02 -0.96027303125E+02  0.30595787050E+04  0.30621562805E+04  0.00000000000E+00 0. -1.
         22    1    3    3    0    0 -0.16335063391E+03  0.84505818357E+01 -0.54785962180E+02  0.17250027125E+03  0.00000000000E+00 0.  1.
         22    1    3    3    0    0 -0.15071577620E+03  0.98282520535E+02  0.31815487588E+02  0.18272089177E+03  0.00000000000E+00 0.  1.
</event>
<event>
 7    1  0.4822463E-005  0.4886955E+03  0.7818608E-02  0.1162243E+00
          2   -1    0    0  502    0  0.00000000000E+00  0.00000000000E+00  0.94065634897E+03  0.94065634897E+03  0.00000000000E+00 0. -1.
          1   -1    0    0  501    0 -0.00000000000E+00 -0.00000000000E+00 -0.22653766806E+04  0.22653766806E+04  0.00000000000E+00 0. -1.
         25    2    1    2    0    0 -0.34874994886E+03  0.37595853272E+03 -0.17887779908E+04  0.18650262693E+04  0.12499975790E+03 0.  0.
          2    1    1    2  501    0  0.67021885662E+02  0.22478748017E+02 -0.36891275939E+03  0.37562461489E+03  0.00000000000E+00 0. -1.
          1    1    1    2  502    0  0.28172806320E+03 -0.39843728074E+03  0.83297041863E+03  0.96538214536E+03  0.00000000000E+00 0. -1.
         22    1    3    3    0    0 -0.20723815487E+03  0.17362235142E+03 -0.74795492907E+03  0.79531688632E+03  0.00000000000E+00 0. -1.
         22    1    3    3    0    0 -0.14151179399E+03  0.20233618130E+03 -0.10408230618E+04  0.10697093830E+04  0.00000000000E+00 0. -1.
</event>
<event>
 7    1  0.4822463E-005  0.4671193E+03  0.7818608E-02  0.1066672E+00
          2   -1    0    0  502    0  0.00000000000E+00  0.00000000000E+00  0.22503436699E+04  0.22503436699E+04  0.00000000000E+00 0. -1.
          1   -1    0    0  501    0 -0.00000000000E+00 -0.00000000000E+00 -0.14417290005E+04  0.14417290005E+04  0.00000000000E+00 0. -1.
         25    2    1    2    0    0  0.32985767995E+03  0.53722302428E+03  0.49237558992E+03  0.80961300076E+03  0.12499929042E+03 0.  0.
          2    1    1    2  501    0  0.17076837407E+01 -0.24789225969E+03 -0.12403414554E+04  0.12648716989E+04  0.00000000000E+00 0. -1.
          1    1    1    2  502    0 -0.33156536369E+03 -0.28933076459E+03  0.15565805348E+04  0.16175879708E+04  0.00000000000E+00 0. -1.
         22    1    3    3    0    0  0.30518395057E+03  0.46969220043E+03  0.47784220545E+03  0.73626162479E+03  0.00000000000E+00 0.  1.
         22    1    3    3    0    0  0.24673729380E+02  0.67530823851E+02  0.14533384462E+02  0.73351375962E+02  0.00000000000E+00 0.  1.
</event>
<event>
 7    1  0.4822463E-005  0.9781198E+02  0.7818608E-02  0.1324454E+00
          2   -1    0    0  502    0  0.00000000000E+00  0.00000000000E+00  0.22178194746E+03  0.22178194746E+03  0.00000000000E+00 0. -1.
          1   -1    0    0  501    0 -0.00000000000E+00 -0.00000000000E+00 -0.33501596253E+04  0.33501596253E+04  0.00000000000E+00 0. -1.
         25    2    1    2    0    0 -0.16255570260E+03 -0.31296749893E+01 -0.26153944092E+04  0.26234237822E+04  0.12502109489E+03 0.  0.
          2    1    1    2  501    0  0.66600467175E+02 -0.14429878873E+02 -0.71813177736E+03  0.72135781224E+03  0.00000000000E+00 0. -1.
          1    1    1    2  502    0  0.95955235425E+02  0.17559553862E+02  0.20514850868E+03  0.22715997832E+03  0.00000000000E+00 0. -1.
         22    1    3    3    0    0 -0.71959690221E+02 -0.58869003722E+02 -0.91678472267E+03  0.92148683351E+03  0.00000000000E+00 0.  1.
         22    1    3    3    0    0 -0.90596012379E+02  0.55739328732E+02 -0.16986096865E+04  0.17019369487E+04  0.00000000000E+00 0.  1.
</event>
<event>
 7    1  0.4822463E-005  0.1898193E+03  0.7818608E-02  0.1171895E+00
          2   -1    0    0  502    0  0.00000000000E+00  0.00000000000E+00  0.98400614530E+03  0.98400614530E+03  0.00000000000E+00 0. -1.
          1   -1    0    0  501    0 -0.00000000000E+00 -0.00000000000E+00 -0.77660986295E+03  0.77660986295E+03  0.00000000000E+00 0. -1.
         25    2    1    2    0    0  0.30930943164E+03  0.80843317475E+01 -0.24430164691E+02  0.33460435949E+03  0.12500225407E+03 0.  0.
          2    1    1    2  501    0 -0.14049217280E+03 -0.82416220739E+02 -0.57538383166E+03  0.59799417873E+03  0.00000000000E+00 0. -1.
          1    1    1    2  502    0 -0.16881725884E+03  0.74331888991E+02  0.80721027871E+03  0.82801747002E+03  0.00000000000E+00 0. -1.
         22    1    3    3    0    0  0.24103018611E+03 -0.24200448747E+02 -0.62285398057E+02  0.25012133685E+03  0.00000000000E+00 0.  1.
         22    1    3    3    0    0  0.68279245532E+02  0.32284780495E+02  0.37855233365E+02  0.84483022644E+02  0.00000000000E+00 0.  1.
</event>
<event>
 7    1  0.4822463E-005  0.1334949E+04  0.7818608E-02  0.1041473E+00
          2   -1    0    0  502    0  0.00000000000E+00  0.00000000000E+00  0.18476324597E+04  0.18476324597E+04  0.00000000000E+00 0. -1.
          1   -1    0    0  501    0 -0.00000000000E+00 -0.00000000000E+00 -0.44482081372E+04  0.44482081372E+04  0.00000000000E+00 0. -1.
         25    2    1    2    0    0 -0.49190311210E+03  0.13226201255E+04  0.16583365174E+03  0.14263304833E+04  0.12500071781E+03 0.  0.
          2    1    1    2  501    0  0.39442856764E+02 -0.11747821025E+03 -0.34224548451E+04  0.34246976560E+04  0.00000000000E+00 0. -1.
          1    1    1    2  502    0  0.45246025534E+03 -0.12051419153E+04  0.65604551578E+03  0.14448124575E+04  0.00000000000E+00 0. -1.
         22    1    3    3    0    0 -0.28862393856E+03  0.83872962526E+03  0.47324538171E+02  0.88826278437E+03  0.00000000000E+00 0. -1.
         22    1    3    3    0    0 -0.20327917354E+03  0.48389050025E+03  0.11850911357E+03  0.53806769893E+03  0.00000000000E+00 0. -1.
</event>
<event>
 7    1  0.4822463E-005  0.3535558E+03  0.7818608E-02  0.1077854E+00
          2   -1    0    0  502    0  0.00000000000E+00  0.00000000000E+00  0.65248197472E+03  0.65248197472E+03  0.00000000000E+00 0. -1.
          1   -1    0    0  501    0 -0.00000000000E+00 -0.00000000000E+00 -0.10846491221E+04  0.10846491221E+04  0.00000000000E+00 0. -1.
         25    2    1    2    0    0 -0.69190883888E+02  0.54543512180E+03 -0.28098586376E+03  0.62997229441E+03  0.12500074232E+03 0.  0.
          2    1    1    2  501    0  0.14777909385E+03 -0.27554066154E+03 -0.54201552279E+03  0.62573328479E+03  0.00000000000E+00 0. -1.
          1    1    1    2  502    0 -0.78588209959E+02 -0.26989446026E+03  0.39083423923E+03  0.48142551758E+03  0.00000000000E+00 0. -1.
         22    1    3    3    0    0 -0.47970148715E+02  0.13280756530E+03 -0.12419039519E+03  0.18804850125E+03  0.00000000000E+00 0. -1.
         22    1    3    3    0    0 -0.21220735173E+02  0.41262755651E+03 -0.15679546858E+03  0.44192379316E+03  0.00000000000E+00 0. -1.
</event>
<event>
 7    1  0.4822463E-005  0.9739010E+03  0.7818608E-02  0.1190287E+00
          2   -1    0    0  502    0  0.00000000000E+00  0.00000000000E+00  0.38993690581E+04  0.38993690581E+04  0.00000000000E+00 0. -1.
          1   -1    0    0  501    0 -0.00000000000E+00 -0.00000000000E+00 -0.18272081778E+04  0.18272081778E+04  0.00000000000E+00 0. -1.
         25    2    1    2    0    0 -0.97518664153E+03  0.17827152792E+03  0.26569801645E+04  0.28386508701E+04  0.12500177610E+03 0.  0.
          2    1    1    2  501    0  0.96026259785E+03 -0.15719184808E+03 -0.15998750585E+04  0.18725420520E+04  0.00000000000E+00 0. -1.
          1    1    1    2  502    0  0.14924043675E+02 -0.21079679838E+02  0.10150557742E+04  0.10153843138E+04  0.00000000000E+00 0. -1.
         22    1    3    3    0    0 -0.78180524700E+03  0.91602362107E+02  0.21118534647E+04  0.22537824858E+04  0.00000000000E+00 0.  1.
         22    1    3    3    0    0 -0.19338139452E+03  0.86669165813E+02  0.54512669982E+03  0.58486838426E+03  0.00000000000E+00 0.  1.
</event>
<event>
 7    1  0.4822463E-005  0.2505148E+03  0.7818608E-02  0.1209492E+00
          2   -1    0    0  502    0  0.00000000000E+00  0.00000000000E+00  0.25551126560E+04  0.25551126560E+04  0.00000000000E+00 0. -1.
          1   -1    0    0  501    0 -0.00000000000E+00 -0.00000000000E+00 -0.31058002905E+03  0.31058002905E+03  0.00000000000E+00 0. -1.
         25    2    1    2    0    0  0.24839917815E+03 -0.13753220702E+01  0.97066927783E+03  0.10097175933E+04  0.12500691228E+03 0.  0.
          2    1    1    2  501    0 -0.58724492717E+01 -0.81291044260E+02 -0.27460797310E+03  0.28644765391E+03  0.00000000000E+00 0. -1.
          1    1    1    2  502    0 -0.24252672888E+03  0.82666366330E+02  0.15484713222E+04  0.15695274378E+04  0.00000000000E+00 0. -1.
         22    1    3    3    0    0  0.10421801731E+03  0.60899760963E+02  0.39789952099E+03  0.41580548916E+03  0.00000000000E+00 0. -1.
         22    1    3    3    0    0  0.14418116085E+03 -0.62275083033E+02  0.57276975684E+03  0.59391210416E+03  0.00000000000E+00 0. -1.
</event>
<event>
 7    1  0.4822463E-005  0.1216613E+03  0.7818608E-02  0.1241909E+00
          2   -1    0    0  502    0  0.00000000000E+00  0.00000000000E+00  0.30033781250E+03  0.30033781250E+03  0.00000000000E+00 0. -1.
          1   -1    0    0  501    0 -0.00000000000E+00 -0.00000000000E+00 -0.23911414059E+04  0.23911414059E+04  0.00000000000E+00 0. -1.
         25    2    1    2    0    0  0.24010843965E+01  0.73554124471E+01 -0.82220987739E+02  0.14981829638E+03  0.12500145522E+03 0.  0.
          2    1    1    2  501    0  0.78043127193E+02 -0.98625312864E+02 -0.22593982025E+04  0.22628959144E+04  0.00000000000E+00 0. -1.
          1    1    1    2  502    0 -0.80444211590E+02  0.91269900417E+02  0.25081559679E+03  0.27876500765E+03  0.00000000000E+00 0. -1.
         22    1    3    3    0    0 -0.25721636028E+02 -0.17912420477E+02 -0.10231139125E+03  0.10700503795E+03  0.00000000000E+00 0. -1.
         22    1    3    3    0    0  0.28122720425E+02  0.25267832925E+02  0.20090403508E+02  0.42813258436E+02  0.00000000000E+00 0. -1.
</event>
<event>
 7    1  0.4822463E-005  0.2445694E+03  0.7818608E-02  0.1191631E+00
          2   -1    0    0  502    0  0.00000000000E+00  0.00000000000E+00  0.19100365123E+03  0.19100365123E+03  0.00000000000E+00 0. -1.
          1   -1    0    0  501    0 -0.00000000000E+00 -0.00000000000E+00 -0.75774559277E+03  0.75774559277E+03  0.00000000000E+00 0. -1.
         25    2    1    2    0    0  0.28076233019E+03  0.86704051341E+02 -0.24295119180E+03  0.40124269040E+03  0.12500134572E+03 0.  0.
          2    1    1    2  501    0 -0.52058529957E+02 -0.86941436328E+02 -0.30108204858E+03  0.31767798770E+03  0.00000000000E+00 0. -1.
          1    1    1    2  502    0 -0.22870380023E+03  0.23738498685E+00 -0.22708701157E+02  0.22982856589E+03  0.00000000000E+00 0. -1.
         22    1    3    3    0    0 -0.12372977121E+02  0.81077689625E+01 -0.18946835420E+02  0.24037659055E+02  0.00000000000E+00 0. -1.
         22    1    3    3    0    0  0.29313530731E+03  0.78596282379E+02 -0.22400435638E+03  0.37720503135E+03  0.00000000000E+00 0. -1.
</event>
<event>
 7    1  0.4822463E-005  0.2529455E+03  0.7818608E-02  0.1212213E+00
          2   -1    0    0  502    0  0.00000000000E+00  0.00000000000E+00  0.44249182725E+03  0.44249182725E+03  0.00000000000E+00 0. -1.
          1   -1    0    0  501    0 -0.00000000000E+00 -0.00000000000E+00 -0.14527953323E+04  0.14527953323E+04  0.00000000000E+00 0. -1.
         25    2    1    2    0    0 -0.26794446003E+03  0.17733197381E+03 -0.10662603811E+03  0.36087991430E+03  0.12499735177E+03 0.  0.
          2    1    1    2  501    0  0.21578507689E+03 -0.11878463334E+03 -0.12014724751E+04  0.12264620242E+04  0.00000000000E+00 0. -1.
          1    1    1    2  502    0  0.52159383138E+02 -0.58547340472E+02  0.29779500810E+03  0.30794522106E+03  0.00000000000E+00 0. -1.
         22    1    3    3    0    0 -0.48871720890E+02  0.10180519905E+03 -0.39300774667E+02  0.11957129482E+03  0.00000000000E+00 0.  1.
         22    1    3    3    0    0 -0.21907273913E+03  0.75526774765E+02 -0.67325263445E+02  0.24130861948E+03  0.00000000000E+00 0.  1.
</event>
<event>
 7    1  0.4822463E-005  0.2542705E+03  0.7818608E-02  0.1313054E+00
          2   -1    0    0  502    0  0.00000000000E+00  0.00000000000E+00  0.13873686363E+03  0.13873686363E+03  0.00000000000E+00 0. -1.
          1   -1    0    0  501    0 -0.00000000000E+00 -0.00000000000E+00 -0.87894552439E+03  0.87894552439E+03  0.00000000000E+00 0. -1.
         25    2    1    2    0    0  0.26282511856E+03  0.12407191052E+02 -0.64732548983E+03  0.70984925599E+03  0.12499878040E+03 0.  0.
          2    1    1    2  501    0 -0.23387664054E+03 -0.14587162101E+02 -0.12413328796E+03  0.26517945145E+03  0.00000000000E+00 0. -1.
          1    1    1    2  502    0 -0.28948478016E+02  0.21799710492E+01  0.31250117025E+02  0.42653680583E+02  0.00000000000E+00 0. -1.
         22    1    3    3    0    0  0.95776027092E+02  0.10661383539E+02 -0.39961360448E+03  0.41106902747E+03  0.00000000000E+00 0. -1.
         22    1    3    3    0    0  0.16704909147E+03  0.17458075126E+01 -0.24771188536E+03  0.29878022851E+03  0.00000000000E+00 0. -1.
</event>
<event>
 7    1  0.4822463E-005  0.2341353E+03  0.7818608E-02  0.1129480E+00
          2   -1    0    0  502    0  0.00000000000E+00  0.00000000000E+00  0.17420960398E+04  0.17420960398E+04  0.00000000000E+00 0. -1.
          1   -1    0    0  501    0 -0.00000000000E+00 -0.00000000000E+00 -0.13320114061E+03  0.13320114061E+03  0.00000000000E+00 0. -1.
         25    2    1    2    0    0  0.24812443482E+03 -0.32080082213E+02  0.33022612446E+03  0.43274416624E+03  0.12499341308E+03 0.  0.
          2    1    1    2  501    0 -0.11959438695E+03 -0.18246507246E+03  0.10424015130E+03  0.24178984511E+03  0.00000000000E+00 0. -1.
          1    1    1    2  502    0 -0.12853004788E+03  0.21454515467E+03  0.11744286234E+04  0.12007631691E+04  0.00000000000E+00 0. -1.
         22    1    3    3    0    0  0.25463110954E+03 -0.45613999233E+02  0.32772899647E+03  0.41752117790E+03  0.00000000000E+00 0.  1.
         22    1    3    3    0    0 -0.65066747174E+01  0.13533917020E+02  0.24971279880E+01  0.15222988339E+02  0.00000000000E+00 0.  1.
</event>
<event>
 7    1  0.4822463E-005  0.5313638E+03  0.7818608E-02  0.1187616E+00
          2   -1    0    0  502    0  0.00000000000E+00  0.00000000000E+00  0.99093131285E+03  0.99093131285E+03  0.00000000000E+00 0. -1.
          1   -1    0    0  501    0 -0.00000000000E+00 -0.00000000000E+00 -0.10424112192E+04  0.10424112192E+04  0.00000000000E+00 0. -1.
         25    2    1    2    0    0 -0.48688257828E+03 -0.24949295060E+03 -0.64255457696E+03  0.85311416739E+03  0.12500408315E+03 0.  0.
          2    1    1    2  501    0  0.44963359056E+03  0.21803053866E+03 -0.81136036682E+02  0.50625165481E+03  0.00000000000E+00 0. -1.
          1    1    1    2  502    0  0.37248987716E+02  0.31462411937E+02  0.67221070728E+03  0.67397670986E+03  0.00000000000E+00 0. -1.
         22    1    3    3    0    0 -0.33542772270E+03 -0.11009257182E+03 -0.44249775692E+03  0.56607101710E+03  0.00000000000E+00 0.  1.
         22    1    3    3    0    0 -0.15145485558E+03 -0.13940037879E+03 -0.20005682004E+03  0.28704315029E+03  0.00000000000E+00 0.  1.
</event>
<event>
 7    1  0.4822463E-005  0.2025037E+03  0.7818608E-02  0.1206890E+00
          2   -1    0    0  502    0  0.00000000000E+00  0.00000000000E+00  0.25487716149E+03  0.25487716149E+03  0.00000000000E+00 0. -1.
          1   -1    0    0  501    0 -0.00000000000E+00 -0.00000000000E+00 -0.11037088528E+04  0.11037088528E+04  0.00000000000E+00 0. -1.
         25    2    1    2    0    0  0.10188176110E+02 -0.29222603226E+03 -0.26870308297E+03  0.41632174503E+03  0.12499038252E+03 0.  0.
          2    1    1    2  501    0 -0.12177318226E+02  0.10295696502E+03 -0.70689449794E+03  0.71445661515E+03  0.00000000000E+00 0. -1.
          1    1    1    2  502    0  0.19891421160E+01  0.18926906724E+03  0.12676588960E+03  0.22780765410E+03  0.00000000000E+00 0. -1.
         22    1    3    3    0    0 -0.53672719191E+02 -0.18162631129E+03 -0.17563968586E+03  0.25829861979E+03  0.00000000000E+00 0. -1.
         22    1    3    3    0    0  0.63860895301E+02 -0.11059972096E+03 -0.93063397113E+02  0.15802312523E+03  0.00000000000E+00 0. -1.
</event>
<event>
 7    1  0.4822463E-005  0.8297495E+02  0.7818608E-02  0.1375305E+00
          2   -1    0    0  502    0  0.00000000000E+00  0.00000000000E+00  0.21808339614E+04  0.21808339614E+04  0.00000000000E+00 0. -1.
          1   -1    0    0  501    0 -0.00000000000E+00 -0.00000000000E+00 -0.26949042741E+02  0.26949042741E+02  0.00000000000E+00 0. -1.
         25    2    1    2    0    0 -0.58884962527E+02 -0.42097404287E+02  0.44858601425E+03  0.47126881575E+03  0.12500101703E+03 0.  0.
          2    1    1    2  501    0  0.89183359711E+02 -0.21797069951E+00  0.11579329709E+03  0.14615678845E+03  0.00000000000E+00 0. -1.
          1    1    1    2  502    0 -0.30298397184E+02  0.42315374987E+02  0.15895056073E+04  0.15903573999E+04  0.00000000000E+00 0. -1.
         22    1    3    3    0    0 -0.23919369784E+02  0.42626749470E+02  0.21169331337E+03  0.21726305473E+03  0.00000000000E+00 0.  1.
         22    1    3    3    0    0 -0.34965592742E+02 -0.84724153757E+02  0.23689270088E+03  0.25400576103E+03  0.00000000000E+00 0.  1.
</event>
<event>
 7    1  0.4822463E-005  0.3700911E+03  0.7818608E-02  0.1131999E+00
          2   -1    0    0  502    0  0.00000000000E+00  0.00000000000E+00  0.45976384890E+03  0.45976384890E+03  0.00000000000E+00 0. -1.
          1   -1    0    0  501    0 -0.00000000000E+00 -0.00000000000E+00 -0.63560213058E+03  0.63560213058E+03  0.00000000000E+00 0. -1.
         25    2    1    2    0    0 -0.20141857029E+03 -0.36027299591E+03 -0.51292729131E+02  0.43430637141E+03  0.12500003258E+03 0.  0.
          2    1    1    2  501    0  0.67954142727E+02  0.35047209293E+03 -0.28162050281E+03  0.45470711567E+03  0.00000000000E+00 0. -1.
          1    1    1    2  502    0  0.13346442756E+03  0.98009029809E+01  0.15707495025E+03  0.20635249240E+03  0.00000000000E+00 0. -1.
         22    1    3    3    0    0 -0.18085062468E+03 -0.33131200980E+03 -0.69915688397E+01  0.37752281828E+03  0.00000000000E+00 0. -1.
         22    1    3    3    0    0 -0.20567945606E+02 -0.28960986108E+02 -0.44301160292E+02  0.56783553129E+02  0.00000000000E+00 0. -1.
</event>
<event>
 7    1  0.4822463E-005  0.1726593E+04  0.7818608E-02  0.1156694E+00
          2   -1    0    0  502    0  0.00000000000E+00  0.00000000000E+00  0.27078902769E+04  0.27078902769E+04  0.00000000000E+00 0. -1.
          1   -1    0    0  501    0 -0.00000000000E+00 -0.00000000000E+00 -0.25327857715E+04  0.25327857715E+04  0.00000000000E+00 0. -1.
         25    2    1    2    0    0 -0.15439498591E+04 -0.73846396775E+03 -0.49180185077E+03  0.17851065650E+04  0.12500475460E+03 0.  0.
          2    1    1    2  501    0 -0.14719075856E+02 -0.15457628411E+02 -0.10306037266E+04  0.10308247333E+04  0.00000000000E+00 0. -1.
          1    1    1    2  502    0  0.15586689350E+04  0.75392159616E+03  0.16975100828E+04  0.24247447501E+04  0.00000000000E+00 0. -1.
         22    1    3    3    0    0 -0.10607283858E+04 -0.55252649478E+03 -0.30092565541E+03  0.12332828086E+04  0.00000000000E+00 0. -1.
         22    1    3    3    0    0 -0.48322147333E+03 -0.18593747297E+03 -0.19087619536E+03  0.55182375638E+03  0.00000000000E+00 0. -1.
</event>
<event>
 7    1  0.4822463E-005  0.7329216E+03  0.7818608E-02  0.1129048E+00
          2   -1    0    0  502    0  0.00000000000E+00  0.00000000000E+00  0.16711540060E+04  0.16711540060E+04  0.00000000000E+00 0. -1.
          1   -1    0    0  501    0 -0.00000000000E+00 -0.00000000000E+00 -0.81799754188E+03  0.81799754188E+03  0.00000000000E+00 0. -1.
         25    2    1    2    0    0 -0.66276561090E+03 -0.25618799014E+03  0.31724083394E+03  0.78813466661E+03  0.12499585878E+03 0.  0.
          2    1    1    2  501    0 -0.52676384934E+02  0.46199236218E+02 -0.45530569426E+03  0.46066522137E+03  0.00000000000E+00 0. -1.
          1    1    1    2  502    0  0.71544199583E+03  0.20998875392E+03  0.99122132444E+03  0.12403516599E+04  0.00000000000E+00 0. -1.
         22    1    3    3    0    0 -0.60341738107E+03 -0.21201095054E+03  0.31771990360E+03  0.71414782508E+03  0.00000000000E+00 0. -1.
         22    1    3    3    0    0 -0.59348229830E+02 -0.44177039600E+02 -0.47906966043E+00  0.73986841529E+02  0.00000000000E+00 0. -1.
</event>
<event>
 7    1  0.4822463E-005  0.8501221E+03  0.7818608E-02  0.9600252E-01
          2   -1    0    0  502    0  0.00000000000E+00  0.00000000000E+00  0.36159691806E+04  0.36159691806E+04  0.00000000000E+00 0. -1.
          1   -1    0    0  501    0 -0.00000000000E+00 -0.00000000000E+00 -0.11518410356E+04  0.11518410356E+04  0.00000000000E+00 0. -1.
         25    2    1    2    0    0  0.69768044220E+01 -0.99285535904E+03  0.12219511657E+04  0.15794304341E+04  0.12500162095E+03 0.  0.
          2    1    1    2  501    0 -0.60300880921E+03  0.36040018896E+03 -0.74226182987E+03  0.10219885245E+04  0.00000000000E+00 0. -1.
          1    1    1    2  502    0  0.59603200479E+03  0.63245517008E+03  0.19844388092E+04  0.21663912575E+04  0.00000000000E+00 0. -1.
         22    1    3    3    0    0  0.44208545649E+02 -0.61563159668E+03  0.68352864929E+03  0.92096040780E+03  0.00000000000E+00 0.  1.
         22    1    3    3    0    0 -0.37231741227E+02 -0.37722376236E+03  0.53842251638E+03  0.65847002634E+03  0.00000000000E+00 0.  1.
</event>
<event>
 7    1  0.4822463E-005  0.1116371E+04  0.7818608E-02  0.1118325E+00
          2   -1    0    0  502    0  0.00000000000E+00  0.00000000000E+00  0.32963657710E+04  0.32963657710E+04  0.00000000000E+00 0. -1.
          1   -1    0    0  501    0 -0.00000000000E+00 -0.00000000000E+00 -0.12466315434E+04  0.12466315434E+04  0.00000000000E+00 0. -1.
         25    2    1    2    0    0  0.25426685748E+03  0.10606813286E+04  0.76530305233E+01  0.10978976971E+04  0.12499707449E+03 0.  0.
          2    1    1    2  501    0  0.48794756864E+02  0.19517191357E+02 -0.58559093874E+03  0.58794438223E+03  0.00000000000E+00 0. -1.
          1    1    1    2  502    0 -0.30306161434E+03 -0.10801985200E+04  0.26276721358E+04  0.28571552351E+04  0.00000000000E+00 0. -1.
         22    1    3    3    0    0 -0.18451826393E+01  0.26154677962E+02 -0.18047396325E+02  0.31830494693E+02  0.00000000000E+00 0.  1.
         22    1    3    3    0    0  0.25611204012E+03  0.10345266507E+04  0.25700426848E+02  0.10660672024E+04  0.00000000000E+00 0.  1.
</event>
<event>
 7    1  0.4822463E-005  0.2981331E+03  0.7818608E-02  0.1210477E+00
          2   -1    0    0  502    0  0.00000000000E+00  0.00000000000E+00  0.16751358563E+03  0.16751358563E+03  0.00000000000E+00 0. -1.
          1   -1    0    0  501    0 -0.00000000000E+00 -0.00000000000E+00 -0.12249941907E+04  0.12249941907E+04  0.00000000000E+00 0. -1.
         25    2    1    2    0    0 -0.20967621365E+03 -0.21538012851E+03 -0.60089289526E+03  0.68340959710E+03  0.12499476591E+03 0.  0.
          2    1    1    2  501    0 -0.41777430821E+02  0.53359474655E+02 -0.39869819980E+03  0.40441666853E+03  0.00000000000E+00 0. -1.
          1    1    1    2  502    0  0.25145364447E+03  0.16202065386E+03 -0.57889510003E+02  0.30468151070E+03  0.00000000000E+00 0. -1.
         22    1    3    3    0    0 -0.52047975737E+01  0.14478500610E+02 -0.51464986418E+02  0.53715563152E+02  0.00000000000E+00 0.  1.
         22    1    3    3    0    0 -0.20447141608E+03 -0.22985862912E+03 -0.54942790884E+03  0.62969403395E+03  0.00000000000E+00 0.  1.
</event>
<event>
 7    1  0.4822463E-005  0.2622476E+03  0.7818608E-02  0.1188052E+00
          2   -1    0    0  502    0  0.00000000000E+00  0.00000000000E+00  0.76691766106E+03  0.76691766106E+03  0.00000000000E+00 0. -1.
          1   -1    0    0  501    0 -0.00000000000E+00 -0.00000000000E+00 -0.18059704475E+04  0.18059704475E+04  0.00000000000E+00 0. -1.
         25    2    1    2    0    0  0.10844450468E+03 -0.28482268084E+03 -0.19998220212E+03  0.38536018285E+03  0.12500167695E+03 0.  0.
          2    1    1    2  501    0 -0.94973977295E+02  0.25420912302E+02 -0.14865973116E+04  0.14898449067E+04  0.00000000000E+00 0. -1.
          1    1    1    2  502    0 -0.13470527384E+02  0.25940176854E+03  0.64752672723E+03  0.69768301907E+03  0.00000000000E+00 0. -1.
         22    1    3    3    0    0  0.89793734481E+02 -0.11359744721E+03 -0.14409788987E+03  0.20428288384E+03  0.00000000000E+00 0.  1.
         22    1    3    3    0    0  0.18650770198E+02 -0.17122523363E+03 -0.55884312258E+02  0.18107729901E+03  0.00000000000E+00 0.  1.
</event>
<event>
 7    1  0.4822463E-005  0.5104262E+02  0.7818608E-02  0.1501109E+00
          2   -1    0    0  502    0  0.00000000000E+00  0.00000000000E+00  0.15194704491E+04  0.15194704491E+04  0.00000000000E+00 0. -1.
          1   -1    0    0  501    0 -0.00000000000E+00 -0.00000000000E+00 -0.37330172685E+03  0.37330172685E+03  0.00000000000E+00 0. -1.
         25    2    1    2    0    0  0.40313608635E+02  0.36374240415E+02 -0.34942431115E+03  0.37506151026E+03  0.12500205940E+03 0.  0.
          2    1    1    2  501    0 -0.86982459705E+01 -0.45492037332E+02  0.38450177986E+02  0.60196354796E+02  0.00000000000E+00 0. -1.
          1    1    1    2  502    0 -0.31615362664E+02  0.91177969170E+01  0.14571428555E+04  0.14575143109E+04  0.00000000000E+00 0. -1.
         22    1    3    3    0    0  0.65207137175E+02  0.58148720280E+02 -0.31671898249E+03  0.32854856304E+03  0.00000000000E+00 0. -1.
         22    1    3    3    0    0 -0.24893528540E+02 -0.21774479864E+02 -0.32705328662E+02  0.46512947224E+02  0.00000000000E+00 0. -1.
</event>
<event>
 7    1  0.4822463E-005  0.7575936E+03  0.7818608E-02  0.1180069E+00
          2   -1    0    0  502    0  0.00000000000E+00  0.00000000000E+00  0.93535081930E+03  0.93535081930E+03  0.00000000000E+00 0. -1.
          1   -1    0    0  501    0 -0.00000000000E+00 -0.00000000000E+00 -0.18025567734E+04  0.18025567734E+04  0.00000000000E+00 0. -1.
         25    2    1    2    0    0 -0.11844225547E+03 -0.75199692034E+03 -0.80551203947E+03  0.11153485060E+04  0.12499883202E+03 0.  0.
          2    1    1    2  501    0  0.81311642085E+02  0.74964965456E+03 -0.67265235521E+03  0.10104688905E+04  0.00000000000E+00 0. -1.
          1    1    1    2  502    0  0.37130613383E+02  0.23472657778E+01  0.61095844060E+03  0.61209019617E+03  0.00000000000E+00 0. -1.
         22    1    3    3    0    0  0.11184933751E+02 -0.88256782547E+01 -0.31204202864E+02  0.34303026339E+02  0.00000000000E+00 0. -1.
         22    1    3    3    0    0 -0.12962718922E+03 -0.74317124208E+03 -0.77430783661E+03  0.10810454797E+04  0.00000000000E+00 0. -1.
</event>
<event>
 7    1  0.4822463E-005  0.7313491E+02  0.7818608E-02  0.1365554E+00
          2   -1    0    0  502    0  0.00000000000E+00  0.00000000000E+00  0.18260195898E+03  0.18260195898E+03  0.00000000000E+00 0. -1.
          1   -1    0    0  501    0 -0.00000000000E+00 -0.00000000000E+00 -0.24292760698E+03  0.24292760698E+03  0.00000000000E+00 0. -1.
         25    2    1    2    0    0 -0.33502568685E+01 -0.24065587384E+02 -0.48106945747E+02  0.13612376375E+03  0.12500009645E+03 0.  0.
          2    1    1    2  501    0  0.11614749775E+02  0.87536823060E+02 -0.12894438801E+03  0.15628260621E+03  0.00000000000E+00 0. -1.
          1    1    1    2  502    0 -0.82644929069E+01 -0.63471235676E+02  0.11672568575E+03  0.13312319601E+03  0.00000000000E+00 0. -1.
         22    1    3    3    0    0  0.16538502096E+02 -0.27035133972E+02  0.36974370797E+02  0.48698301986E+02  0.00000000000E+00 0. -1.
         22    1    3    3    0    0 -0.19888758964E+02  0.29695465873E+01 -0.85081316545E+02  0.87425461766E+02  0.00000000000E+00 0. -1.
</event>
<event>
 7    1  0.4822463E-005  0.5245449E+03  0.7818608E-02  0.1066090E+00
          2   -1    0    0  502    0  0.00000000000E+00  0.00000000000E+00  0.26397875560E+04  0.26397875560E+04  0.00000000000E+00 0. -1.
          1   -1    0    0  501    0 -0.00000000000E+00 -0.00000000000E+00 -0.22242986385E+04  0.22242986385E+04  0.00000000000E+00 0. -1.
         25    2    1    2    0    0 -0.38791911521E+03 -0.60094713090E+03 -0.11381002150E+04  0.13500057441E+04  0.12499886223E+03 0.  0.
          2    1    1    2  501    0  0.32900681548E+02  0.22009717645E+03 -0.94037437113E+03  0.96634837393E+03  0.00000000000E+00 0. -1.
          1    1    1    2  502    0  0.35501843366E+03  0.38084995446E+03  0.24939635036E+04  0.25477320765E+04  0.00000000000E+00 0. -1.
         22    1    3    3    0    0 -0.11997998481E+03 -0.30036384917E+03 -0.50406513585E+03  0.59891176297E+03  0.00000000000E+00 0. -1.
         22    1    3    3    0    0 -0.26793913040E+03 -0.30058328173E+03 -0.63403507914E+03  0.75109398110E+03  0.00000000000E+00 0. -1.
</event>
<event>
 7    1  0.4822463E-005  0.6296741E+03  0.7818608E-02  0.1142121E+00
          2   -1    0    0  502    0  0.00000000000E+00  0.00000000000E+00  0.31937218840E+04  0.31937218840E+04  0.00000000000E+00 0. -1.
          1   -1    0    0  501    0 -0.00000000000E+00 -0.00000000000E+00 -0.16230238059E+04  0.16230238059E+04  0.00000000000E+00 0. -1.
         25    2    1    2    0    0  0.57627425025E+03 -0.20377975617E+03  0.71340951197E+03  0.94773146737E+03  0.12499440761E+03 0.  0.
          2    1    1    2  501    0 -0.61439107743E+03  0.14558013831E+03 -0.14391265663E+04  0.15715454962E+04  0.00000000000E+00 0. -1.
          1    1    1    2  502    0  0.38116827173E+02  0.58199617864E+02  0.22964151325E+04  0.22974687264E+04  0.00000000000E+00 0. -1.
         22    1    3    3    0    0  0.12012213025E+03  0.76960468633E+01  0.15648615965E+03  0.19742460200E+03  0.00000000000E+00 0. -1.
         22    1    3    3    0    0  0.45615212001E+03 -0.21147580304E+03  0.55692335233E+03  0.75030686537E+03  0.00000000000E+00 0. -1.
</event>
<event>
 7    1  0.4822463E-005  0.4099869E+03  0.7818608E-02  0.1190938E+00
          2   -1    0    0  502    0  0.00000000000E+00  0.00000000000E+00  0.89649692850E+03  0.89649692850E+03  0.00000000000E+00 0. -1.
          1   -1    0    0  501    0 -0.00000000000E+00 -0.00000000000E+00 -0.37835364296E+03  0.37835364296E+03  0.00000000000E+00 0. -1.
         25    2    1    2    0    0 -0.42113252886E+03 -0.43743680475E+02  0.39619078823E+03  0.59317645316E+03  0.12500018985E+03 0.  0.
          2    1    1    2  501    0  0.40660580180E+03 -0.15412153159E+02 -0.12630711178E+03  0.42605081740E+03  0.00000000000E+00 0. -1.
          1    1    1    2  502    0  0.14526727062E+02  0.59155833634E+02  0.24825960910E+03  0.25562330089E+03  0.00000000000E+00 0. -1.
         22    1    3    3    0    0 -0.88824677095E+02 -0.38602882905E+02  0.36632313099E+02  0.10354676331E+03  0.00000000000E+00 0. -1.
         22    1    3    3    0    0 -0.33230785176E+03 -0.51407975707E+01  0.35955847513E+03  0.48962968985E+03  0.00000000000E+00 0. -1.
</event>
<event>
 7    1  0.4822463E-005  0.1762851E+03  0.7818608E-02  0.1179540E+00
          2   -1    0    0  502    0  0.00000000000E+00  0.00000000000E+00  0.14723987302E+04  0.14723987302E+04  0.00000000000E+00 0. -1.
          1   -1    0    0  501    0 -0.00000000000E+00 -0.00000000000E+00 -0.12733780055E+03  0.12733780055E+03  0.00000000000E+00 0. -1.
         25    2    1    2    0    0 -0.58037512171E+02 -0.12595244465E+03  0.54803979312E+03  0.57896942688E+03  0.12500244511E+03 0.  0.
          2    1    1    2  501    0 -0.15924694366E+03  0.22606281871E+02 -0.26325413173E+02  0.16298362011E+03  0.00000000000E+00 0. -1.
          1    1    1    2  502    0  0.21728445583E+03  0.10334616278E+03  0.82334654971E+03  0.85778348377E+03  0.00000000000E+00 0. -1.
         22    1    3    3    0    0 -0.23958963290E+02 -0.13927458585E+03  0.49316938513E+03  0.51301801588E+03  0.00000000000E+00 0.  1.
         22    1    3    3    0    0 -0.34078548880E+02  0.13322141196E+02  0.54870407985E+02  0.65951410995E+02  0.00000000000E+00 0.  1.
</event>
<event>
 7    1  0.4822463E-005  0.2471691E+03  0.7818608E-02  0.1184518E+00
          2   -1    0    0  502    0  0.00000000000E+00  0.00000000000E+00  0.98120224974E+03  0.98120224974E+03  0.00000000000E+00 0. -1.
          1   -1    0    0  501    0 -0.00000000000E+00 -0.00000000000E+00 -0.81362016680E+03  0.81362016680E+03  0.00000000000E+00 0. -1.
         25    2    1    2    0    0  0.23480321293E+03  0.89964128109E+01  0.77688736417E+03  0.82121378367E+03  0.12499847054E+03 0.  0.
          2    1    1    2  501    0  0.10167398040E+03 -0.37863258107E+02 -0.62614559457E+03  0.63547582976E+03  0.00000000000E+00 0. -1.
          1    1    1    2  502    0 -0.33647719333E+03  0.28866845296E+02  0.16840313340E+02  0.33813280311E+03  0.00000000000E+00 0. -1.
         22    1    3    3    0    0  0.43379330484E+02  0.29267917418E+02  0.33719079964E+03  0.34122721560E+03  0.00000000000E+00 0.  1.
         22    1    3    3    0    0  0.19142388244E+03 -0.20271504607E+02  0.43969656453E+03  0.47998656807E+03  0.00000000000E+00 0.  1.
</event>
<event>
 7    1  0.4822463E-005  0.1480664E+03  0.7818608E-02  0.1243608E+00
          2   -1    0    0  502    0  0.00000000000E+00  0.00000000000E+00  0.18165957254E+03  0.18165957254E+03  0.00000000000E+00 0. -1.
          1   -1    0    0  501    0 -0.00000000000E+00 -0.00000000000E+00 -0.91929498531E+03  0.91929498531E+03  0.00000000000E+00 0. -1.
         25    2    1    2    0    0  0.15492415862E+03  0.25479903092E+02  0.84568281889E+02  0.21777977333E+03  0.12500205993E+03 0.  0.
          2    1    1    2  501    0 -0.55257796511E+02  0.79421566080E+02 -0.65476703961E+03  0.66187694128E+03  0.00000000000E+00 0. -1.
          1    1    1    2  502    0 -0.99666362105E+02 -0.10490146917E+03 -0.16743665505E+03  0.22129784324E+03  0.00000000000E+00 0. -1.
         22    1    3    3    0    0  0.14740694874E+03 -0.15567807446E+02  0.33744984780E+02  0.15201937101E+03  0.00000000000E+00 0. -1.
         22    1    3    3    0    0  0.75172098795E+01  0.41047710539E+02  0.50823297109E+02  0.65760402324E+02  0.00000000000E+00 0. -1.
</event>
<event>
 7    1  0.4822463E-005  0.1238591E+03  0.7818608E-02  0.1246221E+00
          2   -1    0    0  502    0  0.00000000000E+00  0.00000000000E+00  0.29677786877E+04  0.29677786877E+04  0.00000000000E+00 0. -1.
          1   -1    0    0  501    0 -0.00000000000E+00 -0.00000000000E+00 -0.12049827744E+03  0.12049827744E+03  0.00000000000E+00 0. -1.
         25    2    1    2    0    0  0.79975732692E+02  0.75909286429E+02 -0.35258081983E+02  0.17037382550E+03  0.12500308190E+03 0.  0.
          2    1    1    2  501    0 -0.22747620020E+01 -0.17236463731E+03  0.44501532261E+03  0.47723514130E+03  0.00000000000E+00 0. -1.
          1    1    1    2  502    0 -0.77700970690E+02  0.96455350885E+02  0.24375231697E+04  0.24406679984E+04  0.00000000000E+00 0. -1.
         22    1    3    3    0    0 -0.21119582294E+01  0.46750835505E+02 -0.63424241805E+02  0.78820907357E+02  0.00000000000E+00 0. -1.
         22    1    3    3    0    0  0.82087690921E+02  0.29158450923E+02  0.28166159821E+02  0.91552918141E+02  0.00000000000E+00 0. -1.
</event>
<event>
 7    1  0.4822463E-005  0.5999427E+03  0.7818608E-02  0.1176588E+00
          2   -1    0    0  502    0  0.00000000000E+00  0.00000000000E+00  0.20203849678E+04  0.20203849678E+04  0.00000000000E+00 0. -1.
          1   -1    0    0  501    0 -0.00000000000E+00 -0.00000000000E+00 -0.53877894519E+03  0.53877894519E+03  0.00000000000E+00 0. -1.
         25    2    1    2    0    0  0.46192693166E+03  0.37710975387E+03  0.68623218797E+03  0.91767123997E+03  0.12497052535E+03 0.  0.
          2    1    1    2  501    0 -0.49511700227E+03 -0.34125063234E+03 -0.20848731841E+03  0.63644308618E+03  0.00000000000E+00 0. -1.
          1    1    1    2  502    0  0.33190070616E+02 -0.35859121532E+02  0.10038611531E+04  0.10050495868E+04  0.00000000000E+00 0. -1.
         22    1    3    3    0    0  0.24291545979E+03  0.27554433513E+03  0.43249653914E+03  0.56743797687E+03  0.00000000000E+00 0. -1.
         22    1    3    3    0    0  0.21901147187E+03  0.10156541874E+03  0.25373564883E+03  0.35023326310E+03  0.00000000000E+00 0. -1.
</event>
<event>
 7    1  0.4822463E-005  0.3954099E+03  0.7818608E-02  0.1251169E+00
          2   -1    0    0  502    0  0.00000000000E+00  0.00000000000E+00  0.37017112127E+04  0.37017112127E+04  0.00000000000E+00 0. -1.
          1   -1    0    0  501    0 -0.00000000000E+00 -0.00000000000E+00 -0.19845751880E+03  0.19845751880E+03  0.00000000000E+00 0. -1.
         25    2    1    2    0    0 -0.15659218774E+03 -0.35972194874E+03  0.28229793052E+04  0.28528510112E+04  0.12500296351E+03 0.  0.
          2    1    1    2  501    0  0.23460921253E+02 -0.24030617252E+02 -0.13357646768E+03  0.13773364916E+03  0.00000000000E+00 0. -1.
          1    1    1    2  502    0  0.13313126648E+03  0.38375256599E+03  0.81385085634E+03  0.90958407109E+03  0.00000000000E+00 0. -1.
         22    1    3    3    0    0 -0.19409224959E+02 -0.16862860795E+03  0.93611999483E+03  0.95138476452E+03  0.00000000000E+00 0. -1.
         22    1    3    3    0    0 -0.13718296278E+03 -0.19109334079E+03  0.18868593104E+04  0.19014662467E+04  0.00000000000E+00 0. -1.
</event>
<event>
 7    1  0.4822463E-005  0.4810185E+03  0.7818608E-02  0.1089969E+00
          2   -1    0    0  502    0  0.00000000000E+00  0.00000000000E+00  0.58505394347E+03  0.58505394347E+03  0.00000000000E+00 0. -1.
          1   -1    0    0  501    0 -0.00000000000E+00 -0.00000000000E+00 -0.14619582446E+04  0.14619582446E+04  0.00000000000E+00 0. -1.
         25    2    1    2    0    0  0.46807882706E+03  0.20350552007E+03 -0.72830880296E+02  0.53051293726E+03  0.12500941741E+03 0.  0.
          2    1    1    2  501    0 -0.34749252596E+03 -0.33131625174E+03 -0.10842388553E+04  0.11857889398E+04  0.00000000000E+00 0. -1.
          1    1    1    2  502    0 -0.12058630110E+03  0.12781073168E+03  0.28016543449E+03  0.33071031104E+03  0.00000000000E+00 0. -1.
         22    1    3    3    0    0  0.38760350699E+03  0.12207352094E+03 -0.85679680879E+02  0.41530643008E+03  0.00000000000E+00 0. -1.
         22    1    3    3    0    0  0.80475320065E+02  0.81431999129E+02  0.12848800583E+02  0.11520650719E+03  0.00000000000E+00 0. -1.
</event>
<event>
 7    1  0.4822463E-005  0.1723405E+03  0.7818608E-02  0.1227091E+00
          2   -1    0    0  502    0  0.00000000000E+00  0.00000000000E+00  0.41808480808E+02  0.41808480808E+02  0.00000000000E+00 0. -1.
          1   -1    0    0  501    0 -0.00000000000E+00 -0.00000000000E+00 -0.27001038600E+04  0.27001038600E+04  0.00000000000E+00 0. -1.
         25    2    1    2    0    0  0.15549545984E+02 -0.16743423503E+03 -0.21421841240E+04  0.21524065242E+04  0.12500005094E+03 0.  0.
          2    1    1    2  501    0  0.93898971042E+02  0.29532537269E+02 -0.26612741762E+03  0.28374811000E+03  0.00000000000E+00 0. -1.
          1    1    1    2  502    0 -0.10944851703E+03  0.13790169776E+03 -0.24998383762E+03  0.30575770668E+03  0.00000000000E+00 0. -1.
         22    1    3    3    0    0  0.47677241255E+00 -0.64579092813E+02 -0.28117156357E+03  0.28849286768E+03  0.00000000000E+00 0.  1.
         22    1    3    3    0    0  0.15072773571E+02 -0.10285514222E+03 -0.18610125604E+04  0.18639136565E+04  0.00000000000E+00 0.  1.
</event>
<event>
 7    1  0.4822463E-005  0.4560765E+02  0.7818608E-02  0.1471729E+00
          2   -1    0    0  502    0  0.00000000000E+00  0.00000000000E+00  0.32935675043E+02  0.32935675043E+02  0.00000000000E+00 0. -1.
          1   -1    0    0  501    0 -0.00000000000E+00 -0.00000000000E+00 -0.16631246138E+04  0.16631246138E+04  0.00000000000E+00 0. -1.
         25    2    1    2    0    0 -0.32321526310E+01  0.13339494669E+02 -0.51084968177E+03  0.52609952132E+03  0.12499968013E+03 0.  0.
          2    1    1    2  501    0  0.47940336453E+02 -0.64528754988E+01 -0.11234940269E+04  0.11245349011E+04  0.00000000000E+00 0. -1.
          1    1    1    2  502    0 -0.44708183822E+02 -0.68866191702E+01  0.41547698899E+01  0.45425866388E+02  0.00000000000E+00 0. -1.
         22    1    3    3    0    0 -0.34418921569E+02  0.58419308512E+02 -0.22313645650E+03  0.23321096885E+03  0.00000000000E+00 0. -1.
         22    1    3    3    0    0  0.31186768938E+02 -0.45079813842E+02 -0.28771322527E+03  0.29288855247E+03  0.00000000000E+00 0. -1.
</event>
<event>
 7    1  0.4822463E-005  0.7725617E+02  0.7818608E-02  0.1414262E+00
          2   -1    0    0  502    0  0.00000000000E+00  0.00000000000E+00  0.22070843425E+03  0.22070843425E+03  0.00000000000E+00 0. -1.
          1   -1    0    0  501    0 -0.00000000000E+00 -0.00000000000E+00 -0.14493833605E+03  0.14493833605E+03  0.00000000000E+00 0. -1.
         25    2    1    2    0    0 -0.10414107295E+03  0.27787972544E+02  0.85681828611E+02  0.18596721322E+03  0.12499957659E+03 0.  0.
          2    1    1    2  501    0  0.40936267991E+02 -0.14105198843E+01 -0.74833950094E+02  0.85310536806E+02  0.00000000000E+00 0. -1.
          1    1    1    2  502    0  0.63204804954E+02 -0.26377452659E+02  0.64922219685E+02  0.94369020271E+02  0.00000000000E+00 0. -1.
         22    1    3    3    0    0  0.26742144189E+02  0.12653432861E+02  0.32320361305E+02  0.43816177307E+02  0.00000000000E+00 0.  1.
         22    1    3    3    0    0 -0.13088321713E+03  0.15134539683E+02  0.53361467306E+02  0.14215103592E+03  0.00000000000E+00 0.  1.
</event>
<event>
 7    1  0.4822463E-005  0.1547415E+03  0.7818608E-02  0.1195266E+00
          2   -1    0    0  502    0  0.00000000000E+00  0.00000000000E+00  0.64497688792E+03  0.64497688792E+03  0.00000000000E+00 0. -1.
          1   -1    0    0  501    0 -0.00000000000E+00 -0.00000000000E+00 -0.55904061552E+03  0.55904061552E+03  0.00000000000E+00 0. -1.
         25    2    1    2    0    0 -0.10991548637E+02  0.16093004697E+03  0.42051267898E+03  0.46741347698E+03  0.12500060447E+03 0.  0.
          2    1    1    2  501    0  0.15018425451E+03 -0.33590234462E+02 -0.47636584693E+03  0.50060766502E+03  0.00000000000E+00 0. -1.
          1    1    1    2  502    0 -0.13919270587E+03 -0.12733981251E+03  0.14178944034E+03  0.23599636144E+03  0.00000000000E+00 0. -1.
         22    1    3    3    0    0 -0.57383897769E+02  0.73838201112E+02  0.28378991056E+03  0.29880044345E+03  0.00000000000E+00 0.  1.
         22    1    3    3    0    0  0.46392349132E+02  0.87091845862E+02  0.13672276842E+03  0.16861303354E+03  0.00000000000E+00 0.  1.
</event>
<event>
 7    1  0.4822463E-005  0.5159485E+03  0.7818608E-02  0.1026419E+00
          2   -1    0    0  502    0  0.00000000000E+00  0.00000000000E+00  0.24909673015E+04  0.24909673015E+04  0.00000000000E+00 0. -1.
          1   -1    0    0  501    0 -0.00000000000E+00 -0.00000000000E+00 -0.81046619615E+03  0.81046619615E+03  0.00000000000E+00 0. -1.
         25    2    1    2    0    0  0.68157089716E+03  0.17558267229E+02  0.16434948352E+04  0.17836889074E+04  0.12499465743E+03 0.  0.
          2    1    1    2  501    0 -0.32705739525E+03 -0.23062052504E+03 -0.62204367090E+03  0.73965579486E+03  0.00000000000E+00 0. -1.
          1    1    1    2  502    0 -0.35451350190E+03  0.21306225782E+03  0.65904994113E+03  0.77808879547E+03  0.00000000000E+00 0. -1.
         22    1    3    3    0    0  0.47067412908E+03  0.61526040504E+02  0.10502230113E+04  0.11525137582E+04  0.00000000000E+00 0. -1.
         22    1    3    3    0    0  0.21089676808E+03 -0.43967773275E+02  0.59327182390E+03  0.63117514916E+03  0.00000000000E+00 0. -1.
</event>
<event>
 7    1  0.4822463E-005  0.1682708E+03  0.7818608E-02  0.1250619E+00
          2   -1    0    0  502    0  0.00000000000E+00  0.00000000000E+00  0.19048857706E+03  0.19048857706E+03  0.00000000000E+00 0. -1.
          1   -1    0    0  501    0 -0.00000000000E+00 -0.00000000000E+00 -0.16035392185E+04  0.16035392185E+04  0.00000000000E+00 0. -1.
         25    2    1    2    0    0 -0.99651886017E+02 -0.15505353067E+03 -0.71462686794E+03  0.74852443272E+03  0.12500068091E+03 0.  0.
          2    1    1    2  501    0 -0.43435671295E+02  0.66407518978E+02 -0.82880290437E+03  0.83259285994E+03  0.00000000000E+00 0. -1.
          1    1    1    2  502    0  0.14308755731E+03  0.88646011693E+02  0.13037913092E+03  0.21291050285E+03  0.00000000000E+00 0. -1.
         22    1    3    3    0    0 -0.47584596786E+02 -0.21188426580E+01 -0.75292393581E+02  0.89093927272E+02  0.00000000000E+00 0.  1.
         22    1    3    3    0    0 -0.52067289231E+02 -0.15293468801E+03 -0.63933447436E+03  0.65943050545E+03  0.00000000000E+00 0.  1.
</event>
<event>
 7    1  0.4822463E-005  0.2238615E+03  0.7818608E-02  0.1240573E+00
          2   -1    0    0  502    0  0.00000000000E+00  0.00000000000E+00  0.13950931818E+04  0.13950931818E+04  0.00000000000E+00 0. -1.
          1   -1    0    0  501    0 -0.00000000000E+00 -0.00000000000E+00 -0.84407950908E+03  0.84407950908E+03  0.00000000000E+00 0. -1.
         25    2    1    2    0    0 -0.16532911975E+03 -0.20213895530E+03  0.79182472619E+03  0.84309281752E+03  0.12500090741E+03 0.  0.
          2    1    1    2  501    0  0.24280303583E+02  0.61361445758E+02 -0.79985833386E+03  0.80257592439E+03  0.00000000000E+00 0. -1.
          1    1    1    2  502    0  0.14104881617E+03  0.14077750954E+03  0.55904728042E+03  0.59350394900E+03  0.00000000000E+00 0. -1.
         22    1    3    3    0    0 -0.11059325311E+03 -0.40513803661E+02  0.35987365016E+03  0.37865720645E+03  0.00000000000E+00 0.  1.
         22    1    3    3    0    0 -0.54735866643E+02 -0.16162515163E+03  0.43195107603E+03  0.46443561107E+03  0.00000000000E+00 0.  1.
</event>
<event>
 7    1  0.4822463E-005  0.1624933E+03  0.7818608E-02  0.1203751E+00
          2   -1    0    0  502    0  0.00000000000E+00  0.00000000000E+00  0.64232580460E+03  0.64232580460E+03  0.00000000000E+00 0. -1.
          1   -1    0    0  501    0 -0.00000000000E+00 -0.00000000000E+00 -0.10673939559E+04  0.10673939559E+04  0.00000000000E+00 0. -1.
         25    2    1    2    0    0  0.14292349738E+03 -0.15818506998E+03 -0.50771259791E+03  0.56466525283E+03  0.12500049285E+03 0.  0.
          2    1    1    2  501    0 -0.13358378530E+03 -0.39430341082E+01 -0.51173055097E+03  0.52889349780E+03  0.00000000000E+00 0. -1.
          1    1    1    2  502    0 -0.93397120851E+01  0.16212810409E+03  0.59437499757E+03  0.61616100988E+03  0.00000000000E+00 0. -1.
         22    1    3    3    0    0  0.69015626500E+02 -0.36085004547E+02 -0.71599555705E+02  0.10579121245E+03  0.00000000000E+00 0. -1.
         22    1    3    3    0    0  0.73907870884E+02 -0.12210006543E+03 -0.43611304220E+03  0.45887404038E+03  0.00000000000E+00 0. -1.
</event>
<event>
 7    1  0.4822463E-005  0.2949646E+03  0.7818608E-02  0.1192191E+00
          2   -1    0    0  502    0  0.00000000000E+00  0.00000000000E+00  0.15467958182E+04  0.15467958182E+04  0.00000000000E+00 0. -1.
          1   -1    0    0  501    0 -0.00000000000E+00 -0.00000000000E+00 -0.68734984015E+03  0.68734984015E+03  0.00000000000E+00 0. -1.
         25    2    1    2    0    0 -0.13447128706E+03  0.34726178841E+03 -0.58682328477E+03  0.70615921052E+03  0.12500394527E+03 0.  0.
          2    1    1    2  501    0  0.70822829756E+01 -0.83205507502E+02  0.42065028377E+02  0.93502843931E+02  0.00000000000E+00 0. -1.
          1    1    1    2  502    0  0.12738900408E+03 -0.26405628091E+03  0.14042042344E+04  0.14344836039E+04  0.00000000000E+00 0. -1.
         22    1    3    3    0    0 -0.51684733876E+02  0.16570655429E+03 -0.16484913552E+03  0.23938506915E+03  0.00000000000E+00 0. -1.
         22    1    3    3    0    0 -0.82786553179E+02  0.18155523412E+03 -0.42197414924E+03  0.46677414137E+03  0.00000000000E+00 0. -1.
</event>
